<event>
12    3  0.4688899E-008  0.1847416E+04  0.7818608E-02  0.8681483E-01
          2   -1    0    0  501    0  0.00000000000E+00  0.00000000000E+00  0.26332792641E+04  0.26332792641E+04  0.00000000000E+00 0. -1.
         -2   -1    0    0    0  501 -0.00000000000E+00 -0.00000000000E+00 -0.32402061903E+03  0.32402061903E+03  0.00000000000E+00 0.  1.
         23    2    1    2    0    0 -0.62059014584E+03  0.29166167030E+03  0.65105303049E+03  0.95077867877E+03  0.99555956404E+02 0.  0.
        254    2    1    2    0    0  0.62059014584E+03 -0.29166167030E+03  0.16582056145E+04  0.20065212043E+04  0.89793252768E+03 0.  0.
         23    2    4    4    0    0 -0.12577381191E+03 -0.13094464971E+03  0.29591359903E+02  0.20548797314E+03  0.91564761095E+02 0.  0.
         23    2    4    4    0    0  0.74636395775E+03 -0.16071702059E+03  0.16286142546E+04  0.18010332312E+04  0.91908602839E+02 0.  0.
          3    1    3    3  502    0 -0.23727982856E+02 -0.73081272828E+01  0.30667932362E+02  0.39458180016E+02  0.00000000000E+00 0. -1.
         -3    1    3    3    0  502 -0.59686216298E+03  0.29896979758E+03  0.62038509813E+03  0.91132049875E+03  0.00000000000E+00 0.  1.
         13    1    5    5    0    0 -0.61735815822E+02 -0.53403635165E+02  0.58990392840E+02  0.10071308580E+03  0.00000000000E+00 0. -1.
        -13    1    5    5    0    0 -0.64037996090E+02 -0.77541014541E+02 -0.29399032936E+02  0.10477488734E+03  0.00000000000E+00 0.  1.
          2    1    6    6  503    0  0.23447478387E+02  0.77694377127E+01  0.33109531911E+02  0.41308467757E+02  0.00000000000E+00 0. -1.
         -2    1    6    6    0  503  0.72291647936E+03 -0.16848645830E+03  0.15955047227E+04  0.17597247634E+04  0.00000000000E+00 0.  1.
<mgrwt>
<rscale>  0 0.18474163E+04</rscale>
<asrwt>0</asrwt>
<pdfrwt beam="1">  1        2 0.40511987E+00 0.18474163E+04</pdfrwt>
<pdfrwt beam="2">  1       -2 0.49849328E-01 0.18474163E+04</pdfrwt>
<totfact> 0.10432759E+01</totfact>
</mgrwt>
</event>
<event>
12    3  0.4688899E-008  0.2677641E+04  0.7818608E-02  0.8342296E-01
          1   -1    0    0  501    0  0.00000000000E+00  0.00000000000E+00  0.27719210641E+04  0.27719210641E+04  0.00000000000E+00 0. -1.
         -1   -1    0    0    0  501 -0.00000000000E+00 -0.00000000000E+00 -0.64664196577E+03  0.64664196577E+03  0.00000000000E+00 0.  1.
         23    2    1    2    0    0  0.22301588070E+02  0.15510168580E+03  0.23145335376E+04  0.23217355014E+04  0.94001852454E+02 0.  0.
        254    2    1    2    0    0 -0.22301588070E+02 -0.15510168580E+03 -0.18925443921E+03  0.10968275285E+04  0.10689525203E+04 0.  0.
         23    2    4    4    0    0 -0.46476772671E+03 -0.88875386439E+02  0.17634255643E+03  0.51201803776E+03  0.84604371485E+02 0.  0.
         23    2    4    4    0    0  0.44246613864E+03 -0.66226299365E+02 -0.36559699564E+03  0.58480949070E+03  0.90436555785E+02 0.  0.
          3    1    3    3  502    0  0.30875723767E+02  0.12219183891E+03  0.21517288187E+04  0.21554166802E+04  0.00000000000E+00 0. -1.
         -3    1    3    3    0  502 -0.85741356967E+01  0.32909846894E+02  0.16280471882E+03  0.16631882123E+03  0.00000000000E+00 0.  1.
         13    1    5    5    0    0 -0.96729306579E+02 -0.52562844247E+02  0.28344388962E+02  0.11367856320E+03  0.00000000000E+00 0. -1.
        -13    1    5    5    0    0 -0.36803842013E+03 -0.36312542192E+02  0.14799816746E+03  0.39833947455E+03  0.00000000000E+00 0.  1.
          4    1    6    6  503    0  0.18312097449E+03 -0.13790999045E+01 -0.10312025376E+03  0.21016417380E+03  0.00000000000E+00 0. -1.
         -4    1    6    6    0  503  0.25934516416E+03 -0.64847199460E+02 -0.26247674188E+03  0.37464531691E+03  0.00000000000E+00 0.  1.
<mgrwt>
<rscale>  0 0.26776411E+04</rscale>
<asrwt>0</asrwt>
<pdfrwt beam="1">  1        1 0.42644939E+00 0.26776411E+04</pdfrwt>
<pdfrwt beam="2">  1       -1 0.99483381E-01 0.26776411E+04</pdfrwt>
<totfact> 0.73598213E-01</totfact>
</mgrwt>
</event>
<event>
12    3  0.4688899E-008  0.1939359E+04  0.7818608E-02  0.8635509E-01
          1   -1    0    0  501    0  0.00000000000E+00  0.00000000000E+00  0.14682147425E+04  0.14682147425E+04  0.00000000000E+00 0. -1.
         -1   -1    0    0    0  501 -0.00000000000E+00 -0.00000000000E+00 -0.64042307972E+03  0.64042307972E+03  0.00000000000E+00 0.  1.
         23    2    1    2    0    0 -0.42325211593E+03  0.62970802090E+03  0.44292727171E+03  0.88326889754E+03  0.91130851625E+02 0.  0.
        254    2    1    2    0    0  0.42325211593E+03 -0.62970802090E+03  0.38486439104E+03  0.12253689247E+04  0.88189220248E+03 0.  0.
         23    2    4    4    0    0  0.39785960852E+03 -0.24593238710E+03 -0.20179916426E+03  0.51766207701E+03  0.92065825169E+02 0.  0.
         23    2    4    4    0    0  0.25392507409E+02 -0.38377563380E+03  0.58666355530E+03  0.70770684765E+03  0.93521861396E+02 0.  0.
          1    1    3    3  502    0 -0.37164578035E+03  0.56671848247E+03  0.36143910690E+03  0.76806813006E+03  0.00000000000E+00 0. -1.
         -1    1    3    3    0  502 -0.51606335578E+02  0.62989538433E+02  0.81488164810E+02  0.11520076748E+03  0.00000000000E+00 0.  1.
         13    1    5    5    0    0  0.40041030722E+03 -0.24132160280E+03 -0.20603995743E+03  0.51089822290E+03  0.00000000000E+00 0.  1.
        -13    1    5    5    0    0 -0.25506987015E+01 -0.46107842948E+01  0.42407931695E+01  0.67638541074E+01  0.00000000000E+00 0. -1.
          4    1    6    6  503    0 -0.22417199463E+02 -0.27483827015E+03  0.38494707008E+03  0.47352175487E+03  0.00000000000E+00 0.  1.
         -4    1    6    6    0  503  0.47809706872E+02 -0.10893736365E+03  0.20171648522E+03  0.23418509277E+03  0.00000000000E+00 0. -1.
<mgrwt>
<rscale>  0 0.19393593E+04</rscale>
<asrwt>0</asrwt>
<pdfrwt beam="1">  1        1 0.22587919E+00 0.19393593E+04</pdfrwt>
<pdfrwt beam="2">  1       -1 0.98526628E-01 0.19393593E+04</pdfrwt>
<totfact> 0.63282695E+00</totfact>
</mgrwt>
</event>
<event>
12    3  0.4688899E-008  0.1537572E+04  0.7818608E-02  0.8859845E-01
         -1   -1    0    0    0  501 -0.00000000000E+00  0.00000000000E+00  0.76036074266E+03  0.76036074266E+03  0.00000000000E+00 0.  1.
          1   -1    0    0  501    0  0.00000000000E+00 -0.00000000000E+00 -0.77730449700E+03  0.77730449700E+03  0.00000000000E+00 0. -1.
         23    2    1    2    0    0  0.34732405547E+03 -0.33168300729E+03  0.12881545538E+03  0.50548636340E+03  0.90969364089E+02 0.  0.
        254    2    1    2    0    0 -0.34732405547E+03  0.33168300729E+03 -0.14575920971E+03  0.10321788763E+04  0.90194227562E+03 0.  0.
         23    2    4    4    0    0 -0.60754500971E+03  0.10020881943E+03 -0.22907599811E+03  0.66322540427E+03  0.90771017688E+02 0.  0.
         23    2    4    4    0    0  0.26022095423E+03  0.23147418786E+03  0.83316788400E+02  0.36895347199E+03  0.88824166730E+02 0.  0.
          1    1    3    3  502    0  0.20724395593E+03 -0.24023151407E+03  0.11560113160E+03  0.33767567168E+03  0.00000000000E+00 0. -1.
         -1    1    3    3    0  502  0.14008009954E+03 -0.91451493222E+02  0.13214323777E+02  0.16781069171E+03  0.00000000000E+00 0.  1.
         13    1    5    5    0    0 -0.31611241289E+03  0.99605234811E+01 -0.97317582132E+02  0.33090328104E+03  0.00000000000E+00 0.  1.
        -13    1    5    5    0    0 -0.29143259681E+03  0.90248295946E+02 -0.13175841598E+03  0.33232212323E+03  0.00000000000E+00 0. -1.
          3    1    6    6  503    0  0.18952236938E+02 -0.62591560760E+01  0.10291238144E+02  0.22456043781E+02  0.00000000000E+00 0. -1.
         -3    1    6    6    0  503  0.24126871730E+03  0.23773334394E+03  0.73025550256E+02  0.34649742821E+03  0.00000000000E+00 0.  1.
<mgrwt>
<rscale>  0 0.15375719E+04</rscale>
<asrwt>0</asrwt>
<pdfrwt beam="1">  1        1 0.11958531E+00 0.15375719E+04</pdfrwt>
<pdfrwt beam="2">  1       -1 0.11697858E+00 0.15375719E+04</pdfrwt>
<totfact> 0.14712436E+01</totfact>
</mgrwt>
</event>
<event>
12    3  0.4688899E-008  0.3264589E+04  0.7818608E-02  0.8171965E-01
          2   -1    0    0  501    0  0.00000000000E+00  0.00000000000E+00  0.22209269671E+04  0.22209269671E+04  0.00000000000E+00 0. -1.
         -2   -1    0    0    0  501 -0.00000000000E+00 -0.00000000000E+00 -0.11996723517E+04  0.11996723517E+04  0.00000000000E+00 0.  1.
         23    2    1    2    0    0  0.12485922599E+04 -0.19377130923E+03  0.13334185236E+04  0.18389874804E+04  0.85674045934E+02 0.  0.
        254    2    1    2    0    0 -0.12485922599E+04  0.19377130923E+03 -0.31216390820E+03  0.15816118384E+04  0.89862102687E+03 0.  0.
         23    2    4    4    0    0 -0.67650909766E+03  0.24512818768E+03  0.25559058192E+03  0.76916483594E+03  0.92388374126E+02 0.  0.
         23    2    4    4    0    0 -0.57208316225E+03 -0.51356878446E+02 -0.56775449012E+03  0.81244700243E+03  0.88364569955E+02 0.  0.
          1    1    3    3  502    0  0.54885349434E+03 -0.89066887790E+02  0.64864046027E+03  0.85434625033E+03  0.00000000000E+00 0. -1.
         -1    1    3    3    0  502  0.69973876556E+03 -0.10470442144E+03  0.68477806331E+03  0.98464123004E+03  0.00000000000E+00 0.  1.
         13    1    5    5    0    0 -0.63399551599E+03  0.21586721462E+03  0.25746267006E+03  0.71752072801E+03  0.00000000000E+00 0. -1.
        -13    1    5    5    0    0 -0.42513581667E+02  0.29260973056E+02 -0.18720881389E+01  0.51644107934E+02  0.00000000000E+00 0.  1.
          4    1    6    6  503    0 -0.46628932703E+03 -0.75226117192E+02 -0.45021202007E+03  0.65251480307E+03  0.00000000000E+00 0. -1.
         -4    1    6    6    0  503 -0.10579383522E+03  0.23869238746E+02 -0.11754247005E+03  0.15993219937E+03  0.00000000000E+00 0.  1.
<mgrwt>
<rscale>  0 0.32645886E+04</rscale>
<asrwt>0</asrwt>
<pdfrwt beam="1">  1        2 0.34168107E+00 0.32645886E+04</pdfrwt>
<pdfrwt beam="2">  1       -2 0.18456498E+00 0.32645886E+04</pdfrwt>
<totfact> 0.71013336E-01</totfact>
</mgrwt>
</event>
<event>
12    3  0.4688899E-008  0.1413447E+04  0.7818608E-02  0.8944142E-01
         -2   -1    0    0    0  501 -0.00000000000E+00  0.00000000000E+00  0.22967151775E+03  0.22967151775E+03  0.00000000000E+00 0.  1.
          2   -1    0    0  501    0  0.00000000000E+00 -0.00000000000E+00 -0.21746623346E+04  0.21746623346E+04  0.00000000000E+00 0. -1.
         23    2    1    2    0    0  0.15388913242E+03  0.33016151941E+03 -0.94031009573E+03  0.10125275570E+04  0.91326248241E+02 0.  0.
        254    2    1    2    0    0 -0.15388913242E+03 -0.33016151941E+03 -0.10046807211E+04  0.13918062953E+04  0.89165739962E+03 0.  0.
         23    2    4    4    0    0 -0.30330614055E+03  0.22000015473E+03 -0.38249588395E+03  0.54321120072E+03  0.91545750138E+02 0.  0.
         23    2    4    4    0    0  0.14941700813E+03 -0.55016167413E+03 -0.62218483713E+03  0.84859509456E+03  0.89422329212E+02 0.  0.
          3    1    3    3  502    0  0.12734319744E+03  0.24375839385E+03 -0.79677812644E+03  0.84290558622E+03  0.00000000000E+00 0. -1.
         -3    1    3    3    0  502  0.26545934986E+02  0.86403125558E+02 -0.14353196930E+03  0.16962197081E+03  0.00000000000E+00 0.  1.
         13    1    5    5    0    0 -0.21453570763E+03  0.13794139707E+03 -0.31303935639E+03  0.40379083387E+03  0.00000000000E+00 0.  1.
        -13    1    5    5    0    0 -0.88770432923E+02  0.82058757655E+02 -0.69456527566E+02  0.13942036684E+03  0.00000000000E+00 0. -1.
          4    1    6    6  503    0  0.63505733129E+02 -0.38514073162E+03 -0.44028858011E+03  0.58840495840E+03  0.00000000000E+00 0. -1.
         -4    1    6    6    0  503  0.85911275000E+02 -0.16502094251E+03 -0.18189625701E+03  0.26019013616E+03  0.00000000000E+00 0.  1.
<mgrwt>
<rscale>  0 0.14134468E+04</rscale>
<asrwt>0</asrwt>
<pdfrwt beam="1">  1        2 0.33456345E+00 0.14134468E+04</pdfrwt>
<pdfrwt beam="2">  1       -2 0.35334078E-01 0.14134468E+04</pdfrwt>
<totfact> 0.39083922E+01</totfact>
</mgrwt>
</event>
<event>
12    3  0.4688899E-008  0.4165626E+04  0.7818608E-02  0.7971943E-01
         -4   -1    0    0    0  501 -0.00000000000E+00  0.00000000000E+00  0.17872523434E+04  0.17872523434E+04  0.00000000000E+00 0. -1.
          4   -1    0    0  501    0  0.00000000000E+00 -0.00000000000E+00 -0.24272512820E+04  0.24272512820E+04  0.00000000000E+00 0.  1.
         23    2    1    2    0    0  0.63373765795E+03 -0.40250194296E+03 -0.21654470815E+04  0.22936944415E+04  0.90784881268E+02 0.  0.
        254    2    1    2    0    0 -0.63373765795E+03  0.40250194296E+03  0.15254481429E+04  0.19208091839E+04  0.89380347462E+03 0.  0.
         23    2    4    4    0    0 -0.19049442329E+03  0.28109922144E+03  0.29965687255E+02  0.35346620766E+03  0.93464003462E+02 0.  0.
         23    2    4    4    0    0 -0.44324323465E+03  0.12140272152E+03  0.14954824556E+04  0.15673429763E+04  0.94302938962E+02 0.  0.
          3    1    3    3  502    0  0.45350430212E+03 -0.33460570225E+03 -0.16242394215E+04  0.17192384437E+04  0.00000000000E+00 0.  1.
         -3    1    3    3    0  502  0.18023335582E+03 -0.67896240710E+02 -0.54120766004E+03  0.57445599774E+03  0.00000000000E+00 0. -1.
         13    1    5    5    0    0 -0.67719643439E+02  0.38515726479E+02 -0.10419563515E+02  0.78600118305E+02  0.00000000000E+00 0.  1.
        -13    1    5    5    0    0 -0.12277477985E+03  0.24258349497E+03  0.40385250771E+02  0.27486608936E+03  0.00000000000E+00 0. -1.
          3    1    6    6  503    0 -0.26505000196E+03  0.11216668493E+03  0.10056594247E+04  0.10460323834E+04  0.00000000000E+00 0. -1.
         -3    1    6    6    0  503 -0.17819323269E+03  0.92360365898E+01  0.48982303096E+03  0.52131059285E+03  0.00000000000E+00 0.  1.
<mgrwt>
<rscale>  0 0.41656263E+04</rscale>
<asrwt>0</asrwt>
<pdfrwt beam="1">  1        4 0.37342327E+00 0.41656263E+04</pdfrwt>
<pdfrwt beam="2">  1       -4 0.27496190E+00 0.41656263E+04</pdfrwt>
<totfact> 0.69621707E-04</totfact>
</mgrwt>
</event>
<event>
12    3  0.4688899E-008  0.2435324E+04  0.7818608E-02  0.8426396E-01
         -1   -1    0    0    0  501 -0.00000000000E+00  0.00000000000E+00  0.10865133832E+04  0.10865133832E+04  0.00000000000E+00 0.  1.
          1   -1    0    0  501    0  0.00000000000E+00 -0.00000000000E+00 -0.13646413651E+04  0.13646413651E+04  0.00000000000E+00 0. -1.
         23    2    1    2    0    0  0.73421984639E+03  0.53063701554E+03 -0.65142396386E+03  0.11193926960E+04  0.89623669764E+02 0.  0.
        254    2    1    2    0    0 -0.73421984639E+03 -0.53063701554E+03  0.37329598197E+03  0.13317620523E+04  0.90198993818E+03 0.  0.
         23    2    4    4    0    0  0.43547419423E+02 -0.30805499309E+03  0.40258440623E+03  0.51697892040E+03  0.91644658810E+02 0.  0.
         23    2    4    4    0    0 -0.77776726581E+03 -0.22258202245E+03 -0.29288424257E+02  0.81478313186E+03  0.92461146868E+02 0.  0.
          3    1    3    3  502    0  0.54399597551E+03  0.41431468725E+03 -0.53252457290E+03  0.86670104545E+03  0.00000000000E+00 0. -1.
         -3    1    3    3    0  502  0.19022387088E+03  0.11632232829E+03 -0.11889939096E+03  0.25269165060E+03  0.00000000000E+00 0.  1.
         13    1    5    5    0    0  0.13115528288E+02  0.66820386671E+00  0.25536428081E+02  0.28715374590E+02  0.00000000000E+00 0.  1.
        -13    1    5    5    0    0  0.30431891135E+02 -0.30872319696E+03  0.37704797815E+03  0.48826354581E+03  0.00000000000E+00 0. -1.
          1    1    6    6  503    0 -0.70695433962E+03 -0.17975978424E+03 -0.86818586436E+01  0.72950215422E+03  0.00000000000E+00 0. -1.
         -1    1    6    6    0  503 -0.70812926191E+02 -0.42822238210E+02 -0.20606565614E+02  0.85280977641E+02  0.00000000000E+00 0.  1.
<mgrwt>
<rscale>  0 0.24353243E+04</rscale>
<asrwt>0</asrwt>
<pdfrwt beam="1">  1        1 0.20994483E+00 0.24353243E+04</pdfrwt>
<pdfrwt beam="2">  1       -1 0.16715590E+00 0.24353243E+04</pdfrwt>
<totfact> 0.18775405E+00</totfact>
</mgrwt>
</event>
<event>
12    3  0.4688899E-008  0.1489916E+04  0.7818608E-02  0.8891186E-01
          3   -1    0    0  501    0  0.00000000000E+00  0.00000000000E+00  0.11118724684E+04  0.11118724684E+04  0.00000000000E+00 0. -1.
         -3   -1    0    0    0  501 -0.00000000000E+00 -0.00000000000E+00 -0.49912419760E+03  0.49912419760E+03  0.00000000000E+00 0.  1.
         23    2    1    2    0    0 -0.25725739461E+02 -0.17628660370E+03  0.68516810869E+03  0.71353815313E+03  0.89121145051E+02 0.  0.
        254    2    1    2    0    0  0.25725739461E+02  0.17628660370E+03 -0.72419837848E+02  0.89745851291E+03  0.87661186916E+03 0.  0.
         23    2    4    4    0    0  0.13274188106E+03  0.43789284672E+03  0.18629085867E+03  0.50240844973E+03  0.91320392805E+02 0.  0.
         23    2    4    4    0    0 -0.10701614160E+03 -0.26160624301E+03 -0.25871069652E+03  0.39505006318E+03  0.96140766483E+02 0.  0.
          2    1    3    3  502    0 -0.58756335003E+00 -0.13304992604E+03  0.60168480347E+03  0.61622011553E+03  0.00000000000E+00 0. -1.
         -2    1    3    3    0  502 -0.25138176111E+02 -0.43236677664E+02  0.83483305215E+02  0.97318037604E+02  0.00000000000E+00 0.  1.
         13    1    5    5    0    0  0.25623540368E+02  0.14481728089E+02  0.67664100860E+01  0.30200506202E+02  0.00000000000E+00 0.  1.
        -13    1    5    5    0    0  0.10711834069E+03  0.42341111863E+03  0.17952444858E+03  0.47220794353E+03  0.00000000000E+00 0. -1.
          2    1    6    6  503    0 -0.56229263681E+02 -0.18486342982E+03 -0.11640116598E+03  0.22557803355E+03  0.00000000000E+00 0. -1.
         -2    1    6    6    0  503 -0.50786877915E+02 -0.76742813196E+02 -0.14230953054E+03  0.16947202963E+03  0.00000000000E+00 0.  1.
<mgrwt>
<rscale>  0 0.14899160E+04</rscale>
<asrwt>0</asrwt>
<pdfrwt beam="1">  1        3 0.17105730E+00 0.14899160E+04</pdfrwt>
<pdfrwt beam="2">  1       -3 0.76788338E-01 0.14899160E+04</pdfrwt>
<totfact> 0.92142834E-01</totfact>
</mgrwt>
</event>
<event>
12    3  0.4688899E-008  0.1687190E+04  0.7818608E-02  0.8768704E-01
          2   -1    0    0  501    0  0.00000000000E+00  0.00000000000E+00  0.17035455214E+04  0.17035455214E+04  0.00000000000E+00 0. -1.
         -2   -1    0    0    0  501 -0.00000000000E+00 -0.00000000000E+00 -0.41774799235E+03  0.41774799235E+03  0.00000000000E+00 0.  1.
         23    2    1    2    0    0  0.89063665476E+02 -0.57490206770E+03  0.37181939489E+03  0.69659027219E+03  0.92431709632E+02 0.  0.
        254    2    1    2    0    0 -0.89063665476E+02  0.57490206770E+03  0.91397813416E+03  0.14247032416E+04  0.92519110070E+03 0.  0.
         23    2    4    4    0    0  0.15619659986E+03  0.66402307466E+03  0.29675512988E+03  0.74933901123E+03  0.90118395113E+02 0.  0.
         23    2    4    4    0    0 -0.24526026533E+03 -0.89121006964E+02  0.61722300428E+03  0.67536423033E+03  0.84008660046E+02 0.  0.
          3    1    3    3  502    0  0.35019765338E+02 -0.50440077574E+02  0.31012374418E+02  0.68792098072E+02  0.00000000000E+00 0. -1.
         -3    1    3    3    0  502  0.54043900138E+02 -0.52446199013E+03  0.34080702047E+03  0.62779817412E+03  0.00000000000E+00 0.  1.
         13    1    5    5    0    0  0.37702466425E+02  0.19897269722E+03  0.13290508969E+03  0.24223000037E+03  0.00000000000E+00 0.  1.
        -13    1    5    5    0    0  0.11849413343E+03  0.46505037744E+03  0.16385004019E+03  0.50710901085E+03  0.00000000000E+00 0. -1.
          3    1    6    6  503    0 -0.14044071135E+03 -0.64226059632E+02  0.45615156587E+03  0.48158366998E+03  0.00000000000E+00 0. -1.
         -3    1    6    6    0  503 -0.10481955398E+03 -0.24894947332E+02  0.16107143840E+03  0.19378056035E+03  0.00000000000E+00 0.  1.
<mgrwt>
<rscale>  0 0.16871902E+04</rscale>
<asrwt>0</asrwt>
<pdfrwt beam="1">  1        2 0.26208392E+00 0.16871902E+04</pdfrwt>
<pdfrwt beam="2">  1       -2 0.64268923E-01 0.16871902E+04</pdfrwt>
<totfact> 0.20797971E+01</totfact>
</mgrwt>
</event>
<event>
12    3  0.4688899E-008  0.1773957E+04  0.7818608E-02  0.8720273E-01
          1   -1    0    0  501    0  0.00000000000E+00  0.00000000000E+00  0.13943423815E+04  0.13943423815E+04  0.00000000000E+00 0. -1.
         -1   -1    0    0    0  501 -0.00000000000E+00 -0.00000000000E+00 -0.56423087555E+03  0.56423087555E+03  0.00000000000E+00 0.  1.
         23    2    1    2    0    0  0.26020295286E+03  0.42120873378E+03 -0.13903691027E+03  0.52345699831E+03  0.97742480895E+02 0.  0.
        254    2    1    2    0    0 -0.26020295286E+03 -0.42120873378E+03  0.96914841619E+03  0.14351162587E+04  0.93551464408E+03 0.  0.
         23    2    4    4    0    0 -0.35404215927E+02  0.11977544491E+03 -0.11927707661E+03  0.19521252054E+03  0.91001601428E+02 0.  0.
         23    2    4    4    0    0 -0.22479873694E+03 -0.54098417869E+03  0.10884254928E+04  0.12399037382E+04  0.97431374913E+02 0.  0.
          1    1    3    3  502    0  0.60651257622E+02  0.16582596267E+03 -0.80744459420E+02  0.19415584636E+03  0.00000000000E+00 0. -1.
         -1    1    3    3    0  502  0.19955169524E+03  0.25538277110E+03 -0.58292450853E+02  0.32930115195E+03  0.00000000000E+00 0.  1.
         13    1    5    5    0    0  0.14950233125E+02 -0.80251751230E+01 -0.10096570833E+02  0.19744711921E+02  0.00000000000E+00 0. -1.
        -13    1    5    5    0    0 -0.50354449052E+02  0.12780062004E+03 -0.10918050577E+03  0.17546780862E+03  0.00000000000E+00 0.  1.
          3    1    6    6  503    0 -0.59966858306E+02 -0.92475749802E+02  0.14262328556E+03  0.18024757968E+03  0.00000000000E+00 0. -1.
         -3    1    6    6    0  503 -0.16483187863E+03 -0.44850842889E+03  0.94580220723E+03  0.10596561585E+04  0.00000000000E+00 0.  1.
<mgrwt>
<rscale>  0 0.17739572E+04</rscale>
<asrwt>0</asrwt>
<pdfrwt beam="1">  1        1 0.21451421E+00 0.17739572E+04</pdfrwt>
<pdfrwt beam="2">  1       -1 0.86804751E-01 0.17739572E+04</pdfrwt>
<totfact> 0.95897755E+00</totfact>
</mgrwt>
</event>
<event>
12    3  0.4688899E-008  0.2258948E+04  0.7818608E-02  0.8494285E-01
          2   -1    0    0  501    0  0.00000000000E+00  0.00000000000E+00  0.27377295327E+04  0.27377295327E+04  0.00000000000E+00 0. -1.
         -2   -1    0    0    0  501 -0.00000000000E+00 -0.00000000000E+00 -0.46597436784E+03  0.46597436784E+03  0.00000000000E+00 0.  1.
         23    2    1    2    0    0  0.36874478010E+03 -0.70881669696E+03  0.23256067271E+03  0.83701994355E+03  0.90133771003E+02 0.  0.
        254    2    1    2    0    0 -0.36874478010E+03  0.70881669696E+03  0.20391944921E+04  0.23666839569E+04  0.89693085170E+03 0.  0.
         23    2    4    4    0    0  0.25946114730E+03  0.15267580595E+03  0.87084951258E+03  0.92537031298E+03  0.85447960217E+02 0.  0.
         23    2    4    4    0    0 -0.62820592739E+03  0.55614089101E+03  0.11683449795E+04  0.14413136440E+04  0.91758657648E+02 0.  0.
          3    1    3    3  502    0  0.16767937610E+03 -0.34536290888E+03  0.66207541881E+02  0.38958356049E+03  0.00000000000E+00 0. -1.
         -3    1    3    3    0  502  0.20106540399E+03 -0.36345378808E+03  0.16635313083E+03  0.44743638306E+03  0.00000000000E+00 0.  1.
         13    1    5    5    0    0  0.91998668450E+02  0.13089005636E+02  0.21456255703E+03  0.23382080306E+03  0.00000000000E+00 0.  1.
        -13    1    5    5    0    0  0.16746247885E+03  0.13958680032E+03  0.65628695555E+03  0.69154950992E+03  0.00000000000E+00 0. -1.
          4    1    6    6  503    0 -0.30622200345E+03  0.30114472660E+03  0.66535560870E+03  0.79193317128E+03  0.00000000000E+00 0. -1.
         -4    1    6    6    0  503 -0.32198392394E+03  0.25499616440E+03  0.50298937082E+03  0.64938047268E+03  0.00000000000E+00 0.  1.
<mgrwt>
<rscale>  0 0.22589482E+04</rscale>
<asrwt>0</asrwt>
<pdfrwt beam="1">  1        2 0.42118915E+00 0.22589482E+04</pdfrwt>
<pdfrwt beam="2">  1       -2 0.71688366E-01 0.22589482E+04</pdfrwt>
<totfact> 0.40474935E+00</totfact>
</mgrwt>
</event>
<event>
12    3  0.4688899E-008  0.1212375E+04  0.7818608E-02  0.9102093E-01
         -1   -1    0    0    0  501 -0.00000000000E+00  0.00000000000E+00  0.24423070108E+04  0.24423070108E+04  0.00000000000E+00 0.  1.
          1   -1    0    0  501    0  0.00000000000E+00 -0.00000000000E+00 -0.15045736675E+03  0.15045736675E+03  0.00000000000E+00 0. -1.
         23    2    1    2    0    0 -0.32575017342E+02 -0.80112578771E+02  0.90705393142E+03  0.91591918948E+03  0.93177090082E+02 0.  0.
        254    2    1    2    0    0  0.32575017342E+02  0.80112578771E+02  0.13847957126E+04  0.16768451880E+04  0.94163233907E+03 0.  0.
         23    2    4    4    0    0  0.29982622219E+03  0.40582775739E+03  0.69798900187E+03  0.86613559490E+03  0.91707632507E+02 0.  0.
         23    2    4    4    0    0 -0.26725120485E+03 -0.32571517861E+03  0.68680671073E+03  0.81070959313E+03  0.89627018346E+02 0.  0.
          1    1    3    3  502    0 -0.46198003886E+02 -0.15840329130E+02  0.20239304802E+03  0.20820210728E+03  0.00000000000E+00 0. -1.
         -1    1    3    3    0  502  0.13622986544E+02 -0.64272249641E+02  0.70466088340E+03  0.70771708220E+03  0.00000000000E+00 0.  1.
         13    1    5    5    0    0  0.61617761632E+02  0.91321870555E+02  0.94600196533E+02  0.14520891768E+03  0.00000000000E+00 0. -1.
        -13    1    5    5    0    0  0.23820846056E+03  0.31450588683E+03  0.60338880533E+03  0.72092667722E+03  0.00000000000E+00 0.  1.
          4    1    6    6  503    0 -0.55180411664E+02 -0.20031640368E+02  0.94759140916E+02  0.11146945427E+03  0.00000000000E+00 0. -1.
         -4    1    6    6    0  503 -0.21207079318E+03 -0.30568353825E+03  0.59204756982E+03  0.69924013887E+03  0.00000000000E+00 0.  1.
<mgrwt>
<rscale>  0 0.12123747E+04</rscale>
<asrwt>0</asrwt>
<pdfrwt beam="1">  1        1 0.23147289E-01 0.12123747E+04</pdfrwt>
<pdfrwt beam="2">  1       -1 0.37573951E+00 0.12123747E+04</pdfrwt>
<totfact> 0.22646602E+00</totfact>
</mgrwt>
</event>
<event>
12    3  0.4688899E-008  0.1952645E+04  0.7818608E-02  0.8629086E-01
         -1   -1    0    0    0  501 -0.00000000000E+00  0.00000000000E+00  0.14700009194E+04  0.14700009194E+04  0.00000000000E+00 0.  1.
          1   -1    0    0  501    0  0.00000000000E+00 -0.00000000000E+00 -0.64843900786E+03  0.64843900786E+03  0.00000000000E+00 0. -1.
         23    2    1    2    0    0 -0.27156618953E+03 -0.22821640294E+03  0.10546815869E+04  0.11165743486E+04  0.92488400676E+02 0.  0.
        254    2    1    2    0    0  0.27156618953E+03  0.22821640294E+03 -0.23311967536E+03  0.10018655787E+04  0.90750147817E+03 0.  0.
         23    2    4    4    0    0  0.42180748487E+03 -0.28785789818E+02  0.19205734250E+03  0.47492763172E+03  0.99599480795E+02 0.  0.
         23    2    4    4    0    0 -0.15024129534E+03  0.25700219276E+03 -0.42517701787E+03  0.52693794698E+03  0.90914957720E+02 0.  0.
          1    1    3    3  502    0 -0.17223144963E+03 -0.11345519246E+03  0.72248192992E+03  0.75134272606E+03  0.00000000000E+00 0.  1.
         -1    1    3    3    0  502 -0.99334739900E+02 -0.11476121048E+03  0.33219965697E+03  0.36523162250E+03  0.00000000000E+00 0. -1.
         13    1    5    5    0    0  0.10650213830E+03 -0.49491771737E+02  0.66097633543E+02  0.13476289583E+03  0.00000000000E+00 0. -1.
        -13    1    5    5    0    0  0.31530534657E+03  0.20705981919E+02  0.12595970896E+03  0.34016473589E+03  0.00000000000E+00 0.  1.
          3    1    6    6  503    0 -0.90003957354E+02  0.21748496921E+03 -0.35793781142E+03  0.42839222800E+03  0.00000000000E+00 0. -1.
         -3    1    6    6    0  503 -0.60237337986E+02  0.39517223547E+02 -0.67239206452E+02  0.98545718977E+02  0.00000000000E+00 0.  1.
<mgrwt>
<rscale>  0 0.19526453E+04</rscale>
<asrwt>0</asrwt>
<pdfrwt beam="1">  1        1 0.99759848E-01 0.19526453E+04</pdfrwt>
<pdfrwt beam="2">  1       -1 0.22615399E+00 0.19526453E+04</pdfrwt>
<totfact> 0.28497685E+00</totfact>
</mgrwt>
</event>
<event>
12    3  0.4688899E-008  0.1275130E+04  0.7818608E-02  0.9049523E-01
          2   -1    0    0  501    0  0.00000000000E+00  0.00000000000E+00  0.12838345895E+04  0.12838345895E+04  0.00000000000E+00 0. -1.
         -2   -1    0    0    0  501 -0.00000000000E+00 -0.00000000000E+00 -0.31662126478E+03  0.31662126478E+03  0.00000000000E+00 0.  1.
         23    2    1    2    0    0 -0.11987010790E+03  0.18311237763E+03  0.24323761556E+02  0.24899478446E+03  0.11622293966E+03 0.  0.
        254    2    1    2    0    0  0.11987010790E+03 -0.18311237763E+03  0.94288956321E+03  0.13514610699E+04  0.94313695155E+03 0.  0.
         23    2    4    4    0    0 -0.82386734127E+02 -0.53504193624E+03  0.59134893551E+03  0.80589032693E+03  0.81903650764E+02 0.  0.
         23    2    4    4    0    0  0.20225684202E+03  0.35192955861E+03  0.35154062769E+03  0.54557074295E+03  0.96459205236E+02 0.  0.
          2    1    3    3  502    0 -0.62774731042E+02  0.10475259449E+03  0.71137150274E+02  0.14133034727E+03  0.00000000000E+00 0. -1.
         -2    1    3    3    0  502 -0.57095376854E+02  0.78359783143E+02 -0.46813388719E+02  0.10766443719E+03  0.00000000000E+00 0.  1.
         13    1    5    5    0    0 -0.69916414817E+02 -0.31424608950E+03  0.39994587365E+03  0.51341563248E+03  0.00000000000E+00 0.  1.
        -13    1    5    5    0    0 -0.12470319310E+02 -0.22079584674E+03  0.19140306186E+03  0.29247469444E+03  0.00000000000E+00 0. -1.
          2    1    6    6  503    0  0.17496767310E+03  0.27081725227E+03  0.32027732361E+03  0.45445927736E+03  0.00000000000E+00 0.  1.
         -2    1    6    6    0  503  0.27289168919E+02  0.81112306334E+02  0.31263304081E+02  0.91111465585E+02  0.00000000000E+00 0. -1.
<mgrwt>
<rscale>  0 0.12751303E+04</rscale>
<asrwt>0</asrwt>
<pdfrwt beam="1">  1        2 0.19751301E+00 0.12751303E+04</pdfrwt>
<pdfrwt beam="2">  1       -2 0.48710964E-01 0.12751303E+04</pdfrwt>
<totfact> 0.66186308E+01</totfact>
</mgrwt>
</event>
<event>
12    3  0.4688899E-008  0.1688678E+04  0.7818608E-02  0.8767848E-01
          2   -1    0    0  501    0  0.00000000000E+00  0.00000000000E+00  0.63093176594E+03  0.63093176594E+03  0.00000000000E+00 0. -1.
         -2   -1    0    0    0  501 -0.00000000000E+00 -0.00000000000E+00 -0.11299296761E+04  0.11299296761E+04  0.00000000000E+00 0.  1.
         23    2    1    2    0    0 -0.10550179171E+03  0.39061429236E+03 -0.63082517121E+03  0.75510087874E+03  0.92340603193E+02 0.  0.
        254    2    1    2    0    0  0.10550179171E+03 -0.39061429236E+03  0.13182726101E+03  0.10057605633E+04  0.91129892492E+03 0.  0.
         23    2    4    4    0    0 -0.26800617085E+02 -0.41719474825E+03 -0.31423937412E+03  0.53072970638E+03  0.90321126780E+02 0.  0.
         23    2    4    4    0    0  0.13230240879E+03  0.26580455897E+02  0.44606663512E+03  0.47503085695E+03  0.92024040763E+02 0.  0.
          2    1    3    3  502    0 -0.34838570696E+02  0.30110575540E+02 -0.93135949317E+02  0.10389743896E+03  0.00000000000E+00 0. -1.
         -2    1    3    3    0  502 -0.70663221009E+02  0.36050371682E+03 -0.53768922189E+03  0.65120343978E+03  0.00000000000E+00 0.  1.
         13    1    5    5    0    0  0.17173019122E+02 -0.28933268546E+02 -0.88151531953E+01  0.34781511474E+02  0.00000000000E+00 0. -1.
        -13    1    5    5    0    0 -0.43973636207E+02 -0.38826147971E+03 -0.30542422092E+03  0.49594819491E+03  0.00000000000E+00 0.  1.
          4    1    6    6  503    0 -0.13355926621E+01 -0.14210263797E+02  0.10831499233E+02  0.17917499283E+02  0.00000000000E+00 0. -1.
         -4    1    6    6    0  503  0.13363800145E+03  0.40790719693E+02  0.43523513589E+03  0.45711335767E+03  0.00000000000E+00 0.  1.
<mgrwt>
<rscale>  0 0.16886782E+04</rscale>
<asrwt>0</asrwt>
<pdfrwt beam="1">  1        2 0.97066426E-01 0.16886782E+04</pdfrwt>
<pdfrwt beam="2">  1       -2 0.17383533E+00 0.16886782E+04</pdfrwt>
<totfact> 0.88872693E+00</totfact>
</mgrwt>
</event>
<event>
12    3  0.4688899E-008  0.1907362E+04  0.7818608E-02  0.8651200E-01
          1   -1    0    0  501    0  0.00000000000E+00  0.00000000000E+00  0.96601702680E+03  0.96601702680E+03  0.00000000000E+00 0. -1.
         -1   -1    0    0    0  501 -0.00000000000E+00 -0.00000000000E+00 -0.94150278622E+03  0.94150278622E+03  0.00000000000E+00 0.  1.
         23    2    1    2    0    0  0.61131453770E+03 -0.62299025546E+02 -0.40275214689E+03  0.73938962841E+03  0.83072848704E+02 0.  0.
        254    2    1    2    0    0 -0.61131453770E+03  0.62299025546E+02  0.42726638748E+03  0.11681301846E+04  0.89687509149E+03 0.  0.
         23    2    4    4    0    0 -0.66292478760E+03  0.27454347757E+03  0.54256490605E+03  0.90434348354E+03  0.92828141544E+02 0.  0.
         23    2    4    4    0    0  0.51610249895E+02 -0.21224445202E+03 -0.11529851857E+03  0.26378670106E+03  0.92619382239E+02 0.  0.
          1    1    3    3  502    0  0.47047802702E+02 -0.78888732505E+01 -0.74371972260E+01  0.48280865390E+02  0.00000000000E+00 0. -1.
         -1    1    3    3    0  502  0.56426673500E+03 -0.54410152296E+02 -0.39531494966E+03  0.69110876302E+03  0.00000000000E+00 0.  1.
         13    1    5    5    0    0 -0.41670946547E+02  0.16560165436E+02  0.89931687476E+01  0.45733838124E+02  0.00000000000E+00 0. -1.
        -13    1    5    5    0    0 -0.62125384105E+03  0.25798331213E+03  0.53357173730E+03  0.85860964542E+03  0.00000000000E+00 0.  1.
          2    1    6    6  503    0  0.54202635482E+02 -0.20011157817E+03 -0.73147910825E+02  0.21984809817E+03  0.00000000000E+00 0.  1.
         -2    1    6    6    0  503 -0.25923855866E+01 -0.12132873849E+02 -0.42150607746E+02  0.43938602894E+02  0.00000000000E+00 0. -1.
<mgrwt>
<rscale>  0 0.19073623E+04</rscale>
<asrwt>0</asrwt>
<pdfrwt beam="1">  1        1 0.14861800E+00 0.19073623E+04</pdfrwt>
<pdfrwt beam="2">  1       -1 0.14484658E+00 0.19073623E+04</pdfrwt>
<totfact> 0.57665639E+00</totfact>
</mgrwt>
</event>
<event>
12    3  0.4688899E-008  0.2141374E+04  0.7818608E-02  0.8543234E-01
          2   -1    0    0  501    0  0.00000000000E+00  0.00000000000E+00  0.16509943129E+04  0.16509943129E+04  0.00000000000E+00 0. -1.
         -2   -1    0    0    0  501 -0.00000000000E+00 -0.00000000000E+00 -0.69435186301E+03  0.69435186301E+03  0.00000000000E+00 0.  1.
         23    2    1    2    0    0  0.89391449489E+03 -0.60488930445E+02  0.38368320998E+03  0.97887132195E+03  0.90742627347E+02 0.  0.
        254    2    1    2    0    0 -0.89391449489E+03  0.60488930445E+02  0.57295923995E+03  0.13664748540E+04  0.85803799513E+03 0.  0.
         23    2    4    4    0    0 -0.99542342338E+03  0.17816349214E+03  0.33467714370E+03  0.10691582179E+04  0.92089535658E+02 0.  0.
         23    2    4    4    0    0  0.10150892849E+03 -0.11767456170E+03  0.23828209625E+03  0.29731663613E+03  0.86414464593E+02 0.  0.
          1    1    3    3  502    0  0.82120802402E+03 -0.46555934704E+02  0.37616443925E+03  0.90446103240E+03  0.00000000000E+00 0. -1.
         -1    1    3    3    0  502  0.72706470874E+02 -0.13932995741E+02  0.75187707335E+01  0.74410289548E+02  0.00000000000E+00 0.  1.
         13    1    5    5    0    0 -0.12412876251E+03  0.13550192570E+02  0.11511913800E+02  0.12539569993E+03  0.00000000000E+00 0. -1.
        -13    1    5    5    0    0 -0.87129466087E+03  0.16461329957E+03  0.32316522990E+03  0.94376251794E+03  0.00000000000E+00 0.  1.
          1    1    6    6  503    0 -0.11893934580E+02 -0.18926323487E+02  0.11307881395E+02  0.25050740152E+02  0.00000000000E+00 0. -1.
         -1    1    6    6    0  503  0.11340286307E+03 -0.98748238212E+02  0.22697421485E+03  0.27226589598E+03  0.00000000000E+00 0.  1.
<mgrwt>
<rscale>  0 0.21413743E+04</rscale>
<asrwt>0</asrwt>
<pdfrwt beam="1">  1        2 0.25399912E+00 0.21413743E+04</pdfrwt>
<pdfrwt beam="2">  1       -2 0.10682336E+00 0.21413743E+04</pdfrwt>
<totfact> 0.67651334E+00</totfact>
</mgrwt>
</event>
<event>
12    3  0.4688899E-008  0.1809253E+04  0.7818608E-02  0.8701394E-01
          2   -1    0    0  501    0  0.00000000000E+00  0.00000000000E+00  0.14070530960E+04  0.14070530960E+04  0.00000000000E+00 0. -1.
         -2   -1    0    0    0  501 -0.00000000000E+00 -0.00000000000E+00 -0.58160511244E+03  0.58160511244E+03  0.00000000000E+00 0.  1.
         23    2    1    2    0    0  0.16356079925E+03  0.11106404139E+03  0.10248089508E+04  0.10478434640E+04  0.93033236049E+02 0.  0.
        254    2    1    2    0    0 -0.16356079925E+03 -0.11106404139E+03 -0.19936096727E+03  0.94081474445E+03  0.89794222073E+03 0.  0.
         23    2    4    4    0    0  0.18269729386E+03  0.19910791426E+03 -0.34359846415E+03  0.44560210223E+03  0.86481594808E+02 0.  0.
         23    2    4    4    0    0 -0.34625809310E+03 -0.31017195565E+03  0.14423749688E+03  0.49521264222E+03  0.91267718227E+02 0.  0.
          3    1    3    3  502    0  0.13711487624E+03  0.41941965548E+02  0.62435535142E+03  0.64060847841E+03  0.00000000000E+00 0. -1.
         -3    1    3    3    0  502  0.26445923011E+02  0.69122075841E+02  0.40045359941E+03  0.40723498560E+03  0.00000000000E+00 0.  1.
         13    1    5    5    0    0  0.14089900399E+03  0.19505073648E+03 -0.30568138531E+03  0.38902240096E+03  0.00000000000E+00 0. -1.
        -13    1    5    5    0    0  0.41798289870E+02  0.40571777806E+01 -0.37917078843E+02  0.56579701268E+02  0.00000000000E+00 0.  1.
          4    1    6    6  503    0 -0.33991267507E+03 -0.31129982231E+03  0.15180171662E+03  0.48527514589E+03  0.00000000000E+00 0. -1.
         -4    1    6    6    0  503 -0.63454180295E+01  0.11278666573E+01 -0.75642197326E+01  0.99374963310E+01  0.00000000000E+00 0.  1.
<mgrwt>
<rscale>  0 0.18092532E+04</rscale>
<asrwt>0</asrwt>
<pdfrwt beam="1">  1        2 0.21646971E+00 0.18092532E+04</pdfrwt>
<pdfrwt beam="2">  1       -2 0.89477710E-01 0.18092532E+04</pdfrwt>
<totfact> 0.14487616E+01</totfact>
</mgrwt>
</event>
<event>
12    3  0.4688899E-008  0.1205221E+04  0.7818608E-02  0.9108298E-01
          2   -1    0    0  501    0  0.00000000000E+00  0.00000000000E+00  0.37537065150E+04  0.37537065150E+04  0.00000000000E+00 0.  1.
         -2   -1    0    0    0  501 -0.00000000000E+00 -0.00000000000E+00 -0.96741622281E+02  0.96741622281E+02  0.00000000000E+00 0. -1.
         23    2    1    2    0    0  0.14035492759E+03  0.10854759493E+02  0.10895072901E+03  0.19088165617E+03  0.68907284156E+02 0.  0.
        254    2    1    2    0    0 -0.14035492759E+03 -0.10854759493E+02  0.35480141637E+04  0.36595664811E+04  0.88555349484E+03 0.  0.
         23    2    4    4    0    0  0.36583054015E+03 -0.16118614793E+02  0.13326738061E+04  0.13852241322E+04  0.93459238761E+02 0.  0.
         23    2    4    4    0    0 -0.50618546774E+03  0.52638553005E+01  0.22153403577E+04  0.22743423489E+04  0.92998837134E+02 0.  0.
          4    1    3    3  502    0  0.14656467396E+03  0.11327164623E+02  0.11113316247E+03  0.18428263107E+03  0.00000000000E+00 0. -1.
         -4    1    3    3    0  502 -0.62097463661E+01 -0.47240512998E+00 -0.21824334685E+01  0.65990251085E+01  0.00000000000E+00 0.  1.
         13    1    5    5    0    0  0.21109676481E+02 -0.85269488244E+01  0.19834899211E+03  0.19965132098E+03  0.00000000000E+00 0. -1.
        -13    1    5    5    0    0  0.34472086367E+03 -0.75916659690E+01  0.11343248140E+04  0.11855728113E+04  0.00000000000E+00 0.  1.
          1    1    6    6  503    0 -0.11285930918E+03 -0.16271629482E+02  0.35923118094E+03  0.37689392533E+03  0.00000000000E+00 0. -1.
         -1    1    6    6    0  503 -0.39332615857E+03  0.21535484783E+02  0.18561091767E+04  0.18974484235E+04  0.00000000000E+00 0.  1.
<mgrwt>
<rscale>  0 0.12052214E+04</rscale>
<asrwt>0</asrwt>
<pdfrwt beam="1">  1        2 0.57749320E+00 0.12052214E+04</pdfrwt>
<pdfrwt beam="2">  1       -2 0.14883329E-01 0.12052214E+04</pdfrwt>
<totfact> 0.19298169E+01</totfact>
</mgrwt>
</event>
<event>
12    3  0.4688899E-008  0.3142414E+04  0.7818608E-02  0.8204193E-01
          1   -1    0    0  501    0  0.00000000000E+00  0.00000000000E+00  0.13884441925E+04  0.13884441925E+04  0.00000000000E+00 0. -1.
         -1   -1    0    0    0  501 -0.00000000000E+00 -0.00000000000E+00 -0.17780265878E+04  0.17780265878E+04  0.00000000000E+00 0.  1.
         23    2    1    2    0    0 -0.63135329205E+03 -0.46317527731E+03 -0.13981421382E+04  0.16054063214E+04  0.96900470237E+02 0.  0.
        254    2    1    2    0    0  0.63135329205E+03  0.46317527731E+03  0.10085597430E+04  0.15610644590E+04  0.89810421059E+03 0.  0.
         23    2    4    4    0    0  0.84914581177E+03  0.32811841104E+03  0.83315062670E+03  0.12374696677E+04  0.92091858629E+02 0.  0.
         23    2    4    4    0    0 -0.21779251973E+03  0.13505686627E+03  0.17540911626E+03  0.32359479127E+03  0.90946644203E+02 0.  0.
          3    1    3    3  502    0 -0.28852543540E+03 -0.20267239951E+03 -0.72747596747E+03  0.80842087531E+03  0.00000000000E+00 0. -1.
         -3    1    3    3    0  502 -0.34282785664E+03 -0.26050287780E+03 -0.67066617075E+03  0.79698544605E+03  0.00000000000E+00 0.  1.
         13    1    5    5    0    0  0.39409479868E+03  0.17339729598E+03  0.33768221760E+03  0.54718060336E+03  0.00000000000E+00 0. -1.
        -13    1    5    5    0    0  0.45505101309E+03  0.15472111506E+03  0.49546840910E+03  0.69028906436E+03  0.00000000000E+00 0.  1.
          1    1    6    6  503    0 -0.58699003821E+02  0.12105433929E+02  0.82826847925E+02  0.10223698605E+03  0.00000000000E+00 0. -1.
         -1    1    6    6    0  503 -0.15909351590E+03  0.12295143235E+03  0.92582268335E+02  0.22135780521E+03  0.00000000000E+00 0.  1.
<mgrwt>
<rscale>  0 0.31424135E+04</rscale>
<asrwt>0</asrwt>
<pdfrwt beam="1">  1        1 0.21360680E+00 0.31424135E+04</pdfrwt>
<pdfrwt beam="2">  1       -1 0.27354255E+00 0.31424135E+04</pdfrwt>
<totfact> 0.32252609E-01</totfact>
</mgrwt>
</event>
<event>
12    3  0.4688899E-008  0.1790311E+04  0.7818608E-02  0.8711469E-01
          2   -1    0    0  501    0  0.00000000000E+00  0.00000000000E+00  0.23351419146E+04  0.23351419146E+04  0.00000000000E+00 0. -1.
         -2   -1    0    0    0  501 -0.00000000000E+00 -0.00000000000E+00 -0.34314963628E+03  0.34314963628E+03  0.00000000000E+00 0.  1.
         23    2    1    2    0    0  0.45282865931E+03 -0.48626022344E+03  0.63381290980E+03  0.92284946895E+03  0.91812516091E+02 0.  0.
        254    2    1    2    0    0 -0.45282865931E+03  0.48626022344E+03  0.13581793685E+04  0.17554420819E+04  0.89186484758E+03 0.  0.
         23    2    4    4    0    0 -0.24890620818E+03  0.63578829048E+03  0.48542138275E+03  0.84280466102E+03  0.92221076875E+02 0.  0.
         23    2    4    4    0    0 -0.20392245113E+03 -0.14952806705E+03  0.87275798572E+03  0.91263742087E+03  0.85191263789E+02 0.  0.
          1    1    3    3  502    0  0.11401117675E+03 -0.11571611242E+03  0.10383284781E+03  0.19279529917E+03  0.00000000000E+00 0. -1.
         -1    1    3    3    0  502  0.33881748256E+03 -0.37054411102E+03  0.52998006199E+03  0.73005416978E+03  0.00000000000E+00 0.  1.
         13    1    5    5    0    0 -0.14482995296E+03  0.46097864666E+03  0.30925573367E+03  0.57368644464E+03  0.00000000000E+00 0.  1.
        -13    1    5    5    0    0 -0.10407625522E+03  0.17480964382E+03  0.17616564907E+03  0.26911821638E+03  0.00000000000E+00 0. -1.
          4    1    6    6  503    0 -0.55961485300E+02 -0.50414859350E+02  0.40865234579E+03  0.41553590169E+03  0.00000000000E+00 0. -1.
         -4    1    6    6    0  503 -0.14796096583E+03 -0.99113207696E+02  0.46410563994E+03  0.49710151918E+03  0.00000000000E+00 0.  1.
<mgrwt>
<rscale>  0 0.17903107E+04</rscale>
<asrwt>0</asrwt>
<pdfrwt beam="1">  1        2 0.35925259E+00 0.17903107E+04</pdfrwt>
<pdfrwt beam="2">  1       -2 0.52792253E-01 0.17903107E+04</pdfrwt>
<totfact> 0.13854403E+01</totfact>
</mgrwt>
</event>
<event>
12    3  0.4688899E-008  0.2042710E+04  0.7818608E-02  0.8586909E-01
         -2   -1    0    0    0  501 -0.00000000000E+00  0.00000000000E+00  0.29844653046E+03  0.29844653046E+03  0.00000000000E+00 0.  1.
          2   -1    0    0  501    0  0.00000000000E+00 -0.00000000000E+00 -0.34953192630E+04  0.34953192630E+04  0.00000000000E+00 0. -1.
         23    2    1    2    0    0  0.50958475070E+03 -0.54494829501E+02 -0.10296934796E+03  0.52925249776E+03  0.82820378979E+02 0.  0.
        254    2    1    2    0    0 -0.50958475070E+03  0.54494829501E+02 -0.30939033846E+04  0.32645132957E+04  0.90673182374E+03 0.  0.
         23    2    4    4    0    0 -0.20197817823E+03  0.45916763579E+03 -0.18202532646E+04  0.18902741516E+04  0.90467222806E+02 0.  0.
         23    2    4    4    0    0 -0.30760657247E+03 -0.40467280629E+03 -0.12736501199E+04  0.13742391441E+04  0.89256449084E+02 0.  0.
          4    1    3    3  502    0  0.29541086171E+02 -0.23980821163E+02 -0.99429056288E+01  0.39327050845E+02  0.00000000000E+00 0. -1.
         -4    1    3    3    0  502  0.48004366453E+03 -0.30514008338E+02 -0.93026442334E+02  0.48992544691E+03  0.00000000000E+00 0.  1.
         13    1    5    5    0    0 -0.70373300716E+01  0.43474746350E+02 -0.26611591356E+03  0.26973553165E+03  0.00000000000E+00 0. -1.
        -13    1    5    5    0    0 -0.19494084816E+03  0.41569288944E+03 -0.15541373511E+04  0.16205386199E+04  0.00000000000E+00 0.  1.
          2    1    6    6  503    0 -0.19274029819E+02 -0.38558610321E+00 -0.40178789522E+02  0.44564246090E+02  0.00000000000E+00 0. -1.
         -2    1    6    6    0  503 -0.28833254265E+03 -0.40428722019E+03 -0.12334713304E+04  0.13296748980E+04  0.00000000000E+00 0.  1.
<mgrwt>
<rscale>  0 0.20427099E+04</rscale>
<asrwt>0</asrwt>
<pdfrwt beam="1">  1        2 0.53774141E+00 0.20427099E+04</pdfrwt>
<pdfrwt beam="2">  1       -2 0.45914852E-01 0.20427099E+04</pdfrwt>
<totfact> 0.34286674E+00</totfact>
</mgrwt>
</event>
<event>
12    3  0.4688899E-008  0.1345202E+04  0.7818608E-02  0.8994468E-01
          2   -1    0    0  501    0  0.00000000000E+00  0.00000000000E+00  0.33370819371E+03  0.33370819371E+03  0.00000000000E+00 0. -1.
         -2   -1    0    0    0  501 -0.00000000000E+00 -0.00000000000E+00 -0.13556521366E+04  0.13556521366E+04  0.00000000000E+00 0.  1.
         23    2    1    2    0    0 -0.46268661914E+02  0.18446086924E+03 -0.13308539937E+02  0.21152046960E+03  0.91636185354E+02 0.  0.
        254    2    1    2    0    0  0.46268661914E+02 -0.18446086924E+03 -0.10086354029E+04  0.14778398607E+04  0.10632491130E+04 0.  0.
         23    2    4    4    0    0  0.25036351675E+03 -0.56549098494E+03 -0.68736999147E+03  0.93009907912E+03  0.10072163244E+03 0.  0.
         23    2    4    4    0    0 -0.20409485483E+03  0.38103011569E+03 -0.32126541144E+03  0.54774078154E+03  0.99849087837E+02 0.  0.
          3    1    3    3  502    0 -0.14520734543E+02  0.16313361607E+03  0.14223629828E+02  0.16439507313E+03  0.00000000000E+00 0. -1.
         -3    1    3    3    0  502 -0.31747927371E+02  0.21327253172E+02 -0.27532169765E+02  0.47125396467E+02  0.00000000000E+00 0.  1.
         13    1    5    5    0    0  0.14035664786E+03 -0.24988331857E+03 -0.25512670386E+03  0.38370730579E+03  0.00000000000E+00 0.  1.
        -13    1    5    5    0    0  0.11000686888E+03 -0.31560766637E+03 -0.43224328761E+03  0.54639177332E+03  0.00000000000E+00 0. -1.
          3    1    6    6  503    0  0.70235513874E+01  0.52898806935E+02 -0.42231277648E+02  0.68052148100E+02  0.00000000000E+00 0. -1.
         -3    1    6    6    0  503 -0.21111840622E+03  0.32813130876E+03 -0.27903413379E+03  0.47968863344E+03  0.00000000000E+00 0.  1.
<mgrwt>
<rscale>  0 0.13452022E+04</rscale>
<asrwt>0</asrwt>
<pdfrwt beam="1">  1        2 0.51339722E-01 0.13452022E+04</pdfrwt>
<pdfrwt beam="2">  1       -2 0.20856187E+00 0.13452022E+04</pdfrwt>
<totfact> 0.11134221E+01</totfact>
</mgrwt>
</event>
<event>
12    3  0.4688899E-008  0.1095795E+04  0.7818608E-02  0.9209300E-01
          1   -1    0    0  501    0  0.00000000000E+00  0.00000000000E+00  0.22413815610E+03  0.22413815610E+03  0.00000000000E+00 0. -1.
         -1   -1    0    0    0  501 -0.00000000000E+00 -0.00000000000E+00 -0.13393144732E+04  0.13393144732E+04  0.00000000000E+00 0.  1.
         23    2    1    2    0    0 -0.12670139830E+03 -0.87415501546E+02 -0.21686086100E+03  0.28057477056E+03  0.89436315883E+02 0.  0.
        254    2    1    2    0    0  0.12670139830E+03  0.87415501546E+02 -0.89831545607E+03  0.12828778587E+04  0.90283455157E+03 0.  0.
         23    2    4    4    0    0  0.32171700565E+01 -0.31874046010E+02  0.17045084194E+03  0.19643086834E+03  0.92224137441E+02 0.  0.
         23    2    4    4    0    0  0.12348422824E+03  0.11928954756E+03 -0.10687662980E+04  0.10864469904E+04  0.92883326431E+02 0.  0.
          1    1    3    3  502    0 -0.62005094865E+02 -0.42802105920E+02 -0.17718738828E+03  0.19254096350E+03  0.00000000000E+00 0.  1.
         -1    1    3    3    0  502 -0.64696303436E+02 -0.44613395626E+02 -0.39673472721E+02  0.88033807059E+02  0.00000000000E+00 0. -1.
         13    1    5    5    0    0 -0.17314765282E+02  0.15700191023E+02  0.61721558349E+01  0.24174213588E+02  0.00000000000E+00 0.  1.
        -13    1    5    5    0    0  0.20531935339E+02 -0.47574237033E+02  0.16427868611E+03  0.17225665476E+03  0.00000000000E+00 0. -1.
          2    1    6    6  503    0  0.13833008516E+03  0.11458162554E+03 -0.98046810779E+03  0.99678577025E+03  0.00000000000E+00 0. -1.
         -2    1    6    6    0  503 -0.14845856911E+02  0.47079220153E+01 -0.88298190223E+02  0.89661220122E+02  0.00000000000E+00 0.  1.
<mgrwt>
<rscale>  0 0.10957946E+04</rscale>
<asrwt>0</asrwt>
<pdfrwt beam="1">  1        1 0.34482793E-01 0.10957946E+04</pdfrwt>
<pdfrwt beam="2">  1       -1 0.20604838E+00 0.10957946E+04</pdfrwt>
<totfact> 0.17500570E+01</totfact>
</mgrwt>
</event>
<event>
12    3  0.4688899E-008  0.1192614E+04  0.7818608E-02  0.9119346E-01
          1   -1    0    0  501    0  0.00000000000E+00  0.00000000000E+00  0.12241052629E+04  0.12241052629E+04  0.00000000000E+00 0. -1.
         -1   -1    0    0    0  501 -0.00000000000E+00 -0.00000000000E+00 -0.29048319075E+03  0.29048319075E+03  0.00000000000E+00 0.  1.
         23    2    1    2    0    0 -0.27569120181E+02 -0.44374694149E+02 -0.98775214142E+02  0.15612812330E+03  0.10904255173E+03 0.  0.
        254    2    1    2    0    0  0.27569120181E+02  0.44374694149E+02  0.10323972863E+04  0.13584603303E+04  0.88138592144E+03 0.  0.
         23    2    4    4    0    0 -0.28629874605E+03  0.54303923262E+02  0.33603033585E+02  0.30758201714E+03  0.92529159353E+02 0.  0.
         23    2    4    4    0    0  0.31386786623E+03 -0.99292291124E+01  0.99879425271E+03  0.10508783132E+04  0.90242134713E+02 0.  0.
          3    1    3    3  502    0 -0.34202729843E+02 -0.41258869013E+02  0.33910263830E+01  0.53699348794E+02  0.00000000000E+00 0. -1.
         -3    1    3    3    0  502  0.66336096622E+01 -0.31158251367E+01 -0.10216624052E+03  0.10242877450E+03  0.00000000000E+00 0.  1.
         13    1    5    5    0    0 -0.47524947535E+02  0.34175040277E+02 -0.20330181240E+02  0.61966686901E+02  0.00000000000E+00 0.  1.
        -13    1    5    5    0    0 -0.23877379851E+03  0.20128882984E+02  0.53933214825E+02  0.24561533024E+03  0.00000000000E+00 0. -1.
          2    1    6    6  503    0  0.27846230365E+03 -0.38468074073E+02  0.84828085307E+03  0.89364503745E+03  0.00000000000E+00 0. -1.
         -2    1    6    6    0  503  0.35405562584E+02  0.28538844961E+02  0.15051339964E+03  0.15723327575E+03  0.00000000000E+00 0.  1.
<mgrwt>
<rscale>  0 0.11926139E+04</rscale>
<asrwt>0</asrwt>
<pdfrwt beam="1">  1        1 0.18832388E+00 0.11926139E+04</pdfrwt>
<pdfrwt beam="2">  1       -1 0.44689722E-01 0.11926139E+04</pdfrwt>
<totfact> 0.50390072E+01</totfact>
</mgrwt>
</event>
<event>
12    3  0.4688899E-008  0.1332671E+04  0.7818608E-02  0.9004050E-01
          2   -1    0    0  501    0  0.00000000000E+00  0.00000000000E+00  0.59586459417E+03  0.59586459417E+03  0.00000000000E+00 0. -1.
         -2   -1    0    0    0  501 -0.00000000000E+00 -0.00000000000E+00 -0.74514092359E+03  0.74514092359E+03  0.00000000000E+00 0.  1.
         23    2    1    2    0    0 -0.10556375279E+03 -0.11611612925E+03 -0.36377103168E+03  0.40648007302E+03  0.90939677251E+02 0.  0.
        254    2    1    2    0    0  0.10556375279E+03  0.11611612925E+03  0.21449470226E+03  0.93452544474E+03  0.89593703361E+03 0.  0.
         23    2    4    4    0    0 -0.16743247886E+03  0.38013825386E+03  0.31409148034E+03  0.52930196533E+03  0.94701559942E+02 0.  0.
         23    2    4    4    0    0  0.27299623165E+03 -0.26402212462E+03 -0.99596778079E+02  0.40522347941E+03  0.10025929026E+03 0.  0.
          4    1    3    3  502    0  0.15628229099E+02 -0.19110632290E+02 -0.69845596496E+02  0.74080126627E+02  0.00000000000E+00 0. -1.
         -4    1    3    3    0  502 -0.12119198189E+03 -0.97005496955E+02 -0.29392543519E+03  0.33239994639E+03  0.00000000000E+00 0.  1.
         13    1    5    5    0    0 -0.11752391021E+03  0.31784097559E+03  0.28972464950E+03  0.44584204351E+03  0.00000000000E+00 0.  1.
        -13    1    5    5    0    0 -0.49908568651E+02  0.62297278268E+02  0.24366830837E+02  0.83459921816E+02  0.00000000000E+00 0. -1.
          3    1    6    6  503    0  0.20006419410E+00 -0.82045683662E+01  0.12368265840E+02  0.14843482329E+02  0.00000000000E+00 0. -1.
         -3    1    6    6    0  503  0.27279616745E+03 -0.25581755625E+03 -0.11196504392E+03  0.39037999708E+03  0.00000000000E+00 0.  1.
<mgrwt>
<rscale>  0 0.13326711E+04</rscale>
<asrwt>0</asrwt>
<pdfrwt beam="1">  1        2 0.91671476E-01 0.13326711E+04</pdfrwt>
<pdfrwt beam="2">  1       -2 0.11463706E+00 0.13326711E+04</pdfrwt>
<totfact> 0.29061587E+01</totfact>
</mgrwt>
</event>
<event>
12    3  0.4688899E-008  0.1429230E+04  0.7818608E-02  0.8932928E-01
          2   -1    0    0  501    0  0.00000000000E+00  0.00000000000E+00  0.39553676358E+03  0.39553676358E+03  0.00000000000E+00 0. -1.
         -2   -1    0    0    0  501 -0.00000000000E+00 -0.00000000000E+00 -0.12910920192E+04  0.12910920192E+04  0.00000000000E+00 0.  1.
         23    2    1    2    0    0 -0.32185620159E+03 -0.24466381351E+03 -0.14686743710E+03  0.43996471393E+03  0.92450577494E+02 0.  0.
        254    2    1    2    0    0  0.32185620159E+03  0.24466381351E+03 -0.74868781855E+03  0.12466640689E+04  0.91114546304E+03 0.  0.
         23    2    4    4    0    0  0.31912115101E+03  0.42731358445E+03 -0.85614800458E+03  0.10129638118E+04  0.93118578767E+02 0.  0.
         23    2    4    4    0    0  0.27350505888E+01 -0.18264977094E+03  0.10746018604E+03  0.23370025710E+03  0.98487051228E+02 0.  0.
          3    1    3    3  502    0  0.15621331301E+01  0.55767168021E+01 -0.24313818120E+01  0.62810546664E+01  0.00000000000E+00 0. -1.
         -3    1    3    3    0  502 -0.32341833472E+03 -0.25024053031E+03 -0.14443605528E+03  0.43368365927E+03  0.00000000000E+00 0.  1.
         13    1    5    5    0    0  0.24620582717E+03  0.36417960078E+03 -0.64178878356E+03  0.77790547862E+03  0.00000000000E+00 0.  1.
        -13    1    5    5    0    0  0.72915323831E+02  0.63133983676E+02 -0.21435922102E+03  0.23505833315E+03  0.00000000000E+00 0. -1.
          2    1    6    6  503    0 -0.28414886200E+02 -0.17451611567E+02 -0.14796092200E+01  0.33378941677E+02  0.00000000000E+00 0. -1.
         -2    1    6    6    0  503  0.31149936789E+02 -0.16519815937E+03  0.10893979526E+03  0.20032131542E+03  0.00000000000E+00 0.  1.
<mgrwt>
<rscale>  0 0.14292297E+04</rscale>
<asrwt>0</asrwt>
<pdfrwt beam="1">  1        2 0.60851809E-01 0.14292297E+04</pdfrwt>
<pdfrwt beam="2">  1       -2 0.19862954E+00 0.14292297E+04</pdfrwt>
<totfact> 0.10610663E+01</totfact>
</mgrwt>
</event>
<event>
12    3  0.4688899E-008  0.2563302E+04  0.7818608E-02  0.8380775E-01
          1   -1    0    0  501    0  0.00000000000E+00  0.00000000000E+00  0.21518443694E+04  0.21518443694E+04  0.00000000000E+00 0. -1.
         -1   -1    0    0    0  501 -0.00000000000E+00 -0.00000000000E+00 -0.76335855431E+03  0.76335855431E+03  0.00000000000E+00 0.  1.
         23    2    1    2    0    0 -0.53765659357E+03 -0.74748414395E+03  0.13303454201E+04  0.16204845861E+04  0.91346586707E+02 0.  0.
        254    2    1    2    0    0  0.53765659357E+03  0.74748414395E+03  0.58140394960E+02  0.12947183376E+04  0.90835461693E+03 0.  0.
         23    2    4    4    0    0  0.10029039905E+03  0.68628851165E+03 -0.25554105403E+03  0.74490093702E+03  0.92336830764E+02 0.  0.
         23    2    4    4    0    0  0.43736619452E+03  0.61195632303E+02  0.31368144899E+03  0.54981740057E+03  0.94175522308E+02 0.  0.
          1    1    3    3  502    0 -0.45234330591E+03 -0.66833221531E+03  0.11950787374E+04  0.14420456320E+04  0.00000000000E+00 0. -1.
         -1    1    3    3    0  502 -0.85313287661E+02 -0.79151928636E+02  0.13526668273E+03  0.17843895403E+03  0.00000000000E+00 0.  1.
         13    1    5    5    0    0 -0.11481785303E+00  0.18030010297E+02 -0.25152655189E+02  0.30947544612E+02  0.00000000000E+00 0.  1.
        -13    1    5    5    0    0  0.10040521690E+03  0.66825850135E+03 -0.23038839885E+03  0.71395339241E+03  0.00000000000E+00 0. -1.
          4    1    6    6  503    0  0.17872142389E+03  0.24961861739E+02  0.18583335147E+03  0.25903373607E+03  0.00000000000E+00 0. -1.
         -4    1    6    6    0  503  0.25864477063E+03  0.36233770565E+02  0.12784809752E+03  0.29078366450E+03  0.00000000000E+00 0.  1.
<mgrwt>
<rscale>  0 0.25633016E+04</rscale>
<asrwt>0</asrwt>
<pdfrwt beam="1">  1        1 0.33105298E+00 0.25633016E+04</pdfrwt>
<pdfrwt beam="2">  1       -1 0.11743978E+00 0.25633016E+04</pdfrwt>
<totfact> 0.13542817E+00</totfact>
</mgrwt>
</event>
<event>
12    3  0.4688899E-008  0.1542851E+04  0.7818608E-02  0.8856447E-01
          1   -1    0    0  501    0  0.00000000000E+00  0.00000000000E+00  0.22130834983E+04  0.22130834983E+04  0.00000000000E+00 0. -1.
         -1   -1    0    0    0  501 -0.00000000000E+00 -0.00000000000E+00 -0.26889945493E+03  0.26889945493E+03  0.00000000000E+00 0.  1.
         23    2    1    2    0    0  0.11199613672E+02 -0.33657847492E+03  0.41123893672E+02  0.35070068878E+03  0.88821716691E+02 0.  0.
        254    2    1    2    0    0 -0.11199613672E+02  0.33657847492E+03  0.19030601497E+04  0.21312822644E+04  0.89850746030E+03 0.  0.
         23    2    4    4    0    0 -0.16119254823E+03  0.58049754181E+03  0.92100032301E+03  0.11041367417E+04  0.88971432361E+02 0.  0.
         23    2    4    4    0    0  0.14999293456E+03 -0.24391906689E+03  0.98205982667E+03  0.10271455227E+04  0.92693203881E+02 0.  0.
          4    1    3    3  502    0  0.20910264016E+02 -0.16731318580E+03  0.62477556829E+02  0.17981764761E+03  0.00000000000E+00 0. -1.
         -4    1    3    3    0  502 -0.97106503439E+01 -0.16926528912E+03 -0.21353663157E+02  0.17088304118E+03  0.00000000000E+00 0.  1.
         13    1    5    5    0    0 -0.14401829699E+03  0.56812233123E+03  0.87090183058E+03  0.10497496138E+04  0.00000000000E+00 0.  1.
        -13    1    5    5    0    0 -0.17174251234E+02  0.12375210581E+02  0.50098492427E+02  0.54387127942E+02  0.00000000000E+00 0. -1.
          2    1    6    6  503    0  0.40885836151E+02 -0.98218964326E+01  0.11552829936E+03  0.12294270699E+03  0.00000000000E+00 0. -1.
         -2    1    6    6    0  503  0.10910709841E+03 -0.23409717046E+03  0.86653152731E+03  0.90420281572E+03  0.00000000000E+00 0.  1.
<mgrwt>
<rscale>  0 0.15428505E+04</rscale>
<asrwt>0</asrwt>
<pdfrwt beam="1">  1        1 0.34047437E+00 0.15428505E+04</pdfrwt>
<pdfrwt beam="2">  1       -1 0.41369148E-01 0.15428505E+04</pdfrwt>
<totfact> 0.11792862E+01</totfact>
</mgrwt>
</event>
<event>
12    3  0.4688899E-008  0.2829715E+04  0.7818608E-02  0.8294102E-01
          1   -1    0    0  501    0  0.00000000000E+00  0.00000000000E+00  0.31254855080E+04  0.31254855080E+04  0.00000000000E+00 0. -1.
         -1   -1    0    0    0  501 -0.00000000000E+00 -0.00000000000E+00 -0.64048348132E+03  0.64048348132E+03  0.00000000000E+00 0.  1.
         23    2    1    2    0    0  0.59773733343E+03 -0.60194882340E+03 -0.13986455717E+03  0.86513808576E+03  0.96278280556E+02 0.  0.
        254    2    1    2    0    0 -0.59773733343E+03  0.60194882340E+03  0.26248665839E+04  0.29008309036E+04  0.89736449805E+03 0.  0.
         23    2    4    4    0    0 -0.45866157294E+03  0.78989272100E+03  0.23888360292E+04  0.25590845488E+04  0.89862139209E+02 0.  0.
         23    2    4    4    0    0 -0.13907576049E+03 -0.18794389760E+03  0.23603055466E+03  0.34174635483E+03  0.80094772024E+02 0.  0.
          3    1    3    3  502    0  0.11674980887E+03 -0.15933137392E+03 -0.42800821229E+01  0.19757359057E+03  0.00000000000E+00 0. -1.
         -3    1    3    3    0  502  0.48098752456E+03 -0.44261744948E+03 -0.13558447504E+03  0.66756449519E+03  0.00000000000E+00 0.  1.
         13    1    5    5    0    0 -0.13075671824E+03  0.19458314157E+03  0.51659039570E+03  0.56729670832E+03  0.00000000000E+00 0.  1.
        -13    1    5    5    0    0 -0.32790485470E+03  0.59530957943E+03  0.18722456335E+04  0.19917878405E+04  0.00000000000E+00 0. -1.
          1    1    6    6  503    0 -0.14047545804E+03 -0.15688984524E+03  0.17726167899E+03  0.27526256682E+03  0.00000000000E+00 0. -1.
         -1    1    6    6    0  503  0.13996975519E+01 -0.31054052361E+02  0.58768875670E+02  0.66483788015E+02  0.00000000000E+00 0.  1.
<mgrwt>
<rscale>  0 0.28297151E+04</rscale>
<asrwt>0</asrwt>
<pdfrwt beam="1">  1        1 0.48084391E+00 0.28297151E+04</pdfrwt>
<pdfrwt beam="2">  1       -1 0.98535922E-01 0.28297151E+04</pdfrwt>
<totfact> 0.41104936E-01</totfact>
</mgrwt>
</event>
<event>
12    3  0.4688899E-008  0.2175097E+04  0.7818608E-02  0.8528865E-01
         -2   -1    0    0    0  501 -0.00000000000E+00  0.00000000000E+00  0.44305210250E+03  0.44305210250E+03  0.00000000000E+00 0.  1.
          2   -1    0    0  501    0  0.00000000000E+00 -0.00000000000E+00 -0.26695781163E+04  0.26695781163E+04  0.00000000000E+00 0. -1.
         23    2    1    2    0    0 -0.49802716371E+03 -0.51068500708E+02 -0.19883245272E+04  0.20524428242E+04  0.91913403167E+02 0.  0.
        254    2    1    2    0    0  0.49802716371E+03  0.51068500708E+02 -0.23820148662E+03  0.10601873946E+04  0.90366936203E+03 0.  0.
         23    2    4    4    0    0  0.27626866194E+01 -0.15850015938E+03 -0.44133870271E+03  0.47829893213E+03  0.94128024565E+02 0.  0.
         23    2    4    4    0    0  0.49526447710E+03  0.20956866008E+03  0.20313721609E+03  0.58188846247E+03  0.90130619819E+02 0.  0.
          3    1    3    3  502    0 -0.35454378234E+03 -0.45431764519E+02 -0.12411567089E+04  0.12916018407E+04  0.00000000000E+00 0. -1.
         -3    1    3    3    0  502 -0.14348338137E+03 -0.56367361890E+01 -0.74716781823E+03  0.76084098346E+03  0.00000000000E+00 0.  1.
         13    1    5    5    0    0 -0.28826534115E+02 -0.98998982251E+01 -0.50667579493E+02  0.59128509754E+02  0.00000000000E+00 0. -1.
        -13    1    5    5    0    0  0.31589220735E+02 -0.14860026115E+03 -0.39067112322E+03  0.41917042238E+03  0.00000000000E+00 0.  1.
          4    1    6    6  503    0  0.48539191544E+03  0.21810038420E+03  0.19661711140E+03  0.56730184000E+03  0.00000000000E+00 0.  1.
         -4    1    6    6    0  503  0.98725616504E+01 -0.85317241162E+01  0.65201046876E+01  0.14586622470E+02  0.00000000000E+00 0. -1.
<mgrwt>
<rscale>  0 0.21750974E+04</rscale>
<asrwt>0</asrwt>
<pdfrwt beam="1">  1        2 0.41070432E+00 0.21750974E+04</pdfrwt>
<pdfrwt beam="2">  1       -2 0.68161863E-01 0.21750974E+04</pdfrwt>
<totfact> 0.49974398E+00</totfact>
</mgrwt>
</event>
<event>
12    3  0.4688899E-008  0.1571121E+04  0.7818608E-02  0.8838488E-01
          2   -1    0    0  501    0  0.00000000000E+00  0.00000000000E+00  0.12038954783E+04  0.12038954783E+04  0.00000000000E+00 0. -1.
         -2   -1    0    0    0  501 -0.00000000000E+00 -0.00000000000E+00 -0.51259062419E+03  0.51259062419E+03  0.00000000000E+00 0.  1.
         23    2    1    2    0    0 -0.30281544443E+03 -0.14509860794E+03  0.66799901274E+03  0.75308453572E+03  0.90348422813E+02 0.  0.
        254    2    1    2    0    0  0.30281544443E+03  0.14509860794E+03  0.23305841374E+02  0.96340156678E+03  0.90268965721E+03 0.  0.
         23    2    4    4    0    0 -0.93321917096E+02  0.43756048473E+03  0.62374877240E+02  0.46109898289E+03  0.92485072847E+02 0.  0.
         23    2    4    4    0    0  0.39613736152E+03 -0.29246187679E+03 -0.39069035865E+02  0.50230258390E+03  0.91229039524E+02 0.  0.
          1    1    3    3  502    0 -0.23139980315E+03 -0.15021598622E+03  0.54153757399E+03  0.60776118291E+03  0.00000000000E+00 0. -1.
         -1    1    3    3    0  502 -0.71415641279E+02  0.51173782762E+01  0.12646143875E+03  0.14532335281E+03  0.00000000000E+00 0.  1.
         13    1    5    5    0    0  0.11495054695E+02  0.64735687553E+01  0.10590754533E+01  0.13234992092E+02  0.00000000000E+00 0.  1.
        -13    1    5    5    0    0 -0.10481697179E+03  0.43108691598E+03  0.61315801786E+02  0.44786399080E+03  0.00000000000E+00 0. -1.
          4    1    6    6  503    0  0.42538507117E+02 -0.45417160479E+01  0.92095375920E+01  0.43760339979E+02  0.00000000000E+00 0.  1.
         -4    1    6    6    0  503  0.35359885441E+03 -0.28792016074E+03 -0.48278573457E+02  0.45854224392E+03  0.00000000000E+00 0. -1.
<mgrwt>
<rscale>  0 0.15711213E+04</rscale>
<asrwt>0</asrwt>
<pdfrwt beam="1">  1        2 0.18521469E+00 0.15711213E+04</pdfrwt>
<pdfrwt beam="2">  1       -2 0.78860096E-01 0.15711213E+04</pdfrwt>
<totfact> 0.25850861E+01</totfact>
</mgrwt>
</event>
<event>
12    3  0.4688899E-008  0.2089047E+04  0.7818608E-02  0.8566084E-01
          2   -1    0    0  501    0  0.00000000000E+00  0.00000000000E+00  0.45154655624E+04  0.45154655624E+04  0.00000000000E+00 0. -1.
         -2   -1    0    0    0  501 -0.00000000000E+00 -0.00000000000E+00 -0.24162048247E+03  0.24162048247E+03  0.00000000000E+00 0.  1.
         23    2    1    2    0    0  0.33347895689E+03 -0.11457096230E+03 -0.13817763834E+02  0.36276915926E+03  0.84117847249E+02 0.  0.
        254    2    1    2    0    0 -0.33347895689E+03  0.11457096230E+03  0.42876628438E+04  0.43943168856E+04  0.89533988473E+03 0.  0.
         23    2    4    4    0    0 -0.46736059324E+03  0.49149910281E+02  0.10756415132E+04  0.11773882628E+04  0.91634155892E+02 0.  0.
         23    2    4    4    0    0  0.13388163635E+03  0.65421052015E+02  0.32120213306E+04  0.32169286229E+04  0.96667109132E+02 0.  0.
          3    1    3    3  502    0  0.14005052799E+03 -0.82492591077E+01  0.10632384094E+02  0.14069558720E+03  0.00000000000E+00 0. -1.
         -3    1    3    3    0  502  0.19342842890E+03 -0.10632170319E+03 -0.24450147928E+02  0.22207357206E+03  0.00000000000E+00 0.  1.
         13    1    5    5    0    0 -0.30418764663E+03 -0.49247640558E+01  0.74520786626E+03  0.80491561148E+03  0.00000000000E+00 0. -1.
        -13    1    5    5    0    0 -0.16317294660E+03  0.54074674337E+02  0.33043364696E+03  0.37247265128E+03  0.00000000000E+00 0.  1.
          4    1    6    6  503    0  0.60464485430E+02  0.45501647450E+02  0.24389222799E+04  0.24400959492E+04  0.00000000000E+00 0.  1.
         -4    1    6    6    0  503  0.73417150920E+02  0.19919404565E+02  0.77309905069E+03  0.77683267369E+03  0.00000000000E+00 0. -1.
<mgrwt>
<rscale>  0 0.20890466E+04</rscale>
<asrwt>0</asrwt>
<pdfrwt beam="1">  1        2 0.69468695E+00 0.20890466E+04</pdfrwt>
<pdfrwt beam="2">  1       -2 0.37172385E-01 0.20890466E+04</pdfrwt>
<totfact> 0.75875806E-01</totfact>
</mgrwt>
</event>
<event>
12    3  0.4688899E-008  0.1697111E+04  0.7818608E-02  0.8763014E-01
          2   -1    0    0  501    0  0.00000000000E+00  0.00000000000E+00  0.16396449627E+04  0.16396449627E+04  0.00000000000E+00 0.  1.
         -2   -1    0    0    0  501 -0.00000000000E+00 -0.00000000000E+00 -0.43914778669E+03  0.43914778669E+03  0.00000000000E+00 0. -1.
         23    2    1    2    0    0 -0.41220069385E+03  0.29205393388E+03  0.84940250014E+03  0.99214851815E+03  0.87573754773E+02 0.  0.
        254    2    1    2    0    0  0.41220069385E+03 -0.29205393388E+03  0.35109467590E+03  0.10866442313E+04  0.89572501450E+03 0.  0.
         23    2    4    4    0    0  0.20780062445E+02 -0.33487307859E+03  0.53865547721E+03  0.64130732198E+03  0.92485503386E+02 0.  0.
         23    2    4    4    0    0  0.39142063140E+03  0.42819144714E+02 -0.18756080131E+03  0.44533690929E+03  0.90012880991E+02 0.  0.
          1    1    3    3  502    0 -0.17094236282E+02  0.30967910600E+02  0.95527638956E+02  0.10186635463E+03  0.00000000000E+00 0. -1.
         -1    1    3    3    0  502 -0.39510645757E+03  0.26108602328E+03  0.75387486118E+03  0.89028216352E+03  0.00000000000E+00 0.  1.
         13    1    5    5    0    0  0.58938965958E+01 -0.33288038653E+03  0.51807615236E+03  0.61583032516E+03  0.00000000000E+00 0. -1.
        -13    1    5    5    0    0  0.14886165849E+02 -0.19926920653E+01  0.20579324858E+02  0.25476996820E+02  0.00000000000E+00 0.  1.
          2    1    6    6  503    0  0.76492104912E+02 -0.16024921871E+02 -0.92995314447E+01  0.78704012095E+02  0.00000000000E+00 0.  1.
         -2    1    6    6    0  503  0.31492852649E+03  0.58844066585E+02 -0.17826126986E+03  0.36663289719E+03  0.00000000000E+00 0. -1.
<mgrwt>
<rscale>  0 0.16971110E+04</rscale>
<asrwt>0</asrwt>
<pdfrwt beam="1">  1        2 0.25225307E+00 0.16971110E+04</pdfrwt>
<pdfrwt beam="2">  1       -2 0.67561199E-01 0.16971110E+04</pdfrwt>
<totfact> 0.20252286E+01</totfact>
</mgrwt>
</event>
<event>
12    3  0.4688899E-008  0.1133828E+04  0.7818608E-02  0.9172834E-01
          2   -1    0    0  501    0  0.00000000000E+00  0.00000000000E+00  0.93841006342E+03  0.93841006342E+03  0.00000000000E+00 0. -1.
         -2   -1    0    0    0  501 -0.00000000000E+00 -0.00000000000E+00 -0.34248500241E+03  0.34248500241E+03  0.00000000000E+00 0.  1.
         23    2    1    2    0    0 -0.72831073059E+02  0.68973137967E+02 -0.85626802068E+02  0.15956643931E+03  0.89821157621E+02 0.  0.
        254    2    1    2    0    0  0.72831073059E+02 -0.68973137967E+02  0.68155186308E+03  0.11213286265E+04  0.88476171234E+03 0.  0.
         23    2    4    4    0    0  0.12802402382E+02 -0.20945541170E+03 -0.14830124086E+03  0.27255837836E+03  0.90880914261E+02 0.  0.
         23    2    4    4    0    0  0.60028670677E+02  0.14048227373E+03  0.82985310394E+03  0.84877024816E+03  0.91739029378E+02 0.  0.
          1    1    3    3  502    0 -0.26434817068E+02  0.41131954354E+01  0.15391717741E+02  0.30864589826E+02  0.00000000000E+00 0. -1.
         -1    1    3    3    0  502 -0.46396255991E+02  0.64859942531E+02 -0.10101851981E+03  0.12870184948E+03  0.00000000000E+00 0.  1.
         13    1    5    5    0    0  0.28969500148E+02 -0.19972896242E+02 -0.76075519741E+01  0.36000324584E+02  0.00000000000E+00 0. -1.
        -13    1    5    5    0    0 -0.16167097766E+02 -0.18948251546E+03 -0.14069368889E+03  0.23655805378E+03  0.00000000000E+00 0.  1.
          3    1    6    6  503    0  0.25401497000E+02  0.12303042076E+02  0.34229421723E+03  0.34345586623E+03  0.00000000000E+00 0. -1.
         -3    1    6    6    0  503  0.34627173677E+02  0.12817923166E+03  0.48755888670E+03  0.50531438193E+03  0.00000000000E+00 0.  1.
<mgrwt>
<rscale>  0 0.11338278E+04</rscale>
<asrwt>0</asrwt>
<pdfrwt beam="1">  1        2 0.14437078E+00 0.11338278E+04</pdfrwt>
<pdfrwt beam="2">  1       -2 0.52690001E-01 0.11338278E+04</pdfrwt>
<totfact> 0.93040806E+01</totfact>
</mgrwt>
</event>
<event>
12    3  0.4688899E-008  0.2376223E+04  0.7818608E-02  0.8448459E-01
          2   -1    0    0  501    0  0.00000000000E+00  0.00000000000E+00  0.17824873543E+04  0.17824873543E+04  0.00000000000E+00 0. -1.
         -2   -1    0    0    0  501 -0.00000000000E+00 -0.00000000000E+00 -0.79193223969E+03  0.79193223969E+03  0.00000000000E+00 0.  1.
         23    2    1    2    0    0 -0.37576226827E+03 -0.86322290609E+03  0.84493081621E+03  0.12682894870E+04  0.91099235788E+02 0.  0.
        254    2    1    2    0    0  0.37576226827E+03  0.86322290609E+03  0.14562429838E+03  0.13061301070E+04  0.89354258557E+03 0.  0.
         23    2    4    4    0    0 -0.22964454518E+03  0.35865239104E+03  0.25569170416E+03  0.50523991342E+03  0.92309088442E+02 0.  0.
         23    2    4    4    0    0  0.60540681345E+03  0.50457051504E+03 -0.11006740577E+03  0.80089019356E+03  0.90561878900E+02 0.  0.
          1    1    3    3  502    0 -0.93931321154E+02 -0.20233413664E+03  0.25373350501E+03  0.33785039220E+03  0.00000000000E+00 0. -1.
         -1    1    3    3    0  502 -0.28183094712E+03 -0.66088876945E+03  0.59119731120E+03  0.93043909479E+03  0.00000000000E+00 0.  1.
         13    1    5    5    0    0 -0.23302121899E+03  0.32205278133E+03  0.22159925208E+03  0.45510780150E+03  0.00000000000E+00 0.  1.
        -13    1    5    5    0    0  0.33766738155E+01  0.36599609716E+02  0.34092452074E+02  0.50132111923E+02  0.00000000000E+00 0. -1.
          4    1    6    6  503    0  0.11558530295E+03  0.14542314967E+03 -0.32312224552E+02  0.18855220649E+03  0.00000000000E+00 0. -1.
         -4    1    6    6    0  503  0.48982151050E+03  0.35914736537E+03 -0.77755181222E+02  0.61233798707E+03  0.00000000000E+00 0.  1.
<mgrwt>
<rscale>  0 0.23762232E+04</rscale>
<asrwt>0</asrwt>
<pdfrwt beam="1">  1        2 0.27422882E+00 0.23762232E+04</pdfrwt>
<pdfrwt beam="2">  1       -2 0.12183573E+00 0.23762232E+04</pdfrwt>
<totfact> 0.40653060E+00</totfact>
</mgrwt>
</event>
<event>
12    3  0.4688899E-008  0.1517470E+04  0.7818608E-02  0.8872918E-01
          2   -1    0    0  501    0  0.00000000000E+00  0.00000000000E+00  0.35858409250E+04  0.35858409250E+04  0.00000000000E+00 0. -1.
         -2   -1    0    0    0  501 -0.00000000000E+00 -0.00000000000E+00 -0.16054220522E+03  0.16054220522E+03  0.00000000000E+00 0.  1.
         23    2    1    2    0    0  0.73935906393E+02 -0.24011635724E+03  0.23234596178E+04  0.23405123478E+04  0.12810570498E+03 0.  0.
        254    2    1    2    0    0 -0.73935906393E+02  0.24011635724E+03  0.11018391020E+04  0.14058707824E+04  0.83624211018E+03 0.  0.
         23    2    4    4    0    0  0.32142391647E+03 -0.22501182857E+02  0.21545420566E+03  0.39627035972E+03  0.82401735080E+02 0.  0.
         23    2    4    4    0    0 -0.39535982287E+03  0.26261754010E+03  0.88638489637E+03  0.10096004227E+04  0.91309731711E+02 0.  0.
          1    1    3    3  502    0  0.10462860727E+03 -0.20824977701E+03  0.17681868882E+04  0.17834797411E+04  0.00000000000E+00 0. -1.
         -1    1    3    3    0  502 -0.30692700878E+02 -0.31866580233E+02  0.55527272953E+03  0.55703260675E+03  0.00000000000E+00 0.  1.
         13    1    5    5    0    0  0.18316246832E+03 -0.48564188404E+02  0.14688501206E+03  0.23975440968E+03  0.00000000000E+00 0.  1.
        -13    1    5    5    0    0  0.13826144816E+03  0.26063005547E+02  0.68569193602E+02  0.15651595004E+03  0.00000000000E+00 0. -1.
          4    1    6    6  503    0 -0.22565510414E+03  0.10454010556E+03  0.51193215692E+03  0.56914268245E+03  0.00000000000E+00 0. -1.
         -4    1    6    6    0  503 -0.16970471873E+03  0.15807743455E+03  0.37445273944E+03  0.44045774025E+03  0.00000000000E+00 0.  1.
<mgrwt>
<rscale>  0 0.15174700E+04</rscale>
<asrwt>0</asrwt>
<pdfrwt beam="1">  1        2 0.55166778E+00 0.15174700E+04</pdfrwt>
<pdfrwt beam="2">  1       -2 0.24698803E-01 0.15174700E+04</pdfrwt>
<totfact> 0.10153575E+01</totfact>
</mgrwt>
</event>
<event>
12    3  0.4688899E-008  0.1704502E+04  0.7818608E-02  0.8758801E-01
         -2   -1    0    0    0  501 -0.00000000000E+00  0.00000000000E+00  0.95632179391E+03  0.95632179391E+03  0.00000000000E+00 0.  1.
          2   -1    0    0  501    0  0.00000000000E+00 -0.00000000000E+00 -0.75950578185E+03  0.75950578185E+03  0.00000000000E+00 0. -1.
         23    2    1    2    0    0 -0.31558013412E+03 -0.27705870844E+03 -0.37873469612E+03  0.57281236241E+03  0.91223261897E+02 0.  0.
        254    2    1    2    0    0  0.31558013412E+03  0.27705870844E+03  0.57555070817E+03  0.11430152134E+04  0.89379685125E+03 0.  0.
         23    2    4    4    0    0 -0.30520995601E+03  0.60406952140E+02  0.16501987986E+03  0.36257410948E+03  0.86176023330E+02 0.  0.
         23    2    4    4    0    0  0.62079009013E+03  0.21665175630E+03  0.41053082831E+03  0.78044110388E+03  0.90743793837E+02 0.  0.
          1    1    3    3  502    0 -0.30962876920E+03 -0.28384954326E+03 -0.37483783626E+03  0.56297774505E+03  0.00000000000E+00 0. -1.
         -1    1    3    3    0  502 -0.59513649134E+01  0.67908348186E+01 -0.38968598594E+01  0.98346173606E+01  0.00000000000E+00 0.  1.
         13    1    5    5    0    0 -0.25231341215E+03  0.40474495916E+02  0.95098002679E+02  0.27266072854E+03  0.00000000000E+00 0.  1.
        -13    1    5    5    0    0 -0.52896543858E+02  0.19932456224E+02  0.69921877183E+02  0.89913380940E+02  0.00000000000E+00 0. -1.
          4    1    6    6  503    0  0.17579807895E+03  0.41830640093E+02  0.15643802953E+03  0.23901385754E+03  0.00000000000E+00 0. -1.
         -4    1    6    6    0  503  0.44499201118E+03  0.17482111621E+03  0.25409279878E+03  0.54142724634E+03  0.00000000000E+00 0.  1.
<mgrwt>
<rscale>  0 0.17045022E+04</rscale>
<asrwt>0</asrwt>
<pdfrwt beam="1">  1        2 0.11684704E+00 0.17045022E+04</pdfrwt>
<pdfrwt beam="2">  1       -2 0.14712643E+00 0.17045022E+04</pdfrwt>
<totfact> 0.11061008E+01</totfact>
</mgrwt>
</event>
<event>
12    3  0.4688899E-008  0.1792318E+04  0.7818608E-02  0.8710395E-01
         -2   -1    0    0    0  501 -0.00000000000E+00  0.00000000000E+00  0.38634403488E+03  0.38634403488E+03  0.00000000000E+00 0.  1.
          2   -1    0    0  501    0  0.00000000000E+00 -0.00000000000E+00 -0.20787200044E+04  0.20787200044E+04  0.00000000000E+00 0. -1.
         23    2    1    2    0    0  0.64039411561E+03 -0.11915623229E+03 -0.89209246295E+03  0.11083431738E+04  0.91064797940E+02 0.  0.
        254    2    1    2    0    0 -0.64039411561E+03  0.11915623229E+03 -0.80028350659E+03  0.13567208655E+04  0.88087171880E+03 0.  0.
         23    2    4    4    0    0  0.17932561259E+03 -0.18496627203E+02 -0.35777895625E+03  0.41086218251E+03  0.91116139809E+02 0.  0.
         23    2    4    4    0    0 -0.81971972819E+03  0.13765285949E+03 -0.44250455034E+03  0.94585868300E+03  0.89160689839E+02 0.  0.
          2    1    3    3  502    0  0.56600970651E+03 -0.12590168204E+03 -0.82186160623E+03  0.10058204219E+04  0.00000000000E+00 0. -1.
         -2    1    3    3    0  502  0.74384409101E+02  0.67454497482E+01 -0.70230856713E+02  0.10252275184E+03  0.00000000000E+00 0.  1.
         13    1    5    5    0    0  0.11406691756E+02  0.89317344324E+01 -0.10599331741E+03  0.10697883825E+03  0.00000000000E+00 0. -1.
        -13    1    5    5    0    0  0.16791892083E+03 -0.27428361635E+02 -0.25178563884E+03  0.30388334426E+03  0.00000000000E+00 0.  1.
          2    1    6    6  503    0 -0.78936610880E+03  0.13843153757E+03 -0.44257085278E+03  0.91549500493E+03  0.00000000000E+00 0.  1.
         -2    1    6    6    0  503 -0.30353619391E+02 -0.77867807842E+00  0.66302442628E-01  0.30363678066E+02  0.00000000000E+00 0. -1.
<mgrwt>
<rscale>  0 0.17923181E+04</rscale>
<asrwt>0</asrwt>
<pdfrwt beam="1">  1        2 0.31980307E+00 0.17923181E+04</pdfrwt>
<pdfrwt beam="2">  1       -2 0.59437545E-01 0.17923181E+04</pdfrwt>
<totfact> 0.15073674E+01</totfact>
</mgrwt>
</event>
<event>
12    3  0.4688899E-008  0.2633025E+04  0.7818608E-02  0.8357069E-01
         -2   -1    0    0    0  501 -0.00000000000E+00  0.00000000000E+00  0.17787923715E+04  0.17787923715E+04  0.00000000000E+00 0.  1.
          2   -1    0    0  501    0  0.00000000000E+00 -0.00000000000E+00 -0.97437177233E+03  0.97437177233E+03  0.00000000000E+00 0. -1.
         23    2    1    2    0    0 -0.11110416870E+04 -0.21693383383E+03  0.25022227421E+03  0.11629339861E+04  0.91270756916E+02 0.  0.
        254    2    1    2    0    0  0.11110416870E+04  0.21693383383E+03  0.55419832499E+03  0.15902301578E+04  0.96965058282E+03 0.  0.
         23    2    4    4    0    0  0.47458896591E+02 -0.46004035200E+02 -0.21870788497E+03  0.24636524152E+03  0.92162764491E+02 0.  0.
         23    2    4    4    0    0  0.10635827904E+04  0.26293786903E+03  0.77290620997E+03  0.13438649162E+04  0.90797735270E+02 0.  0.
          1    1    3    3  502    0 -0.97952274779E+03 -0.16062253605E+03  0.22118123753E+03  0.10169491395E+04  0.00000000000E+00 0. -1.
         -1    1    3    3    0  502 -0.13151893919E+03 -0.56311297782E+02  0.29041036677E+02  0.14598484659E+03  0.00000000000E+00 0.  1.
         13    1    5    5    0    0  0.55787020080E+02  0.81674225184E+01 -0.13511545893E+03  0.14640725953E+03  0.00000000000E+00 0. -1.
        -13    1    5    5    0    0 -0.83281234883E+01 -0.54171457719E+02 -0.83592426041E+02  0.99957981991E+02  0.00000000000E+00 0.  1.
          3    1    6    6  503    0  0.36332539956E+03  0.72332619181E+02  0.31016336583E+03  0.48315491022E+03  0.00000000000E+00 0. -1.
         -3    1    6    6    0  503  0.70025739082E+03  0.19060524985E+03  0.46274284414E+03  0.86071000603E+03  0.00000000000E+00 0.  1.
<mgrwt>
<rscale>  0 0.26330249E+04</rscale>
<asrwt>0</asrwt>
<pdfrwt beam="1">  1        2 0.14990335E+00 0.26330249E+04</pdfrwt>
<pdfrwt beam="2">  1       -2 0.27366036E+00 0.26330249E+04</pdfrwt>
<totfact> 0.10627194E+00</totfact>
</mgrwt>
</event>
<event>
12    3  0.4688899E-008  0.1742952E+04  0.7818608E-02  0.8737239E-01
          4   -1    0    0  501    0  0.00000000000E+00  0.00000000000E+00  0.13496681974E+04  0.13496681974E+04  0.00000000000E+00 0.  1.
         -4   -1    0    0    0  501 -0.00000000000E+00 -0.00000000000E+00 -0.56270927847E+03  0.56270927847E+03  0.00000000000E+00 0. -1.
         23    2    1    2    0    0 -0.40985634679E+03 -0.46265182815E+03  0.15176180607E+03  0.64301381059E+03  0.91685199109E+02 0.  0.
        254    2    1    2    0    0  0.40985634679E+03  0.46265182815E+03  0.63519711289E+03  0.12693636653E+04  0.90872427253E+03 0.  0.
         23    2    4    4    0    0  0.27743442969E+03 -0.15333691676E+03  0.52973885450E+03  0.62406538243E+03  0.91390780505E+02 0.  0.
         23    2    4    4    0    0  0.13242191710E+03  0.61598874491E+03  0.10545825839E+03  0.64529828288E+03  0.91163214306E+02 0.  0.
          3    1    3    3  502    0 -0.24176408906E+02 -0.26699635814E+01  0.24545396366E+01  0.24446926554E+02  0.00000000000E+00 0. -1.
         -3    1    3    3    0  502 -0.38567993789E+03 -0.45998186457E+03  0.14930726643E+03  0.61856688404E+03  0.00000000000E+00 0.  1.
         13    1    5    5    0    0  0.22717202191E+03 -0.98516207570E+02  0.34281530648E+03  0.42288876203E+03  0.00000000000E+00 0.  1.
        -13    1    5    5    0    0  0.50262407777E+02 -0.54820709189E+02  0.18692354801E+03  0.20117662039E+03  0.00000000000E+00 0. -1.
          3    1    6    6  503    0  0.85185532757E+01  0.25160286803E+03  0.41947848568E+02  0.25521792835E+03  0.00000000000E+00 0. -1.
         -3    1    6    6    0  503  0.12390336383E+03  0.36438587688E+03  0.63510409822E+02  0.39008035454E+03  0.00000000000E+00 0.  1.
<mgrwt>
<rscale>  0 0.17429525E+04</rscale>
<asrwt>0</asrwt>
<pdfrwt beam="1">  1        4 0.20764126E+00 0.17429525E+04</pdfrwt>
<pdfrwt beam="2">  1       -4 0.86570658E-01 0.17429525E+04</pdfrwt>
<totfact> 0.25759734E-01</totfact>
</mgrwt>
</event>
<event>
12    3  0.4688899E-008  0.2776156E+04  0.7818608E-02  0.8310710E-01
          2   -1    0    0  501    0  0.00000000000E+00  0.00000000000E+00  0.25141615016E+04  0.25141615016E+04  0.00000000000E+00 0. -1.
         -2   -1    0    0    0  501 -0.00000000000E+00 -0.00000000000E+00 -0.76636289022E+03  0.76636289022E+03  0.00000000000E+00 0.  1.
         23    2    1    2    0    0  0.10550069068E+04  0.20478895880E+03  0.15154648120E+04  0.18600777904E+04  0.90981859713E+02 0.  0.
        254    2    1    2    0    0 -0.10550069068E+04 -0.20478895880E+03  0.23233379933E+03  0.14204466014E+04  0.89928386060E+03 0.  0.
         23    2    4    4    0    0 -0.53174937834E+03 -0.16715796118E+03  0.55961335138E+03  0.79536933168E+03  0.93520507841E+02 0.  0.
         23    2    4    4    0    0 -0.52325752849E+03 -0.37630997629E+02 -0.32727955206E+03  0.62507726969E+03  0.91625077269E+02 0.  0.
          1    1    3    3  502    0  0.63283223116E+03  0.95902715799E+02  0.96285216228E+03  0.11561826197E+04  0.00000000000E+00 0. -1.
         -1    1    3    3    0  502  0.42217467567E+03  0.10888624301E+03  0.55261264972E+03  0.70389517069E+03  0.00000000000E+00 0.  1.
         13    1    5    5    0    0 -0.31054461980E+03 -0.10804197882E+03  0.26534350057E+03  0.42251414576E+03  0.00000000000E+00 0.  1.
        -13    1    5    5    0    0 -0.22120475854E+03 -0.59115982355E+02  0.29426985082E+03  0.37285518593E+03  0.00000000000E+00 0. -1.
          3    1    6    6  503    0 -0.34980281692E+02 -0.10987749403E+02 -0.52874208987E+02  0.64343086033E+02  0.00000000000E+00 0. -1.
         -3    1    6    6    0  503 -0.48827724680E+03 -0.26643248226E+02 -0.27440534307E+03  0.56073418366E+03  0.00000000000E+00 0.  1.
<mgrwt>
<rscale>  0 0.27761557E+04</rscale>
<asrwt>0</asrwt>
<pdfrwt beam="1">  1        2 0.38679407E+00 0.27761557E+04</pdfrwt>
<pdfrwt beam="2">  1       -2 0.11790198E+00 0.27761557E+04</pdfrwt>
<totfact> 0.16516389E+00</totfact>
</mgrwt>
</event>
<event>
12    3  0.4688899E-008  0.1368272E+04  0.7818608E-02  0.8977110E-01
         -3   -1    0    0    0  501 -0.00000000000E+00  0.00000000000E+00  0.14032232147E+03  0.14032232147E+03  0.00000000000E+00 0.  1.
          3   -1    0    0  501    0  0.00000000000E+00 -0.00000000000E+00 -0.33354797285E+04  0.33354797285E+04  0.00000000000E+00 0. -1.
         23    2    1    2    0    0  0.20349916904E+03  0.28680756405E+03 -0.55835472881E+03  0.66674997296E+03  0.95525036814E+02 0.  0.
        254    2    1    2    0    0 -0.20349916904E+03 -0.28680756405E+03 -0.26368026782E+04  0.28090520770E+04  0.90242712553E+03 0.  0.
         23    2    4    4    0    0  0.27066891163E+03 -0.11785366295E+03 -0.18094533454E+04  0.18358564605E+04  0.95374989732E+02 0.  0.
         23    2    4    4    0    0 -0.47416808067E+03 -0.16895390110E+03 -0.82734933283E+03  0.97319561655E+03  0.96031245521E+02 0.  0.
          1    1    3    3  502    0  0.54717522495E+02  0.36423576163E+02 -0.16252374506E+03  0.17531301115E+03  0.00000000000E+00 0. -1.
         -1    1    3    3    0  502  0.14878164655E+03  0.25038398788E+03 -0.39583098375E+03  0.49143696181E+03  0.00000000000E+00 0.  1.
         13    1    5    5    0    0  0.13267290977E+02 -0.21459825867E+02 -0.62295400317E+02  0.67210579797E+02  0.00000000000E+00 0. -1.
        -13    1    5    5    0    0  0.25740162065E+03 -0.96393837082E+02 -0.17471579451E+04  0.17686458807E+04  0.00000000000E+00 0.  1.
          4    1    6    6  503    0 -0.34648146691E+03 -0.16154717354E+03 -0.65771141612E+03  0.76074384853E+03  0.00000000000E+00 0. -1.
         -4    1    6    6    0  503 -0.12768661376E+03 -0.74067275560E+01 -0.16963791671E+03  0.21245176802E+03  0.00000000000E+00 0.  1.
<mgrwt>
<rscale>  0 0.13682723E+04</rscale>
<asrwt>0</asrwt>
<pdfrwt beam="1">  1        3 0.51315067E+00 0.13682723E+04</pdfrwt>
<pdfrwt beam="2">  1       -3 0.21588052E-01 0.13682723E+04</pdfrwt>
<totfact> 0.15393813E-01</totfact>
</mgrwt>
</event>
<event>
12    3  0.4688899E-008  0.1380183E+04  0.7818608E-02  0.8968290E-01
          2   -1    0    0  501    0  0.00000000000E+00  0.00000000000E+00  0.29750892949E+04  0.29750892949E+04  0.00000000000E+00 0.  1.
         -2   -1    0    0    0  501 -0.00000000000E+00 -0.00000000000E+00 -0.16007115905E+03  0.16007115905E+03  0.00000000000E+00 0. -1.
         23    2    1    2    0    0  0.83405009863E+02  0.14757385196E+03  0.19631052323E+02  0.19630770816E+03  0.97040716266E+02 0.  0.
        254    2    1    2    0    0 -0.83405009863E+02 -0.14757385196E+03  0.27953870836E+04  0.29388527458E+04  0.89102866241E+03 0.  0.
         23    2    4    4    0    0 -0.96919562025E+01  0.15291879598E+03  0.65050589375E+02  0.18984035493E+03  0.91267129904E+02 0.  0.
         23    2    4    4    0    0 -0.73713053661E+02 -0.30049264795E+03  0.27303364942E+04  0.27490123909E+04  0.81254587944E+02 0.  0.
          4    1    3    3  502    0  0.58260721243E+01 -0.44168435802E+01  0.24526169286E+02  0.25592666986E+02  0.00000000000E+00 0.  1.
         -4    1    3    3    0  502  0.77578937739E+02  0.15199069554E+03 -0.48951169631E+01  0.17071504117E+03  0.00000000000E+00 0. -1.
         13    1    5    5    0    0  0.55200175622E+01  0.51392202353E+02 -0.21093265188E+02  0.55826113001E+02  0.00000000000E+00 0. -1.
        -13    1    5    5    0    0 -0.15211973765E+02  0.10152659363E+03  0.86143854563E+02  0.13401424193E+03  0.00000000000E+00 0.  1.
          3    1    6    6  503    0 -0.79438002552E+02 -0.29237749279E+03  0.27030106538E+04  0.27199377914E+04  0.00000000000E+00 0. -1.
         -3    1    6    6    0  503  0.57249488910E+01 -0.81151551563E+01  0.27325840423E+02  0.29074599530E+02  0.00000000000E+00 0.  1.
<mgrwt>
<rscale>  0 0.13801826E+04</rscale>
<asrwt>0</asrwt>
<pdfrwt beam="1">  1        2 0.45770600E+00 0.13801826E+04</pdfrwt>
<pdfrwt beam="2">  1       -2 0.24626334E-01 0.13801826E+04</pdfrwt>
<totfact> 0.26175477E+01</totfact>
</mgrwt>
</event>
<event>
12    3  0.4688899E-008  0.2713816E+04  0.7818608E-02  0.8330536E-01
         -2   -1    0    0    0  501 -0.00000000000E+00  0.00000000000E+00  0.54022750907E+03  0.54022750907E+03  0.00000000000E+00 0.  1.
          2   -1    0    0  501    0  0.00000000000E+00 -0.00000000000E+00 -0.34081920711E+04  0.34081920711E+04  0.00000000000E+00 0. -1.
         23    2    1    2    0    0 -0.56355400041E+03  0.10304375004E+04 -0.16913140963E+04  0.20611232785E+04  0.91056263003E+02 0.  0.
        254    2    1    2    0    0  0.56355400041E+03 -0.10304375004E+04 -0.11766504657E+04  0.18872963017E+04  0.89330087789E+03 0.  0.
         23    2    4    4    0    0 -0.18698511102E+03 -0.34160817611E+03 -0.12253903802E+03  0.41842084852E+03  0.91654857512E+02 0.  0.
         23    2    4    4    0    0  0.75053911143E+03 -0.68882932428E+03 -0.10541114277E+04  0.14688754532E+04  0.93002146452E+02 0.  0.
          1    1    3    3  502    0 -0.36765347099E+03  0.73092580397E+03 -0.11212650324E+04  0.13880406617E+04  0.00000000000E+00 0. -1.
         -1    1    3    3    0  502 -0.19590052943E+03  0.29951169642E+03 -0.57004906393E+03  0.67308261678E+03  0.00000000000E+00 0.  1.
         13    1    5    5    0    0 -0.39102380914E+01  0.31468586251E+01 -0.11559304503E+02  0.12601991975E+02  0.00000000000E+00 0.  1.
        -13    1    5    5    0    0 -0.18307487293E+03 -0.34475503474E+03 -0.11097973352E+03  0.40581885654E+03  0.00000000000E+00 0. -1.
          1    1    6    6  503    0  0.71841525692E+03 -0.64398688267E+03 -0.96865399427E+03  0.13671613464E+04  0.00000000000E+00 0. -1.
         -1    1    6    6    0  503  0.32123854517E+02 -0.44842441608E+02 -0.85457433444E+02  0.10171410684E+03  0.00000000000E+00 0.  1.
<mgrwt>
<rscale>  0 0.27138158E+04</rscale>
<asrwt>0</asrwt>
<pdfrwt beam="1">  1        2 0.52433724E+00 0.27138158E+04</pdfrwt>
<pdfrwt beam="2">  1       -2 0.83111925E-01 0.27138158E+04</pdfrwt>
<totfact> 0.10458603E+00</totfact>
</mgrwt>
</event>
<event>
12    3  0.4688899E-008  0.1500822E+04  0.7818608E-02  0.8883907E-01
          1   -1    0    0  501    0  0.00000000000E+00  0.00000000000E+00  0.17286741602E+04  0.17286741602E+04  0.00000000000E+00 0. -1.
         -1   -1    0    0    0  501 -0.00000000000E+00 -0.00000000000E+00 -0.32575049207E+03  0.32575049207E+03  0.00000000000E+00 0.  1.
         23    2    1    2    0    0 -0.14648839390E+03  0.29250824015E+03 -0.34548438134E+01  0.34118909776E+03  0.96840819807E+02 0.  0.
        254    2    1    2    0    0  0.14648839390E+03 -0.29250824015E+03  0.14063785119E+04  0.17132355545E+04  0.92209306809E+03 0.  0.
         23    2    4    4    0    0  0.12109054968E+03 -0.96001352591E+01  0.14063045454E+04  0.14144632535E+04  0.90877594769E+02 0.  0.
         23    2    4    4    0    0  0.25397844228E+02 -0.28290810489E+03  0.73966470816E-01  0.29877230094E+03  0.92643596838E+02 0.  0.
          1    1    3    3  502    0 -0.14764898706E+03  0.21776150560E+03  0.17119176623E+02  0.26365386951E+03  0.00000000000E+00 0. -1.
         -1    1    3    3    0  502  0.11605931571E+01  0.74746734551E+02 -0.20574020437E+02  0.77535228248E+02  0.00000000000E+00 0.  1.
         13    1    5    5    0    0  0.23203042140E+02  0.34527619269E+02  0.28342828052E+03  0.28646488067E+03  0.00000000000E+00 0. -1.
        -13    1    5    5    0    0  0.97887507536E+02 -0.44127754528E+02  0.11228762649E+04  0.11279983729E+04  0.00000000000E+00 0.  1.
          1    1    6    6  503    0 -0.39869765002E+01 -0.93710758676E+01 -0.20503082422E+02  0.22892999658E+02  0.00000000000E+00 0. -1.
         -1    1    6    6    0  503  0.29384820728E+02 -0.27353702902E+03  0.20577048893E+02  0.27587930128E+03  0.00000000000E+00 0.  1.
<mgrwt>
<rscale>  0 0.15008217E+04</rscale>
<asrwt>0</asrwt>
<pdfrwt beam="1">  1        1 0.26594987E+00 0.15008217E+04</pdfrwt>
<pdfrwt beam="2">  1       -1 0.50115461E-01 0.15008217E+04</pdfrwt>
<totfact> 0.17613291E+01</totfact>
</mgrwt>
</event>
<event>
12    3  0.4688899E-008  0.2681824E+04  0.7818608E-02  0.8340927E-01
         -1   -1    0    0    0  501 -0.00000000000E+00  0.00000000000E+00  0.86071158319E+03  0.86071158319E+03  0.00000000000E+00 0. -1.
          1   -1    0    0  501    0  0.00000000000E+00 -0.00000000000E+00 -0.20890208735E+04  0.20890208735E+04  0.00000000000E+00 0.  1.
         23    2    1    2    0    0  0.96761897620E+02 -0.77666942772E+03  0.43732827060E+03  0.90106827351E+03  0.89943051219E+02 0.  0.
        254    2    1    2    0    0 -0.96761897620E+02  0.77666942772E+03 -0.16656375609E+04  0.20486641831E+04  0.90005454629E+03 0.  0.
         23    2    4    4    0    0 -0.27300550831E+03  0.18043939361E+03 -0.12493991653E+04  0.12947310590E+04  0.90773667705E+02 0.  0.
         23    2    4    4    0    0  0.17624361069E+03  0.59623003412E+03 -0.41623839562E+03  0.75393312411E+03  0.92783025140E+02 0.  0.
          1    1    3    3  502    0  0.62516416986E+02 -0.67105498252E+03  0.40106767360E+03  0.78426932285E+03  0.00000000000E+00 0. -1.
         -1    1    3    3    0  502  0.34245480634E+02 -0.10561444520E+03  0.36260597001E+02  0.11679895066E+03  0.00000000000E+00 0.  1.
         13    1    5    5    0    0 -0.10836600593E+03  0.12581019598E+03 -0.62599655841E+03  0.64764426022E+03  0.00000000000E+00 0.  1.
        -13    1    5    5    0    0 -0.16463950237E+03  0.54629197631E+02 -0.62340260684E+03  0.64708679880E+03  0.00000000000E+00 0. -1.
          3    1    6    6  503    0  0.71859112231E+02  0.17552519780E+03 -0.17393824311E+03  0.25734673010E+03  0.00000000000E+00 0. -1.
         -3    1    6    6    0  503  0.10438449846E+03  0.42070483632E+03 -0.24230015250E+03  0.49658639402E+03  0.00000000000E+00 0.  1.
<mgrwt>
<rscale>  0 0.26818236E+04</rscale>
<asrwt>0</asrwt>
<pdfrwt beam="1">  1        1 0.32138782E+00 0.26818236E+04</pdfrwt>
<pdfrwt beam="2">  1       -1 0.13241717E+00 0.26818236E+04</pdfrwt>
<totfact> 0.10970927E+00</totfact>
</mgrwt>
</event>
<event>
12    3  0.4688899E-008  0.1225787E+04  0.7818608E-02  0.9090580E-01
          1   -1    0    0  501    0  0.00000000000E+00  0.00000000000E+00  0.12155683668E+04  0.12155683668E+04  0.00000000000E+00 0. -1.
         -1   -1    0    0    0  501 -0.00000000000E+00 -0.00000000000E+00 -0.30902265991E+03  0.30902265991E+03  0.00000000000E+00 0.  1.
         23    2    1    2    0    0 -0.47513681238E+02 -0.22691788317E+03  0.37720275487E+03  0.45142676699E+03  0.88062092100E+02 0.  0.
        254    2    1    2    0    0  0.47513681238E+02  0.22691788317E+03  0.52934295202E+03  0.10731642597E+04  0.90428330289E+03 0.  0.
         23    2    4    4    0    0 -0.11476205763E+03  0.52546021168E+03  0.17225062266E+03  0.57231506512E+03  0.92711880716E+02 0.  0.
         23    2    4    4    0    0  0.16227573887E+03 -0.29854232851E+03  0.35709232936E+03  0.50084919460E+03  0.88735825424E+02 0.  0.
          4    1    3    3  502    0  0.18030279987E+01 -0.13885371297E+02 -0.15465069913E+01  0.14087090895E+02  0.00000000000E+00 0. -1.
         -4    1    3    3    0  502 -0.49316709237E+02 -0.21303251187E+03  0.37874926186E+03  0.43733967609E+03  0.00000000000E+00 0.  1.
         13    1    5    5    0    0 -0.89901588533E+02  0.32491504180E+03  0.15008627392E+03  0.36902299336E+03  0.00000000000E+00 0.  1.
        -13    1    5    5    0    0 -0.24860469100E+02  0.20054516988E+03  0.22164348742E+02  0.20329207176E+03  0.00000000000E+00 0. -1.
          2    1    6    6  503    0 -0.28810362528E+01  0.38802219522E+01  0.32145691863E+00  0.48435345399E+01  0.00000000000E+00 0. -1.
         -2    1    6    6    0  503  0.16515677512E+03 -0.30242255046E+03  0.35677087244E+03  0.49600566006E+03  0.00000000000E+00 0.  1.
<mgrwt>
<rscale>  0 0.12257866E+04</rscale>
<asrwt>0</asrwt>
<pdfrwt beam="1">  1        1 0.18701052E+00 0.12257866E+04</pdfrwt>
<pdfrwt beam="2">  1       -1 0.47541948E-01 0.12257866E+04</pdfrwt>
<totfact> 0.45405387E+01</totfact>
</mgrwt>
</event>
<event>
12    3  0.4688899E-008  0.1429373E+04  0.7818608E-02  0.8932827E-01
          2   -1    0    0  501    0  0.00000000000E+00  0.00000000000E+00  0.31830435870E+03  0.31830435870E+03  0.00000000000E+00 0. -1.
         -2   -1    0    0    0  501 -0.00000000000E+00 -0.00000000000E+00 -0.16046806427E+04  0.16046806427E+04  0.00000000000E+00 0.  1.
         23    2    1    2    0    0 -0.20781722231E+03 -0.35599555665E+03 -0.55967508038E+03  0.70104966681E+03  0.91178975031E+02 0.  0.
        254    2    1    2    0    0  0.20781722231E+03  0.35599555665E+03 -0.72670120363E+03  0.12219353346E+04  0.89168968164E+03 0.  0.
         23    2    4    4    0    0 -0.71678123082E+02  0.58360560643E+03 -0.54848432826E+03  0.80974379809E+03  0.95481427590E+02 0.  0.
         23    2    4    4    0    0  0.27949534540E+03 -0.22761004978E+03 -0.17821687536E+03  0.41219153651E+03  0.90645602487E+02 0.  0.
          4    1    3    3  502    0 -0.71330624626E+02 -0.16298798487E+03 -0.17506468056E+03  0.24960124920E+03  0.00000000000E+00 0.  1.
         -4    1    3    3    0  502 -0.13648659769E+03 -0.19300757178E+03 -0.38461039982E+03  0.45144841761E+03  0.00000000000E+00 0. -1.
         13    1    5    5    0    0 -0.24885765812E+02  0.28487332446E+03 -0.20335504688E+03  0.35089227325E+03  0.00000000000E+00 0. -1.
        -13    1    5    5    0    0 -0.46792357270E+02  0.29873228196E+03 -0.34512928138E+03  0.45885152484E+03  0.00000000000E+00 0.  1.
          3    1    6    6  503    0  0.23455182085E+03 -0.22592706487E+03 -0.16628101119E+03  0.36565963680E+03  0.00000000000E+00 0. -1.
         -3    1    6    6    0  503  0.44943524546E+02 -0.16829849037E+01 -0.11935864177E+02  0.46531899708E+02  0.00000000000E+00 0.  1.
<mgrwt>
<rscale>  0 0.14293731E+04</rscale>
<asrwt>0</asrwt>
<pdfrwt beam="1">  1        2 0.48969902E-01 0.14293731E+04</pdfrwt>
<pdfrwt beam="2">  1       -2 0.24687394E+00 0.14293731E+04</pdfrwt>
<totfact> 0.67100410E+00</totfact>
</mgrwt>
</event>
<event>
12    3  0.4688899E-008  0.1630935E+04  0.7818608E-02  0.8801766E-01
          1   -1    0    0  501    0  0.00000000000E+00  0.00000000000E+00  0.22167069200E+04  0.22167069200E+04  0.00000000000E+00 0.  1.
         -1   -1    0    0    0  501 -0.00000000000E+00 -0.00000000000E+00 -0.29998867389E+03  0.29998867389E+03  0.00000000000E+00 0. -1.
         23    2    1    2    0    0 -0.18907045484E+03  0.52930213076E+03  0.67698433805E+03  0.88498264671E+03  0.94752881137E+02 0.  0.
        254    2    1    2    0    0  0.18907045484E+03 -0.52930213076E+03  0.12397339080E+04  0.16317129472E+04  0.89979919798E+03 0.  0.
         23    2    4    4    0    0  0.29281000618E+03  0.42257222552E+02  0.89959896847E+03  0.95228700953E+03  0.10024406148E+03 0.  0.
         23    2    4    4    0    0 -0.10373955135E+03 -0.57155935332E+03  0.34013493956E+03  0.67942593763E+03  0.92118612358E+02 0.  0.
          3    1    3    3  502    0 -0.79920606404E+02  0.27850040861E+03  0.41574653537E+03  0.50674940809E+03  0.00000000000E+00 0. -1.
         -3    1    3    3    0  502 -0.10914984843E+03  0.25080172215E+03  0.26123780268E+03  0.37823323862E+03  0.00000000000E+00 0.  1.
         13    1    5    5    0    0  0.77996347510E+02  0.28964378352E+02  0.39564690209E+03  0.40430042861E+03  0.00000000000E+00 0. -1.
        -13    1    5    5    0    0  0.21481365867E+03  0.13292844200E+02  0.50395206638E+03  0.54798658092E+03  0.00000000000E+00 0.  1.
          1    1    6    6  503    0  0.48221143865E+01 -0.61673220327E+02  0.10799806467E+02  0.62797091592E+02  0.00000000000E+00 0. -1.
         -1    1    6    6    0  503 -0.10856166573E+03 -0.50988613299E+03  0.32933513309E+03  0.61662884604E+03  0.00000000000E+00 0.  1.
<mgrwt>
<rscale>  0 0.16309347E+04</rscale>
<asrwt>0</asrwt>
<pdfrwt beam="1">  1        1 0.34103182E+00 0.16309347E+04</pdfrwt>
<pdfrwt beam="2">  1       -1 0.46152105E-01 0.16309347E+04</pdfrwt>
<totfact> 0.94947994E+00</totfact>
</mgrwt>
</event>
<event>
12    3  0.4688899E-008  0.2394904E+04  0.7818608E-02  0.8441414E-01
          2   -1    0    0  501    0  0.00000000000E+00  0.00000000000E+00  0.28927852291E+04  0.28927852291E+04  0.00000000000E+00 0. -1.
         -2   -1    0    0    0  501 -0.00000000000E+00 -0.00000000000E+00 -0.49567859186E+03  0.49567859186E+03  0.00000000000E+00 0.  1.
         23    2    1    2    0    0 -0.68449922584E+02 -0.89051832757E+03  0.32765624719E+03  0.95587747400E+03  0.92923868555E+02 0.  0.
        254    2    1    2    0    0  0.68449922584E+02  0.89051832757E+03  0.20694503901E+04  0.24325863470E+04  0.91495526387E+03 0.  0.
         23    2    4    4    0    0 -0.77406729863E+02  0.72892766865E+03  0.20682939292E+04  0.21962912286E+04  0.92347361033E+02 0.  0.
         23    2    4    4    0    0  0.14585665245E+03  0.16159065892E+03  0.11564608561E+01  0.23629511841E+03  0.91914859898E+02 0.  0.
          4    1    3    3  502    0 -0.15427935668E+02 -0.69918558892E+03  0.26002851420E+03  0.74613225178E+03  0.00000000000E+00 0.  1.
         -4    1    3    3    0  502 -0.53021986916E+02 -0.19133273864E+03  0.67627732997E+02  0.20974522222E+03  0.00000000000E+00 0. -1.
         13    1    5    5    0    0 -0.69430520975E+01  0.42153061099E+03  0.12595690704E+04  0.13282509194E+04  0.00000000000E+00 0. -1.
        -13    1    5    5    0    0 -0.70463677766E+02  0.30739705766E+03  0.80872485886E+03  0.86804030913E+03  0.00000000000E+00 0.  1.
          3    1    6    6  503    0  0.31717822187E+02  0.62975880393E+01 -0.26223022215E+02  0.41633240967E+02  0.00000000000E+00 0. -1.
         -3    1    6    6    0  503  0.11413883026E+03  0.15529307088E+03  0.27379483071E+02  0.19466187744E+03  0.00000000000E+00 0.  1.
<mgrwt>
<rscale>  0 0.23949043E+04</rscale>
<asrwt>0</asrwt>
<pdfrwt beam="1">  1        2 0.44504387E+00 0.23949043E+04</pdfrwt>
<pdfrwt beam="2">  1       -2 0.76258247E-01 0.23949043E+04</pdfrwt>
<totfact> 0.28105941E+00</totfact>
</mgrwt>
</event>
<event>
12    3  0.5229248E-008  0.2677638E+04  0.7818608E-02  0.8342297E-01
          2   -1    0    0  501    0  0.00000000000E+00  0.00000000000E+00  0.94879548146E+03  0.94879548146E+03  0.00000000000E+00 0. -1.
         -2   -1    0    0    0  501 -0.00000000000E+00 -0.00000000000E+00 -0.18891702821E+04  0.18891702821E+04  0.00000000000E+00 0.  1.
         23    2    1    2    0    0  0.26806241309E+03 -0.82300628124E+03 -0.12829517677E+04  0.15503879145E+04  0.92415642069E+02 0.  0.
        254    2    1    2    0    0 -0.26806241309E+03  0.82300628124E+03  0.34257696703E+03  0.12875778491E+04  0.88955097824E+03 0.  0.
         23    2    4    4    0    0 -0.10191696352E+03  0.88506378062E+03  0.46119567264E+01  0.89564785067E+03  0.91863153924E+02 0.  0.
         23    2    4    4    0    0 -0.16614544957E+03 -0.62057499384E+02  0.33796501030E+03  0.39192999843E+03  0.89069253022E+02 0.  0.
          4    1    3    3  502    0 -0.39912915864E+01 -0.55575029253E+02 -0.96217913719E+02  0.11118633552E+03  0.00000000000E+00 0. -1.
         -4    1    3    3    0  502  0.27205370468E+03 -0.76743125198E+03 -0.11867338540E+04  0.14392015790E+04  0.00000000000E+00 0.  1.
         13    1    5    5    0    0  0.53656680313E+01  0.14875092158E+03 -0.25188456206E+02  0.15096385458E+03  0.00000000000E+00 0. -1.
        -13    1    5    5    0    0 -0.10728263155E+03  0.73631285904E+03  0.29800412932E+02  0.74468399609E+03  0.00000000000E+00 0.  1.
          3    1    6    6  503    0 -0.43943579859E+02  0.11174591403E+02  0.35476560243E+02  0.57571659959E+02  0.00000000000E+00 0. -1.
         -3    1    6    6    0  503 -0.12220186971E+03 -0.73232090787E+02  0.30248845006E+03  0.33435833847E+03  0.00000000000E+00 0.  1.
<mgrwt>
<rscale>  0 0.26776379E+04</rscale>
<asrwt>0</asrwt>
<pdfrwt beam="1">  1        2 0.14596854E+00 0.26776379E+04</pdfrwt>
<pdfrwt beam="2">  1       -2 0.29064158E+00 0.26776379E+04</pdfrwt>
<totfact> 0.86686006E-01</totfact>
</mgrwt>
</event>
<event>
12    3  0.4688899E-008  0.1640141E+04  0.7818608E-02  0.8796261E-01
          2   -1    0    0  501    0  0.00000000000E+00  0.00000000000E+00  0.10850801114E+04  0.10850801114E+04  0.00000000000E+00 0. -1.
         -2   -1    0    0    0  501 -0.00000000000E+00 -0.00000000000E+00 -0.61978400287E+03  0.61978400287E+03  0.00000000000E+00 0.  1.
         23    2    1    2    0    0 -0.24434412301E+03  0.86090009281E+02  0.70043061371E+03  0.75355526160E+03  0.10063273582E+03 0.  0.
        254    2    1    2    0    0  0.24434412301E+03 -0.86090009281E+02 -0.23513450515E+03  0.95130885270E+03  0.88463820715E+03 0.  0.
         23    2    4    4    0    0  0.98935099233E+02 -0.45507291136E+03 -0.26455930567E+03  0.54317685883E+03  0.90387860040E+02 0.  0.
         23    2    4    4    0    0  0.14540902378E+03  0.36898290208E+03  0.29424800523E+02  0.40813199386E+03  0.91726437344E+02 0.  0.
          1    1    3    3  502    0 -0.18759879218E+03  0.96488145114E+02  0.45637234492E+03  0.50277130605E+03  0.00000000000E+00 0. -1.
         -1    1    3    3    0  502 -0.56745330827E+02 -0.10398135833E+02  0.24405826878E+03  0.25078395555E+03  0.00000000000E+00 0.  1.
         13    1    5    5    0    0  0.22302007523E+01 -0.19552640063E+03 -0.85879495492E+02  0.21356693303E+03  0.00000000000E+00 0. -1.
        -13    1    5    5    0    0  0.96704898480E+02 -0.25954651073E+03 -0.17867981018E+03  0.32960992580E+03  0.00000000000E+00 0.  1.
          1    1    6    6  503    0  0.12449828397E+03  0.28374735763E+03 -0.14078793067E+02  0.31017833272E+03  0.00000000000E+00 0. -1.
         -1    1    6    6    0  503  0.20910739807E+02  0.85235544446E+02  0.43503593590E+02  0.97953661144E+02  0.00000000000E+00 0.  1.
<mgrwt>
<rscale>  0 0.16401406E+04</rscale>
<asrwt>0</asrwt>
<pdfrwt beam="1">  1        2 0.16693540E+00 0.16401406E+04</pdfrwt>
<pdfrwt beam="2">  1       -2 0.95351386E-01 0.16401406E+04</pdfrwt>
<totfact> 0.19661998E+01</totfact>
</mgrwt>
</event>
<event>
12    3  0.4688899E-008  0.2937488E+04  0.7818608E-02  0.8261810E-01
         -1   -1    0    0    0  501 -0.00000000000E+00  0.00000000000E+00  0.15463240925E+04  0.15463240925E+04  0.00000000000E+00 0.  1.
          1   -1    0    0  501    0  0.00000000000E+00 -0.00000000000E+00 -0.13950562449E+04  0.13950562449E+04  0.00000000000E+00 0. -1.
         23    2    1    2    0    0 -0.22774759111E+03  0.12312128922E+04  0.50324928941E+03  0.13521085461E+04  0.84755659177E+02 0.  0.
        254    2    1    2    0    0  0.22774759111E+03 -0.12312128922E+04 -0.35198144183E+03  0.15892717914E+04  0.91331250965E+03 0.  0.
         23    2    4    4    0    0  0.19484151246E+03 -0.13356350889E+04 -0.43955538868E+03  0.14224487867E+04  0.90924725020E+02 0.  0.
         23    2    4    4    0    0  0.32906078652E+02  0.10442219663E+03  0.87573946858E+02  0.16682300465E+03  0.90409698319E+02 0.  0.
          2    1    3    3  502    0 -0.15303994872E+03  0.84041871303E+03  0.38537470756E+03  0.93714380132E+03  0.00000000000E+00 0.  1.
         -2    1    3    3    0  502 -0.74707642386E+02  0.39079417920E+03  0.11787458185E+03  0.41496474474E+03  0.00000000000E+00 0. -1.
         13    1    5    5    0    0  0.29625029711E+02 -0.92366274924E+02 -0.13920770067E+02  0.97994688468E+02  0.00000000000E+00 0. -1.
        -13    1    5    5    0    0  0.16521648275E+03 -0.12432688139E+04 -0.42563461862E+03  0.13244540983E+04  0.00000000000E+00 0.  1.
          3    1    6    6  503    0  0.76719389661E+01  0.41905574360E+02  0.89774307562E+02  0.99369824938E+02  0.00000000000E+00 0. -1.
         -3    1    6    6    0  503  0.25234139686E+02  0.62516622270E+02 -0.22003607043E+01  0.67453179710E+02  0.00000000000E+00 0.  1.
<mgrwt>
<rscale>  0 0.29374881E+04</rscale>
<asrwt>0</asrwt>
<pdfrwt beam="1">  1        1 0.21462404E+00 0.29374881E+04</pdfrwt>
<pdfrwt beam="2">  1       -1 0.23789601E+00 0.29374881E+04</pdfrwt>
<totfact> 0.55463710E-01</totfact>
</mgrwt>
</event>
<event>
12    3  0.4688899E-008  0.1554452E+04  0.7818608E-02  0.8849029E-01
          1   -1    0    0  501    0  0.00000000000E+00  0.00000000000E+00  0.57957197913E+03  0.57957197913E+03  0.00000000000E+00 0. -1.
         -1   -1    0    0    0  501 -0.00000000000E+00 -0.00000000000E+00 -0.10422874003E+04  0.10422874003E+04  0.00000000000E+00 0.  1.
         23    2    1    2    0    0  0.17776343654E+03  0.53501010644E+02  0.33379908118E+03  0.39432409770E+03  0.98017702085E+02 0.  0.
        254    2    1    2    0    0 -0.17776343654E+03 -0.53501010644E+02 -0.79651450233E+03  0.12275352817E+04  0.91539353172E+03 0.  0.
         23    2    4    4    0    0  0.16555709816E+03 -0.23433691068E+03  0.37462199504E+02  0.30364496629E+03  0.92053835909E+02 0.  0.
         23    2    4    4    0    0 -0.34332053470E+03  0.18083590003E+03 -0.83397670184E+03  0.92389031542E+03  0.86519150700E+02 0.  0.
          4    1    3    3  502    0  0.17411461371E+03  0.73444069129E+02  0.31004041938E+03  0.36309088621E+03  0.00000000000E+00 0. -1.
         -4    1    3    3    0  502  0.36488228302E+01 -0.19943058485E+02  0.23758661799E+02  0.31233211495E+02  0.00000000000E+00 0.  1.
         13    1    5    5    0    0  0.13749050123E+03 -0.17572393328E+03  0.65988139822E+02  0.23267353363E+03  0.00000000000E+00 0. -1.
        -13    1    5    5    0    0  0.28066596929E+02 -0.58612977398E+02 -0.28525940318E+02  0.70971432659E+02  0.00000000000E+00 0.  1.
          3    1    6    6  503    0 -0.30368276882E+03  0.16559602249E+03 -0.79171630745E+03  0.86397915381E+03  0.00000000000E+00 0. -1.
         -3    1    6    6    0  503 -0.39637765881E+02  0.15239877547E+02 -0.42260394385E+02  0.59911161608E+02  0.00000000000E+00 0.  1.
<mgrwt>
<rscale>  0 0.15544524E+04</rscale>
<asrwt>0</asrwt>
<pdfrwt beam="1">  1        1 0.89164921E-01 0.15544524E+04</pdfrwt>
<pdfrwt beam="2">  1       -1 0.16035191E+00 0.15544524E+04</pdfrwt>
<totfact> 0.10070760E+01</totfact>
</mgrwt>
</event>
<event>
12    3  0.4688899E-008  0.3603406E+04  0.7818608E-02  0.8089712E-01
          2   -1    0    0  501    0  0.00000000000E+00  0.00000000000E+00  0.28168647553E+04  0.28168647553E+04  0.00000000000E+00 0. -1.
         -2   -1    0    0    0  501 -0.00000000000E+00 -0.00000000000E+00 -0.11523922898E+04  0.11523922898E+04  0.00000000000E+00 0.  1.
         23    2    1    2    0    0 -0.93358276871E+03 -0.61047280375E+03  0.21715286799E+04  0.24428888819E+04  0.88968823289E+02 0.  0.
        254    2    1    2    0    0  0.93358276871E+03  0.61047280375E+03 -0.50705621433E+03  0.15263681632E+04  0.91018675827E+03 0.  0.
         23    2    4    4    0    0  0.37599935669E+03 -0.15412985374E+03  0.57785836348E+02  0.42041333422E+03  0.90976044458E+02 0.  0.
         23    2    4    4    0    0  0.55758341202E+03  0.76460265749E+03 -0.56484205068E+03  0.11059548290E+04  0.92590800164E+02 0.  0.
          2    1    3    3  502    0 -0.10267221211E+03 -0.90715830050E+02  0.22216383808E+03  0.26101286541E+03  0.00000000000E+00 0.  1.
         -2    1    3    3    0  502 -0.83091055660E+03 -0.51975697370E+03  0.19493648418E+04  0.21818760165E+04  0.00000000000E+00 0. -1.
         13    1    5    5    0    0  0.15122595030E+03 -0.56934764153E+02 -0.21495267005E+02  0.16301196863E+03  0.00000000000E+00 0.  1.
        -13    1    5    5    0    0  0.22477340639E+03 -0.97195089587E+02  0.79281103354E+02  0.25740136559E+03  0.00000000000E+00 0. -1.
          2    1    6    6  503    0  0.16659949636E+03  0.21274070851E+03 -0.20982026718E+03  0.34210896767E+03  0.00000000000E+00 0. -1.
         -2    1    6    6    0  503  0.39098391566E+03  0.55186194898E+03 -0.35502178350E+03  0.76384586128E+03  0.00000000000E+00 0.  1.
<mgrwt>
<rscale>  0 0.36034057E+04</rscale>
<asrwt>0</asrwt>
<pdfrwt beam="1">  1        2 0.43336381E+00 0.36034057E+04</pdfrwt>
<pdfrwt beam="2">  1       -2 0.17729112E+00 0.36034057E+04</pdfrwt>
<totfact> 0.34832776E-01</totfact>
</mgrwt>
</event>
<event>
12    3  0.4688899E-008  0.3313402E+04  0.7818608E-02  0.8159493E-01
         -2   -1    0    0    0  501 -0.00000000000E+00  0.00000000000E+00  0.21779004570E+04  0.21779004570E+04  0.00000000000E+00 0. -1.
          2   -1    0    0  501    0  0.00000000000E+00 -0.00000000000E+00 -0.12602315826E+04  0.12602315826E+04  0.00000000000E+00 0.  1.
         23    2    1    2    0    0  0.11139950819E+04 -0.17128779978E+03 -0.64727835171E+03  0.13029150931E+04  0.91070974332E+02 0.  0.
        254    2    1    2    0    0 -0.11139950819E+04  0.17128779978E+03  0.15649472262E+04  0.21352169465E+04  0.91638803752E+03 0.  0.
         23    2    4    4    0    0 -0.67425605749E+03 -0.29654777591E+03  0.11389447470E+04  0.13595361717E+04  0.92637199948E+02 0.  0.
         23    2    4    4    0    0 -0.43973902436E+03  0.46783557570E+03  0.42600247916E+03  0.77568077488E+03  0.89230134110E+02 0.  0.
          1    1    3    3  502    0  0.18068396705E+03 -0.61834373402E+02 -0.11520671901E+03  0.22303088079E+03  0.00000000000E+00 0. -1.
         -1    1    3    3    0  502  0.93331111481E+03 -0.10945342638E+03 -0.53207163271E+03  0.10798842123E+04  0.00000000000E+00 0.  1.
         13    1    5    5    0    0 -0.34321141589E+02 -0.26365673184E+01  0.87800508603E+02  0.94307059959E+02  0.00000000000E+00 0. -1.
        -13    1    5    5    0    0 -0.63993491590E+03 -0.29391120860E+03  0.10511442384E+04  0.12652291117E+04  0.00000000000E+00 0.  1.
          3    1    6    6  503    0 -0.15986743978E+02  0.17150873469E+02 -0.18568290044E+01  0.23519699354E+02  0.00000000000E+00 0. -1.
         -3    1    6    6    0  503 -0.42375228039E+03  0.45068470223E+03  0.42785930816E+03  0.75216107552E+03  0.00000000000E+00 0.  1.
<mgrwt>
<rscale>  0 0.33134024E+04</rscale>
<asrwt>0</asrwt>
<pdfrwt beam="1">  1        2 0.19388178E+00 0.33134024E+04</pdfrwt>
<pdfrwt beam="2">  1       -2 0.33506161E+00 0.33134024E+04</pdfrwt>
<totfact> 0.28086239E-01</totfact>
</mgrwt>
</event>
<event>
12    3  0.4688899E-008  0.2498170E+04  0.7818608E-02  0.8403638E-01
         -2   -1    0    0    0  501 -0.00000000000E+00  0.00000000000E+00  0.44660400048E+03  0.44660400048E+03  0.00000000000E+00 0.  1.
          2   -1    0    0  501    0  0.00000000000E+00 -0.00000000000E+00 -0.34935060543E+04  0.34935060543E+04  0.00000000000E+00 0. -1.
         23    2    1    2    0    0  0.24889665216E+03 -0.32040157917E+03 -0.29140439449E+04  0.29436141469E+04  0.92765390770E+02 0.  0.
        254    2    1    2    0    0 -0.24889665216E+03  0.32040157917E+03 -0.13285810896E+03  0.99649590791E+03  0.90041440569E+03 0.  0.
         23    2    4    4    0    0 -0.40331536044E+02 -0.10651871329E+03  0.30937479194E+03  0.34241754664E+03  0.92542667348E+02 0.  0.
         23    2    4    4    0    0 -0.20856511611E+03  0.42692029246E+03 -0.44223290090E+03  0.65407836127E+03  0.80549489512E+02 0.  0.
          3    1    3    3  502    0  0.13531141450E+03 -0.13185125255E+03 -0.16203746430E+04  0.16313515609E+04  0.00000000000E+00 0. -1.
         -3    1    3    3    0  502  0.11358523765E+03 -0.18855032662E+03 -0.12936693019E+04  0.13122625860E+04  0.00000000000E+00 0.  1.
         13    1    5    5    0    0 -0.70016397300E+02 -0.84742587834E+02  0.23378317611E+03  0.25833732892E+03  0.00000000000E+00 0. -1.
        -13    1    5    5    0    0  0.29684861256E+02 -0.21776125456E+02  0.75591615830E+02  0.84080217717E+02  0.00000000000E+00 0.  1.
          4    1    6    6  503    0 -0.21352957849E+03  0.38975722734E+03 -0.40655212863E+03  0.60232068738E+03  0.00000000000E+00 0. -1.
         -4    1    6    6    0  503  0.49644623778E+01  0.37163065122E+02 -0.35680772271E+02  0.51757673883E+02  0.00000000000E+00 0.  1.
<mgrwt>
<rscale>  0 0.24981704E+04</rscale>
<asrwt>0</asrwt>
<pdfrwt beam="1">  1        2 0.53746248E+00 0.24981704E+04</pdfrwt>
<pdfrwt beam="2">  1       -2 0.68708307E-01 0.24981704E+04</pdfrwt>
<totfact> 0.14205974E+00</totfact>
</mgrwt>
</event>
<event>
12    3  0.4688899E-008  0.1644050E+04  0.7818608E-02  0.8793934E-01
          1   -1    0    0  501    0  0.00000000000E+00  0.00000000000E+00  0.21227669884E+04  0.21227669884E+04  0.00000000000E+00 0. -1.
         -1   -1    0    0    0  501 -0.00000000000E+00 -0.00000000000E+00 -0.31832276962E+03  0.31832276962E+03  0.00000000000E+00 0.  1.
         23    2    1    2    0    0 -0.30149864260E+03  0.85775779084E+02  0.13054571090E+04  0.13456554974E+04  0.91167639529E+02 0.  0.
        254    2    1    2    0    0  0.30149864260E+03 -0.85775779084E+02  0.49898710982E+03  0.10954342607E+04  0.92343335866E+03 0.  0.
         23    2    4    4    0    0  0.28734718080E+03 -0.36516490487E+03 -0.44467485261E+02  0.47728805017E+03  0.99562621124E+02 0.  0.
         23    2    4    4    0    0  0.14151461805E+02  0.27938912579E+03  0.54345459508E+03  0.61814621049E+03  0.92213302451E+02 0.  0.
          2    1    3    3  502    0 -0.16487516144E+03  0.72078039455E+02  0.89282736560E+03  0.91077975790E+03  0.00000000000E+00 0. -1.
         -2    1    3    3    0  502 -0.13662348117E+03  0.13697739628E+02  0.41262974341E+03  0.43487573952E+03  0.00000000000E+00 0.  1.
         13    1    5    5    0    0  0.17169404403E+03 -0.28987525124E+03 -0.39287271697E+02  0.33919020586E+03  0.00000000000E+00 0. -1.
        -13    1    5    5    0    0  0.11565313677E+03 -0.75289653632E+02 -0.51802135639E+01  0.13809784431E+03  0.00000000000E+00 0.  1.
          3    1    6    6  503    0 -0.18550754565E+02  0.23158819340E+03  0.47270716985E+03  0.52671556864E+03  0.00000000000E+00 0. -1.
         -3    1    6    6    0  503  0.32702216370E+02  0.47800932394E+02  0.70747425228E+02  0.91430641853E+02  0.00000000000E+00 0.  1.
<mgrwt>
<rscale>  0 0.16440500E+04</rscale>
<asrwt>0</asrwt>
<pdfrwt beam="1">  1        1 0.32657953E+00 0.16440500E+04</pdfrwt>
<pdfrwt beam="2">  1       -1 0.48972735E-01 0.16440500E+04</pdfrwt>
<totfact> 0.98233112E+00</totfact>
</mgrwt>
</event>
<event>
12    3  0.4688899E-008  0.1444650E+04  0.7818608E-02  0.8922118E-01
         -2   -1    0    0    0  501 -0.00000000000E+00  0.00000000000E+00  0.37047515718E+03  0.37047515718E+03  0.00000000000E+00 0.  1.
          2   -1    0    0  501    0  0.00000000000E+00 -0.00000000000E+00 -0.14083358025E+04  0.14083358025E+04  0.00000000000E+00 0. -1.
         23    2    1    2    0    0 -0.25269661736E+02 -0.11835222901E+03  0.19640501577E+03  0.24809196848E+03  0.91262745354E+02 0.  0.
        254    2    1    2    0    0  0.25269661736E+02  0.11835222901E+03 -0.12342656611E+04  0.15307189912E+04  0.89724194170E+03 0.  0.
         23    2    4    4    0    0  0.15697417241E+03 -0.22791287151E+03 -0.63145935797E+02  0.29895261403E+03  0.93808786511E+02 0.  0.
         23    2    4    4    0    0 -0.13170451068E+03  0.34626510051E+03 -0.11711197253E+04  0.12317663772E+04  0.92094510994E+02 0.  0.
          4    1    3    3  502    0 -0.45755059486E+02 -0.94327472482E+02  0.93580687780E+02  0.14052950814E+03  0.00000000000E+00 0. -1.
         -4    1    3    3    0  502  0.20485397750E+02 -0.24024756524E+02  0.10282432799E+03  0.10756246034E+03  0.00000000000E+00 0.  1.
         13    1    5    5    0    0  0.28087278233E+02 -0.11333877082E+03 -0.46556622277E+02  0.12570636916E+03  0.00000000000E+00 0. -1.
        -13    1    5    5    0    0  0.12888689418E+03 -0.11457410069E+03 -0.16589313520E+02  0.17324624487E+03  0.00000000000E+00 0.  1.
          4    1    6    6  503    0 -0.94592597685E+02  0.14079364477E+03 -0.60669476733E+03  0.62995964208E+03  0.00000000000E+00 0. -1.
         -4    1    6    6    0  503 -0.37111912992E+02  0.20547145574E+03 -0.56442495798E+03  0.60180673509E+03  0.00000000000E+00 0.  1.
<mgrwt>
<rscale>  0 0.14446500E+04</rscale>
<asrwt>0</asrwt>
<pdfrwt beam="1">  1        2 0.21666705E+00 0.14446500E+04</pdfrwt>
<pdfrwt beam="2">  1       -2 0.56996178E-01 0.14446500E+04</pdfrwt>
<totfact> 0.40065236E+01</totfact>
</mgrwt>
</event>
<event>
12    3  0.4688899E-008  0.2145425E+04  0.7818608E-02  0.8541493E-01
          2   -1    0    0  501    0  0.00000000000E+00  0.00000000000E+00  0.79160959615E+03  0.79160959615E+03  0.00000000000E+00 0. -1.
         -2   -1    0    0    0  501 -0.00000000000E+00 -0.00000000000E+00 -0.14536357734E+04  0.14536357734E+04  0.00000000000E+00 0.  1.
         23    2    1    2    0    0  0.29071091128E+03  0.44152339472E+03 -0.10145923934E+04  0.11477810793E+04  0.92455066212E+02 0.  0.
        254    2    1    2    0    0 -0.29071091128E+03 -0.44152339472E+03  0.35256621618E+03  0.10974642902E+04  0.89480120109E+03 0.  0.
         23    2    4    4    0    0 -0.54855546394E+03 -0.51170293245E+03  0.26128848002E+03  0.79955762621E+03  0.90927112256E+02 0.  0.
         23    2    4    4    0    0  0.25784455266E+03  0.70179537730E+02  0.91277736163E+02  0.29790666400E+03  0.94909296096E+02 0.  0.
          1    1    3    3  502    0  0.16114836828E+03  0.16529874089E+03 -0.46637345197E+03  0.52038127084E+03  0.00000000000E+00 0. -1.
         -1    1    3    3    0  502  0.12956254300E+03  0.27622465383E+03 -0.54821894146E+03  0.62739980850E+03  0.00000000000E+00 0.  1.
         13    1    5    5    0    0 -0.52944708437E+03 -0.47494075075E+03  0.22959345179E+03  0.74739285852E+03  0.00000000000E+00 0.  1.
        -13    1    5    5    0    0 -0.19108379574E+02 -0.36762181696E+02  0.31695028232E+02  0.52164767684E+02  0.00000000000E+00 0. -1.
          1    1    6    6  503    0  0.11385869892E+03 -0.25238776026E+01  0.27721917645E+01  0.11392040346E+03  0.00000000000E+00 0. -1.
         -1    1    6    6    0  503  0.14398585374E+03  0.72703415333E+02  0.88505544398E+02  0.18398626054E+03  0.00000000000E+00 0.  1.
<mgrwt>
<rscale>  0 0.21454249E+04</rscale>
<asrwt>0</asrwt>
<pdfrwt beam="1">  1        2 0.12178609E+00 0.21454249E+04</pdfrwt>
<pdfrwt beam="2">  1       -2 0.22363627E+00 0.21454249E+04</pdfrwt>
<totfact> 0.30053165E+00</totfact>
</mgrwt>
</event>
<event>
12    3  0.4688899E-008  0.2098234E+04  0.7818608E-02  0.8562022E-01
         -2   -1    0    0    0  501 -0.00000000000E+00  0.00000000000E+00  0.45291541075E+03  0.45291541075E+03  0.00000000000E+00 0.  1.
          2   -1    0    0  501    0  0.00000000000E+00 -0.00000000000E+00 -0.24301361218E+04  0.24301361218E+04  0.00000000000E+00 0. -1.
         23    2    1    2    0    0  0.12010086456E+03 -0.35012642055E+03 -0.18637787716E+04  0.19024113922E+04  0.92114425852E+02 0.  0.
        254    2    1    2    0    0 -0.12010086456E+03  0.35012642055E+03 -0.11344193948E+03  0.98064014043E+03  0.90098461883E+03 0.  0.
         23    2    4    4    0    0  0.11183261083E+03 -0.21093551998E+03  0.16715824853E+03  0.30568832085E+03  0.92212488381E+02 0.  0.
         23    2    4    4    0    0 -0.23193347539E+03  0.56106194053E+03 -0.28060018801E+03  0.67495181959E+03  0.90773647798E+02 0.  0.
          1    1    3    3  502    0  0.13169310966E+03 -0.33253797655E+03 -0.16951262905E+04  0.17324484760E+04  0.00000000000E+00 0. -1.
         -1    1    3    3    0  502 -0.11592245103E+02 -0.17588443999E+02 -0.16865248108E+03  0.16996291620E+03  0.00000000000E+00 0.  1.
         13    1    5    5    0    0  0.12320455799E+03 -0.18733357845E+03  0.16685387949E+03  0.27948783484E+03  0.00000000000E+00 0. -1.
        -13    1    5    5    0    0 -0.11371947153E+02 -0.23601941533E+02  0.30436903425E+00  0.26200486001E+02  0.00000000000E+00 0.  1.
          4    1    6    6  503    0 -0.73531253611E+02  0.15076452023E+03 -0.35503316794E+02  0.17145632482E+03  0.00000000000E+00 0.  1.
         -4    1    6    6    0  503 -0.15840222178E+03  0.41029742030E+03 -0.24509687122E+03  0.50349549476E+03  0.00000000000E+00 0. -1.
<mgrwt>
<rscale>  0 0.20982336E+04</rscale>
<asrwt>0</asrwt>
<pdfrwt beam="1">  1        2 0.37386710E+00 0.20982336E+04</pdfrwt>
<pdfrwt beam="2">  1       -2 0.69679294E-01 0.20982336E+04</pdfrwt>
<totfact> 0.66124575E+00</totfact>
</mgrwt>
</event>
<event>
12    3  0.4688899E-008  0.1766122E+04  0.7818608E-02  0.8724526E-01
          1   -1    0    0  501    0  0.00000000000E+00  0.00000000000E+00  0.44156342058E+03  0.44156342058E+03  0.00000000000E+00 0.  1.
         -1   -1    0    0    0  501 -0.00000000000E+00 -0.00000000000E+00 -0.17659902536E+04  0.17659902536E+04  0.00000000000E+00 0. -1.
         23    2    1    2    0    0 -0.40769678516E+03 -0.24044909946E+02 -0.11272564673E+04  0.12018465720E+04  0.83265919489E+02 0.  0.
        254    2    1    2    0    0  0.40769678516E+03  0.24044909946E+02 -0.19717036577E+03  0.10057071022E+04  0.89765015230E+03 0.  0.
         23    2    4    4    0    0 -0.12221291696E+03  0.30295510942E+03  0.66191011613E+02  0.34540018018E+03  0.90566213671E+02 0.  0.
         23    2    4    4    0    0  0.52990970212E+03 -0.27891019947E+03 -0.26336137738E+03  0.66030692200E+03  0.89726386187E+02 0.  0.
          2    1    3    3  502    0 -0.32172356411E+03 -0.13714071731E+02 -0.97359482605E+03  0.10254662417E+04  0.00000000000E+00 0. -1.
         -2    1    3    3    0  502 -0.85973221052E+02 -0.10330838216E+02 -0.15366164121E+03  0.17638033036E+03  0.00000000000E+00 0.  1.
         13    1    5    5    0    0 -0.10339542879E+03  0.18350339905E+03  0.76374673740E+02  0.22404732300E+03  0.00000000000E+00 0. -1.
        -13    1    5    5    0    0 -0.18817488169E+02  0.11945171037E+03 -0.10183662127E+02  0.12135285718E+03  0.00000000000E+00 0.  1.
          1    1    6    6  503    0  0.46598659374E+03 -0.21562730494E+03 -0.20379692439E+03  0.55242359342E+03  0.00000000000E+00 0. -1.
         -1    1    6    6    0  503  0.63923108380E+02 -0.63282894529E+02 -0.59564452988E+02  0.10788332858E+03  0.00000000000E+00 0.  1.
<mgrwt>
<rscale>  0 0.17661220E+04</rscale>
<asrwt>0</asrwt>
<pdfrwt beam="1">  1        1 0.67932833E-01 0.17661220E+04</pdfrwt>
<pdfrwt beam="2">  1       -1 0.27169081E+00 0.17661220E+04</pdfrwt>
<totfact> 0.25060235E+00</totfact>
</mgrwt>
</event>
<event>
12    3  0.4688899E-008  0.1556393E+04  0.7818608E-02  0.8847795E-01
         -2   -1    0    0    0  501 -0.00000000000E+00  0.00000000000E+00  0.34510102690E+03  0.34510102690E+03  0.00000000000E+00 0.  1.
          2   -1    0    0  501    0  0.00000000000E+00 -0.00000000000E+00 -0.17548185339E+04  0.17548185339E+04  0.00000000000E+00 0. -1.
         23    2    1    2    0    0 -0.56467011165E+03 -0.84395452663E+02 -0.72431310535E+03  0.92679227893E+03  0.91321006760E+02 0.  0.
        254    2    1    2    0    0  0.56467011165E+03  0.84395452663E+02 -0.68540440168E+03  0.11731272819E+04  0.76188811401E+03 0.  0.
         23    2    4    4    0    0 -0.90331485238E+02 -0.10794969259E+03  0.41723884514E+02  0.17152366857E+03  0.88693703182E+02 0.  0.
         23    2    4    4    0    0  0.65500159689E+03  0.19234514526E+03 -0.72712828620E+03  0.10016036133E+04  0.92035356351E+02 0.  0.
          1    1    3    3  502    0 -0.51391393415E+03 -0.82344316310E+02 -0.61108225126E+03  0.80268900325E+03  0.00000000000E+00 0. -1.
         -1    1    3    3    0  502 -0.50756177507E+02 -0.20511363527E+01 -0.11323085409E+03  0.12410327568E+03  0.00000000000E+00 0.  1.
         13    1    5    5    0    0  0.89321927118E+00  0.13746477690E+02  0.72785276863E+01  0.15580130128E+02  0.00000000000E+00 0. -1.
        -13    1    5    5    0    0 -0.91224704510E+02 -0.12169617028E+03  0.34445356828E+02  0.15594353844E+03  0.00000000000E+00 0.  1.
          1    1    6    6  503    0  0.97978659539E+02  0.61017943473E+02 -0.10150187831E+03  0.15370633836E+03  0.00000000000E+00 0. -1.
         -1    1    6    6    0  503  0.55702293735E+03  0.13132720178E+03 -0.62562640788E+03  0.84789727497E+03  0.00000000000E+00 0.  1.
<mgrwt>
<rscale>  0 0.15563929E+04</rscale>
<asrwt>0</asrwt>
<pdfrwt beam="1">  1        2 0.26997208E+00 0.15563929E+04</pdfrwt>
<pdfrwt beam="2">  1       -2 0.53092467E-01 0.15563929E+04</pdfrwt>
<totfact> 0.29420388E+01</totfact>
</mgrwt>
</event>
<event>
12    3  0.4688899E-008  0.1299159E+04  0.7818608E-02  0.9030232E-01
          3   -1    0    0  501    0  0.00000000000E+00  0.00000000000E+00  0.19888294863E+04  0.19888294863E+04  0.00000000000E+00 0. -1.
         -3   -1    0    0    0  501 -0.00000000000E+00 -0.00000000000E+00 -0.21216187144E+03  0.21216187144E+03  0.00000000000E+00 0.  1.
         23    2    1    2    0    0  0.82695711816E+02  0.67319126306E+02  0.99086227109E+03  0.10006940273E+04  0.90609329181E+02 0.  0.
        254    2    1    2    0    0 -0.82695711816E+02 -0.67319126306E+02  0.78580534373E+03  0.12002973304E+04  0.90102896599E+03 0.  0.
         23    2    4    4    0    0 -0.38010606281E+03  0.24851204495E+03  0.39216722416E+03  0.60711807571E+03  0.92511462443E+02 0.  0.
         23    2    4    4    0    0  0.29741035099E+03 -0.31583117126E+03  0.39363811957E+03  0.59317925467E+03  0.93318880055E+02 0.  0.
          3    1    3    3  502    0  0.85794491353E+02  0.36446658278E+02  0.48471833440E+03  0.49359995680E+03  0.00000000000E+00 0. -1.
         -3    1    3    3    0  502 -0.30987795370E+01  0.30872468028E+02  0.50614393669E+03  0.50709407052E+03  0.00000000000E+00 0.  1.
         13    1    5    5    0    0 -0.11882057895E+03  0.32407594602E+02  0.85440911978E+02  0.14989573579E+03  0.00000000000E+00 0.  1.
        -13    1    5    5    0    0 -0.26128548386E+03  0.21610445035E+03  0.30672631218E+03  0.45722233992E+03  0.00000000000E+00 0. -1.
          3    1    6    6  503    0  0.22558167124E+03 -0.17506581860E+03  0.24548675804E+03  0.37656192003E+03  0.00000000000E+00 0. -1.
         -3    1    6    6    0  503  0.71828679751E+02 -0.14076535266E+03  0.14815136153E+03  0.21661733464E+03  0.00000000000E+00 0.  1.
<mgrwt>
<rscale>  0 0.12991594E+04</rscale>
<asrwt>0</asrwt>
<pdfrwt beam="1">  1        3 0.30597376E+00 0.12991594E+04</pdfrwt>
<pdfrwt beam="2">  1       -3 0.32640289E-01 0.12991594E+04</pdfrwt>
<totfact> 0.85784552E-01</totfact>
</mgrwt>
</event>
<event>
12    3  0.4688899E-008  0.1283555E+04  0.7818608E-02  0.9042709E-01
          2   -1    0    0  501    0  0.00000000000E+00  0.00000000000E+00  0.40142075156E+03  0.40142075156E+03  0.00000000000E+00 0. -1.
         -2   -1    0    0    0  501 -0.00000000000E+00 -0.00000000000E+00 -0.10260516731E+04  0.10260516731E+04  0.00000000000E+00 0.  1.
         23    2    1    2    0    0 -0.21460337201E+03  0.21043886057E+03 -0.16408449164E+03  0.35426912436E+03  0.90795213303E+02 0.  0.
        254    2    1    2    0    0  0.21460337201E+03 -0.21043886057E+03 -0.46054642987E+03  0.10732033003E+04  0.92158731998E+03 0.  0.
         23    2    4    4    0    0 -0.21410343234E+03 -0.31532799782E+03  0.47401598902E+02  0.39403624600E+03  0.88009236079E+02 0.  0.
         23    2    4    4    0    0  0.42870680435E+03  0.10488913725E+03 -0.50794802877E+03  0.67916705428E+03  0.92007784925E+02 0.  0.
          3    1    3    3  502    0 -0.15884287776E+03  0.11401253140E+03 -0.67529895493E+02  0.20685793172E+03  0.00000000000E+00 0. -1.
         -3    1    3    3    0  502 -0.55760494253E+02  0.96426329175E+02 -0.96554596151E+02  0.14741119264E+03  0.00000000000E+00 0.  1.
         13    1    5    5    0    0 -0.10216753983E+03 -0.93756288627E+02 -0.10724378178E+02  0.13908076840E+03  0.00000000000E+00 0. -1.
        -13    1    5    5    0    0 -0.11193589251E+03 -0.22157170919E+03  0.58125977081E+02  0.25495547760E+03  0.00000000000E+00 0.  1.
          1    1    6    6  503    0  0.20189149933E+02 -0.93852754408E+01 -0.83668803951E+01  0.23784235486E+02  0.00000000000E+00 0. -1.
         -1    1    6    6    0  503  0.40851765441E+03  0.11427441269E+03 -0.49958114837E+03  0.65538281880E+03  0.00000000000E+00 0.  1.
<mgrwt>
<rscale>  0 0.12835551E+04</rscale>
<asrwt>0</asrwt>
<pdfrwt beam="1">  1        2 0.61757039E-01 0.12835551E+04</pdfrwt>
<pdfrwt beam="2">  1       -2 0.15785410E+00 0.12835551E+04</pdfrwt>
<totfact> 0.20285805E+01</totfact>
</mgrwt>
</event>
<event>
12    3  0.4688899E-008  0.2356764E+04  0.7818608E-02  0.8455870E-01
         -2   -1    0    0    0  501 -0.00000000000E+00  0.00000000000E+00  0.52323018131E+03  0.52323018131E+03  0.00000000000E+00 0.  1.
          2   -1    0    0  501    0  0.00000000000E+00 -0.00000000000E+00 -0.26538684169E+04  0.26538684169E+04  0.00000000000E+00 0. -1.
         23    2    1    2    0    0 -0.33488384486E+03 -0.25154202373E+03 -0.21572372101E+04  0.21996182341E+04  0.96059440772E+02 0.  0.
        254    2    1    2    0    0  0.33488384486E+03  0.25154202373E+03  0.26598974442E+02  0.97748036412E+03  0.88280223015E+03 0.  0.
         23    2    4    4    0    0 -0.28441193372E+02 -0.78287567074E+02  0.35756758559E+03  0.37858107015E+03  0.92364515759E+02 0.  0.
         23    2    4    4    0    0  0.36332503823E+03  0.32982959080E+03 -0.33096861115E+03  0.59889929397E+03  0.91364656097E+02 0.  0.
          1    1    3    3  502    0 -0.32003028886E+03 -0.20446283488E+03 -0.19431114720E+04  0.19798754075E+04  0.00000000000E+00 0. -1.
         -1    1    3    3    0  502 -0.14853555998E+02 -0.47079188850E+02 -0.21412573811E+03  0.21974282666E+03  0.00000000000E+00 0.  1.
         13    1    5    5    0    0 -0.55621181569E+02 -0.76666072865E+02  0.24263361739E+03  0.26046588040E+03  0.00000000000E+00 0.  1.
        -13    1    5    5    0    0  0.27179988196E+02 -0.16214942087E+01  0.11493396820E+03  0.11811518975E+03  0.00000000000E+00 0. -1.
          2    1    6    6  503    0  0.35233573261E+03  0.32032420268E+03 -0.33679096347E+03  0.58324627421E+03  0.00000000000E+00 0.  1.
         -2    1    6    6    0  503  0.10989305614E+02  0.95053881214E+01  0.58223523237E+01  0.15653019766E+02  0.00000000000E+00 0. -1.
<mgrwt>
<rscale>  0 0.23567639E+04</rscale>
<asrwt>0</asrwt>
<pdfrwt beam="1">  1        2 0.40828745E+00 0.23567639E+04</pdfrwt>
<pdfrwt beam="2">  1       -2 0.80496951E-01 0.23567639E+04</pdfrwt>
<totfact> 0.34795991E+00</totfact>
</mgrwt>
</event>
<event>
12    3  0.4688899E-008  0.1642533E+04  0.7818608E-02  0.8794836E-01
          2   -1    0    0  501    0  0.00000000000E+00  0.00000000000E+00  0.92344470614E+03  0.92344470614E+03  0.00000000000E+00 0. -1.
         -2   -1    0    0    0  501 -0.00000000000E+00 -0.00000000000E+00 -0.73039388947E+03  0.73039388947E+03  0.00000000000E+00 0.  1.
         23    2    1    2    0    0 -0.50172905755E+03 -0.26339360904E+03 -0.25334428111E+01  0.57352073795E+03  0.88382000687E+02 0.  0.
        254    2    1    2    0    0  0.50172905755E+03  0.26339360904E+03  0.19558425949E+03  0.10803178577E+04  0.89873535067E+03 0.  0.
         23    2    4    4    0    0  0.28879311217E+02 -0.55297309148E+02 -0.29984509271E+03  0.31944649327E+03  0.90813960530E+02 0.  0.
         23    2    4    4    0    0  0.47284974634E+03  0.31869091819E+03  0.49542935219E+03  0.76087136439E+03  0.91237087806E+02 0.  0.
          1    1    3    3  502    0 -0.20330867010E+03 -0.95187666647E+02  0.41009340236E+02  0.22820357842E+03  0.00000000000E+00 0. -1.
         -1    1    3    3    0  502 -0.29842038746E+03 -0.16820594239E+03 -0.43542783047E+02  0.34531715952E+03  0.00000000000E+00 0.  1.
         13    1    5    5    0    0  0.25802719661E+02  0.16100305848E+02 -0.15470960128E+03  0.15767073578E+03  0.00000000000E+00 0.  1.
        -13    1    5    5    0    0  0.30765915553E+01 -0.71397614997E+02 -0.14513549142E+03  0.16177575749E+03  0.00000000000E+00 0. -1.
          2    1    6    6  503    0  0.39737266048E+03  0.22473773985E+03  0.37972354202E+03  0.59380304090E+03  0.00000000000E+00 0. -1.
         -2    1    6    6    0  503  0.75477085857E+02  0.93953178334E+02  0.11570581017E+03  0.16706832349E+03  0.00000000000E+00 0.  1.
<mgrwt>
<rscale>  0 0.16425326E+04</rscale>
<asrwt>0</asrwt>
<pdfrwt beam="1">  1        2 0.14206842E+00 0.16425326E+04</pdfrwt>
<pdfrwt beam="2">  1       -2 0.11236829E+00 0.16425326E+04</pdfrwt>
<totfact> 0.16862603E+01</totfact>
</mgrwt>
</event>
<event>
12    3  0.4688899E-008  0.1166919E+04  0.7818608E-02  0.9142315E-01
          2   -1    0    0  501    0  0.00000000000E+00  0.00000000000E+00  0.13359659173E+04  0.13359659173E+04  0.00000000000E+00 0.  1.
         -2   -1    0    0    0  501 -0.00000000000E+00 -0.00000000000E+00 -0.25481565179E+03  0.25481565179E+03  0.00000000000E+00 0. -1.
         23    2    1    2    0    0  0.94047451372E+01  0.18055084836E+03  0.11135028929E+03  0.23126757306E+03  0.91644668957E+02 0.  0.
        254    2    1    2    0    0 -0.94047451372E+01 -0.18055084836E+03  0.96979997617E+03  0.13595139960E+04  0.93545670847E+03 0.  0.
         23    2    4    4    0    0 -0.87495806628E+01 -0.54422537443E+03  0.72604310292E+03  0.91197829583E+03  0.91148293651E+02 0.  0.
         23    2    4    4    0    0 -0.65516447443E+00  0.36367452607E+03  0.24375687325E+03  0.44753570015E+03  0.92796548940E+02 0.  0.
          2    1    3    3  502    0 -0.22472298353E+02  0.81981514617E+02  0.87359475508E+01  0.85453435927E+02  0.00000000000E+00 0. -1.
         -2    1    3    3    0  502  0.31877043491E+02  0.98569333742E+02  0.10261434174E+03  0.14581413713E+03  0.00000000000E+00 0.  1.
         13    1    5    5    0    0  0.12699316161E+02 -0.51643800979E+03  0.68530359772E+03  0.85820190610E+03  0.00000000000E+00 0.  1.
        -13    1    5    5    0    0 -0.21448896824E+02 -0.27787364646E+02  0.40739505194E+02  0.53776389730E+02  0.00000000000E+00 0. -1.
          2    1    6    6  503    0 -0.38673906308E+02  0.98266700040E+02  0.50684261927E+02  0.11713628717E+03  0.00000000000E+00 0. -1.
         -2    1    6    6    0  503  0.38018741833E+02  0.26540782604E+03  0.19307261133E+03  0.33039941298E+03  0.00000000000E+00 0.  1.
<mgrwt>
<rscale>  0 0.11669191E+04</rscale>
<asrwt>0</asrwt>
<pdfrwt beam="1">  1        2 0.20553321E+00 0.11669191E+04</pdfrwt>
<pdfrwt beam="2">  1       -2 0.39202409E-01 0.11669191E+04</pdfrwt>
<totfact> 0.95768512E+01</totfact>
</mgrwt>
</event>
<event>
12    3  0.4688899E-008  0.1070117E+04  0.7818608E-02  0.9234817E-01
          1   -1    0    0  501    0  0.00000000000E+00  0.00000000000E+00  0.10959763818E+04  0.10959763818E+04  0.00000000000E+00 0. -1.
         -1   -1    0    0    0  501 -0.00000000000E+00 -0.00000000000E+00 -0.26121711916E+03  0.26121711916E+03  0.00000000000E+00 0.  1.
         23    2    1    2    0    0 -0.59265706844E+02 -0.65591163679E+02  0.20979820867E+03  0.24527042021E+03  0.91256045881E+02 0.  0.
        254    2    1    2    0    0  0.59265706844E+02  0.65591163679E+02  0.62496105393E+03  0.11119230807E+04  0.91541356432E+03 0.  0.
         23    2    4    4    0    0 -0.23510696681E+03  0.20113014265E+03 -0.78266448547E+02  0.33246756501E+03  0.93168796760E+02 0.  0.
         23    2    4    4    0    0  0.29437267365E+03 -0.13553897898E+03  0.70322750248E+03  0.77945551571E+03  0.89419767999E+02 0.  0.
          2    1    3    3  502    0 -0.30881997625E+02  0.11957459543E+02  0.11439127881E+03  0.11908838434E+03  0.00000000000E+00 0.  1.
         -2    1    3    3    0  502 -0.28383709219E+02 -0.77548623222E+02  0.95406929859E+02  0.12618203588E+03  0.00000000000E+00 0. -1.
         13    1    5    5    0    0 -0.68658051951E+02  0.45897609693E+02  0.19338576235E+02  0.84820393798E+02  0.00000000000E+00 0. -1.
        -13    1    5    5    0    0 -0.16644891486E+03  0.15523253296E+03 -0.97605024782E+02  0.24764717121E+03  0.00000000000E+00 0.  1.
          3    1    6    6  503    0  0.15770691254E+03 -0.76812526288E+02  0.27555490827E+03  0.32665293803E+03  0.00000000000E+00 0. -1.
         -3    1    6    6    0  503  0.13666576111E+03 -0.58726452687E+02  0.42767259422E+03  0.45280257767E+03  0.00000000000E+00 0.  1.
<mgrwt>
<rscale>  0 0.10701174E+04</rscale>
<asrwt>0</asrwt>
<pdfrwt beam="1">  1        1 0.16861175E+00 0.10701174E+04</pdfrwt>
<pdfrwt beam="2">  1       -1 0.40187249E-01 0.10701174E+04</pdfrwt>
<totfact> 0.76918456E+01</totfact>
</mgrwt>
</event>
<event>
12    3  0.4688899E-008  0.1574527E+04  0.7818608E-02  0.8836352E-01
          1   -1    0    0  501    0  0.00000000000E+00  0.00000000000E+00  0.27056304283E+04  0.27056304283E+04  0.00000000000E+00 0. -1.
         -1   -1    0    0    0  501 -0.00000000000E+00 -0.00000000000E+00 -0.22907187450E+03  0.22907187450E+03  0.00000000000E+00 0.  1.
         23    2    1    2    0    0 -0.20376396280E+03 -0.13182989599E+03  0.17011337467E+04  0.17211601158E+04  0.98169476501E+02 0.  0.
        254    2    1    2    0    0  0.20376396280E+03  0.13182989599E+03  0.77542480708E+03  0.12135421870E+04  0.90138900265E+03 0.  0.
         23    2    4    4    0    0  0.52507585464E+03 -0.73628096142E+02  0.49977491729E+03  0.73424381331E+03  0.90627036622E+02 0.  0.
         23    2    4    4    0    0 -0.32131189184E+03  0.20545799214E+03  0.27564988979E+03  0.47929837366E+03  0.91048069060E+02 0.  0.
          1    1    3    3  502    0 -0.56140350481E+02 -0.92525924142E+02  0.77263300666E+03  0.78017597283E+03  0.00000000000E+00 0. -1.
         -1    1    3    3    0  502 -0.14762361232E+03 -0.39303971852E+02  0.92850074004E+03  0.94098414300E+03  0.00000000000E+00 0.  1.
         13    1    5    5    0    0  0.43702548971E+02 -0.26438094697E+02  0.73648706200E+02  0.89627102836E+02  0.00000000000E+00 0.  1.
        -13    1    5    5    0    0  0.48137330566E+03 -0.47190001445E+02  0.42612621109E+03  0.64461671047E+03  0.00000000000E+00 0. -1.
          3    1    6    6  503    0 -0.29676598516E+03  0.17140213979E+03  0.21176887307E+03  0.40285828659E+03  0.00000000000E+00 0. -1.
         -3    1    6    6    0  503 -0.24545906678E+02  0.34055852349E+02  0.63881016719E+02  0.76440087068E+02  0.00000000000E+00 0.  1.
<mgrwt>
<rscale>  0 0.15745270E+04</rscale>
<asrwt>0</asrwt>
<pdfrwt beam="1">  1        1 0.41625081E+00 0.15745270E+04</pdfrwt>
<pdfrwt beam="2">  1       -1 0.35241829E-01 0.15745270E+04</pdfrwt>
<totfact> 0.71897982E+00</totfact>
</mgrwt>
</event>
<event>
12    3  0.4688899E-008  0.1675544E+04  0.7818608E-02  0.8775437E-01
         -2   -1    0    0    0  501 -0.00000000000E+00  0.00000000000E+00  0.25682525784E+03  0.25682525784E+03  0.00000000000E+00 0.  1.
          2   -1    0    0  501    0  0.00000000000E+00 -0.00000000000E+00 -0.27328383356E+04  0.27328383356E+04  0.00000000000E+00 0. -1.
         23    2    1    2    0    0  0.45688321325E+02 -0.25947618957E+03  0.58807106448E+02  0.28499247507E+03  0.91362571221E+02 0.  0.
        254    2    1    2    0    0 -0.45688321325E+02  0.25947618957E+03 -0.25348201843E+04  0.27046711184E+04  0.90582403185E+03 0.  0.
         23    2    4    4    0    0 -0.40969042660E+03  0.47687866115E+02 -0.18250613521E+04  0.18734302273E+04  0.93656283415E+02 0.  0.
         23    2    4    4    0    0  0.36400210528E+03  0.21178832345E+03 -0.70975883220E+03  0.83124089116E+03  0.99257204601E+02 0.  0.
          2    1    3    3  502    0  0.58966324162E+02 -0.12714965560E+03  0.58824938011E+02  0.15200143301E+03  0.00000000000E+00 0. -1.
         -2    1    3    3    0  502 -0.13278002837E+02 -0.13232653396E+03 -0.17831563436E-01  0.13299104206E+03  0.00000000000E+00 0.  1.
         13    1    5    5    0    0 -0.33752610762E+03  0.61454495488E+02 -0.16106203786E+04  0.16467539380E+04  0.00000000000E+00 0.  1.
        -13    1    5    5    0    0 -0.72164318985E+02 -0.13766629373E+02 -0.21444097345E+03  0.22667628926E+03  0.00000000000E+00 0. -1.
          3    1    6    6  503    0  0.46911219566E+02  0.27709274376E+02 -0.17168292050E+03  0.18012076948E+03  0.00000000000E+00 0. -1.
         -3    1    6    6    0  503  0.31709088571E+03  0.18407904908E+03 -0.53807591169E+03  0.65112012168E+03  0.00000000000E+00 0.  1.
<mgrwt>
<rscale>  0 0.16755440E+04</rscale>
<asrwt>0</asrwt>
<pdfrwt beam="1">  1        2 0.42043669E+00 0.16755440E+04</pdfrwt>
<pdfrwt beam="2">  1       -2 0.39511576E-01 0.16755440E+04</pdfrwt>
<totfact> 0.14705323E+01</totfact>
</mgrwt>
</event>
<event>
12    3  0.4688899E-008  0.1467860E+04  0.7818608E-02  0.8906111E-01
         -1   -1    0    0    0  501 -0.00000000000E+00  0.00000000000E+00  0.32335256104E+03  0.32335256104E+03  0.00000000000E+00 0.  1.
          1   -1    0    0  501    0  0.00000000000E+00 -0.00000000000E+00 -0.16658398571E+04  0.16658398571E+04  0.00000000000E+00 0. -1.
         23    2    1    2    0    0  0.12050135960E+02  0.76303690071E+02  0.18286086000E+03  0.21772752239E+03  0.89441159372E+02 0.  0.
        254    2    1    2    0    0 -0.12050135960E+02 -0.76303690071E+02 -0.15253481561E+04  0.17714648958E+04  0.89745942571E+03 0.  0.
         23    2    4    4    0    0  0.33408857077E+03 -0.12550071786E+03 -0.24853343583E+03  0.44442478361E+03  0.91536420409E+02 0.  0.
         23    2    4    4    0    0 -0.34613870673E+03  0.49197027786E+02 -0.12768147202E+04  0.13270401122E+04  0.92451487794E+02 0.  0.
          2    1    3    3  502    0  0.25363899856E+02 -0.11692560616E+02  0.31136452416E+02  0.41827288446E+02  0.00000000000E+00 0. -1.
         -2    1    3    3    0  502 -0.13313763896E+02  0.87996250686E+02  0.15172440759E+03  0.17590023395E+03  0.00000000000E+00 0.  1.
         13    1    5    5    0    0  0.11703667612E+03 -0.29535922794E+02 -0.13579690966E+03  0.18168862090E+03  0.00000000000E+00 0. -1.
        -13    1    5    5    0    0  0.21705189465E+03 -0.95964795062E+02 -0.11273652617E+03  0.26273616271E+03  0.00000000000E+00 0.  1.
          1    1    6    6  503    0 -0.74101451116E+01  0.14409090771E+02 -0.25415298272E+02  0.30140828351E+02  0.00000000000E+00 0. -1.
         -1    1    6    6    0  503 -0.33872856162E+03  0.34787937014E+02 -0.12513994220E+04  0.12968992838E+04  0.00000000000E+00 0.  1.
<mgrwt>
<rscale>  0 0.14678605E+04</rscale>
<asrwt>0</asrwt>
<pdfrwt beam="1">  1        1 0.25628306E+00 0.14678605E+04</pdfrwt>
<pdfrwt beam="2">  1       -1 0.49746547E-01 0.14678605E+04</pdfrwt>
<totfact> 0.19769620E+01</totfact>
</mgrwt>
</event>
<event>
12    3  0.5339788E-008  0.1450649E+04  0.7818608E-02  0.8917951E-01
          2   -1    0    0  501    0  0.00000000000E+00  0.00000000000E+00  0.22359348134E+04  0.22359348134E+04  0.00000000000E+00 0. -1.
         -2   -1    0    0    0  501 -0.00000000000E+00 -0.00000000000E+00 -0.23529099518E+03  0.23529099518E+03  0.00000000000E+00 0.  1.
         23    2    1    2    0    0  0.13279445296E+03 -0.19569872094E+03  0.12441633270E+04  0.12699536231E+04  0.94379364608E+02 0.  0.
        254    2    1    2    0    0 -0.13279445296E+03  0.19569872094E+03  0.75648049115E+03  0.12012721854E+04  0.90269583682E+03 0.  0.
         23    2    4    4    0    0  0.28662921225E+03 -0.13333205898E+03  0.50972659614E+03  0.60677929193E+03  0.91794133970E+02 0.  0.
         23    2    4    4    0    0 -0.41942366521E+03  0.32903077991E+03  0.24675389501E+03  0.59449289347E+03  0.91415811655E+02 0.  0.
          1    1    3    3  502    0  0.85998965071E+02 -0.68715855748E+02  0.73116298124E+03  0.73940313494E+03  0.00000000000E+00 0. -1.
         -1    1    3    3    0  502  0.46795487884E+02 -0.12698286519E+03  0.51300034579E+03  0.53055048819E+03  0.00000000000E+00 0.  1.
         13    1    5    5    0    0  0.25693957723E+02 -0.44456088491E+02  0.10784389541E+03  0.11944383217E+03  0.00000000000E+00 0.  1.
        -13    1    5    5    0    0  0.26093525453E+03 -0.88875970489E+02  0.40188270074E+03  0.48733545976E+03  0.00000000000E+00 0. -1.
          4    1    6    6  503    0 -0.37875892342E+03  0.25708781324E+03  0.21765874769E+03  0.50688045556E+03  0.00000000000E+00 0. -1.
         -4    1    6    6    0  503 -0.40664741789E+02  0.71942966679E+02  0.29095147314E+02  0.87612437910E+02  0.00000000000E+00 0.  1.
<mgrwt>
<rscale>  0 0.14506486E+04</rscale>
<asrwt>0</asrwt>
<pdfrwt beam="1">  1        2 0.34398996E+00 0.14506486E+04</pdfrwt>
<pdfrwt beam="2">  1       -2 0.36198616E-01 0.14506486E+04</pdfrwt>
<totfact> 0.34370787E+01</totfact>
</mgrwt>
</event>
<event>
12    3  0.4688899E-008  0.2509734E+04  0.7818608E-02  0.8399526E-01
         -2   -1    0    0    0  501 -0.00000000000E+00  0.00000000000E+00  0.16476453108E+04  0.16476453108E+04  0.00000000000E+00 0.  1.
          2   -1    0    0  501    0  0.00000000000E+00 -0.00000000000E+00 -0.95572198388E+03  0.95572198388E+03  0.00000000000E+00 0. -1.
         23    2    1    2    0    0 -0.23083807445E+03  0.80530155289E+03  0.10322336617E+04  0.13322379628E+04  0.86918636932E+02 0.  0.
        254    2    1    2    0    0  0.23083807445E+03 -0.80530155289E+03 -0.34031033481E+03  0.12711293319E+04  0.89339904109E+03 0.  0.
         23    2    4    4    0    0  0.27230031683E+03 -0.95999013189E+03 -0.39768483356E+03  0.10786201898E+04  0.97671751864E+02 0.  0.
         23    2    4    4    0    0 -0.41462242381E+02  0.15468857900E+03  0.57374498748E+02  0.19250914207E+03  0.90112500005E+02 0.  0.
          1    1    3    3  502    0 -0.70592308344E+02  0.23755761288E+03  0.37029575385E+03  0.44557360644E+03  0.00000000000E+00 0. -1.
         -1    1    3    3    0  502 -0.16024576610E+03  0.56774394002E+03  0.66193790784E+03  0.88666435635E+03  0.00000000000E+00 0.  1.
         13    1    5    5    0    0  0.23450445098E+03 -0.66584098945E+03 -0.27197778023E+03  0.75651072279E+03  0.00000000000E+00 0.  1.
        -13    1    5    5    0    0  0.37795865846E+02 -0.29414914244E+03 -0.12570705333E+03  0.32210946700E+03  0.00000000000E+00 0. -1.
          2    1    6    6  503    0 -0.15995828714E+02  0.16274301078E+02 -0.21350052625E+02  0.31249706541E+02  0.00000000000E+00 0. -1.
         -2    1    6    6    0  503 -0.25466413667E+02  0.13841427792E+03  0.78724551373E+02  0.16125943552E+03  0.00000000000E+00 0.  1.
<mgrwt>
<rscale>  0 0.25097337E+04</rscale>
<asrwt>0</asrwt>
<pdfrwt beam="1">  1        2 0.14703415E+00 0.25097337E+04</pdfrwt>
<pdfrwt beam="2">  1       -2 0.25348389E+00 0.25097337E+04</pdfrwt>
<totfact> 0.14670389E+00</totfact>
</mgrwt>
</event>
<event>
12    3  0.4688899E-008  0.1210325E+04  0.7818608E-02  0.9103867E-01
         -2   -1    0    0    0  501 -0.00000000000E+00  0.00000000000E+00  0.24111118552E+03  0.24111118552E+03  0.00000000000E+00 0.  1.
          2   -1    0    0  501    0  0.00000000000E+00 -0.00000000000E+00 -0.15188918025E+04  0.15188918025E+04  0.00000000000E+00 0. -1.
         23    2    1    2    0    0 -0.25457994244E+03 -0.75338899692E+02 -0.29507270744E+03  0.40741532684E+03  0.91828366941E+02 0.  0.
        254    2    1    2    0    0  0.25457994244E+03  0.75338899692E+02 -0.98270790951E+03  0.13525876611E+04  0.89066921399E+03 0.  0.
         23    2    4    4    0    0  0.50410300056E+03  0.18779354770E+03 -0.32652565644E+03  0.63576432296E+03  0.90504244660E+02 0.  0.
         23    2    4    4    0    0 -0.24952305813E+03 -0.11245464801E+03 -0.65618225307E+03  0.71682333817E+03  0.91393350475E+02 0.  0.
          3    1    3    3  502    0 -0.14246784595E+03 -0.21523662540E+02 -0.97536403326E+02  0.17399340549E+03  0.00000000000E+00 0. -1.
         -3    1    3    3    0  502 -0.11211209649E+03 -0.53815237152E+02 -0.19753630411E+03  0.23342192136E+03  0.00000000000E+00 0.  1.
         13    1    5    5    0    0  0.34763625645E+02  0.39501637134E+02 -0.41237483510E+02  0.66853713812E+02  0.00000000000E+00 0.  1.
        -13    1    5    5    0    0  0.46933937492E+03  0.14829191057E+03 -0.28528817293E+03  0.56891060915E+03  0.00000000000E+00 0. -1.
          3    1    6    6  503    0 -0.23611492297E+03 -0.74760358178E+02 -0.54414835067E+03  0.59786018060E+03  0.00000000000E+00 0. -1.
         -3    1    6    6    0  503 -0.13408135156E+02 -0.37694289829E+02 -0.11203390240E+03  0.11896315758E+03  0.00000000000E+00 0.  1.
<mgrwt>
<rscale>  0 0.12103253E+04</rscale>
<asrwt>0</asrwt>
<pdfrwt beam="1">  1        2 0.23367566E+00 0.12103253E+04</pdfrwt>
<pdfrwt beam="2">  1       -2 0.37094028E-01 0.12103253E+04</pdfrwt>
<totfact> 0.83618014E+01</totfact>
</mgrwt>
</event>
<event>
12    3  0.4688899E-008  0.1555797E+04  0.7818608E-02  0.8848173E-01
          1   -1    0    0  501    0  0.00000000000E+00  0.00000000000E+00  0.36009504847E+04  0.36009504847E+04  0.00000000000E+00 0. -1.
         -1   -1    0    0    0  501 -0.00000000000E+00 -0.00000000000E+00 -0.16804626945E+03  0.16804626945E+03  0.00000000000E+00 0.  1.
         23    2    1    2    0    0 -0.28474353633E+03 -0.41510547462E+03  0.91487205273E+03  0.10481786149E+04  0.91082925598E+02 0.  0.
        254    2    1    2    0    0  0.28474353633E+03  0.41510547462E+03  0.25180321625E+04  0.27208181392E+04  0.89942978540E+03 0.  0.
         23    2    4    4    0    0  0.33551818753E+03 -0.16354227929E+03  0.58135468172E+03  0.69674647801E+03  0.90354066760E+02 0.  0.
         23    2    4    4    0    0 -0.50774651200E+02  0.57864775390E+03  0.19366774808E+04  0.20240716612E+04  0.93461954430E+02 0.  0.
          1    1    3    3  502    0 -0.38734381889E+02 -0.33420976592E+02  0.51052105064E+02  0.72274694383E+02  0.00000000000E+00 0. -1.
         -1    1    3    3    0  502 -0.24600915444E+03 -0.38168449803E+03  0.86381994767E+03  0.97590392052E+03  0.00000000000E+00 0.  1.
         13    1    5    5    0    0  0.25534489021E+03 -0.15649413667E+03  0.49622198843E+03  0.57959269282E+03  0.00000000000E+00 0.  1.
        -13    1    5    5    0    0  0.80173297314E+02 -0.70481426192E+01  0.85132693293E+02  0.11715378519E+03  0.00000000000E+00 0. -1.
          1    1    6    6  503    0 -0.29115087205E+02  0.36467748973E+03  0.13684405145E+04  0.14164980768E+04  0.00000000000E+00 0. -1.
         -1    1    6    6    0  503 -0.21659563995E+02  0.21397026418E+03  0.56823696629E+03  0.60757358445E+03  0.00000000000E+00 0.  1.
<mgrwt>
<rscale>  0 0.15557973E+04</rscale>
<asrwt>0</asrwt>
<pdfrwt beam="1">  1        1 0.55399232E+00 0.15557973E+04</pdfrwt>
<pdfrwt beam="2">  1       -1 0.25853275E-01 0.15557973E+04</pdfrwt>
<totfact> 0.26750620E+00</totfact>
</mgrwt>
</event>
<event>
12    3  0.4688899E-008  0.1277792E+04  0.7818608E-02  0.9047364E-01
          2   -1    0    0  501    0  0.00000000000E+00  0.00000000000E+00  0.10714647171E+04  0.10714647171E+04  0.00000000000E+00 0. -1.
         -2   -1    0    0    0  501 -0.00000000000E+00 -0.00000000000E+00 -0.38096281366E+03  0.38096281366E+03  0.00000000000E+00 0.  1.
         23    2    1    2    0    0  0.16941174958E+03  0.22999926174E+03  0.31702488119E+03  0.43682369212E+03  0.93328245480E+02 0.  0.
        254    2    1    2    0    0 -0.16941174958E+03 -0.22999926174E+03  0.37347702224E+03  0.10156038386E+04  0.90020334903E+03 0.  0.
         23    2    4    4    0    0 -0.25440626697E+03  0.36250404294E+02 -0.22220892995E+03  0.35137488161E+03  0.89726575698E+02 0.  0.
         23    2    4    4    0    0  0.84994517398E+02 -0.26624966604E+03  0.59568595220E+03  0.66422895703E+03  0.90804190720E+02 0.  0.
          4    1    3    3  502    0 -0.87710262408E+01 -0.71144778635E+00  0.12261577819E+02  0.15092493163E+02  0.00000000000E+00 0. -1.
         -4    1    3    3    0  502  0.17818277582E+03  0.23071070953E+03  0.30476330337E+03  0.42173119896E+03  0.00000000000E+00 0.  1.
         13    1    5    5    0    0 -0.36471052460E+02  0.31010665945E+02 -0.13893913268E+02  0.49848168429E+02  0.00000000000E+00 0. -1.
        -13    1    5    5    0    0 -0.21793521451E+03  0.52397383498E+01 -0.20831501669E+03  0.30152671318E+03  0.00000000000E+00 0.  1.
          4    1    6    6  503    0  0.16347738690E+02 -0.42593066104E+02  0.19478319984E+03  0.20005477445E+03  0.00000000000E+00 0. -1.
         -4    1    6    6    0  503  0.68646778708E+02 -0.22365659993E+03  0.40090275235E+03  0.46417418257E+03  0.00000000000E+00 0.  1.
<mgrwt>
<rscale>  0 0.12777922E+04</rscale>
<asrwt>0</asrwt>
<pdfrwt beam="1">  1        2 0.16484072E+00 0.12777922E+04</pdfrwt>
<pdfrwt beam="2">  1       -2 0.58609664E-01 0.12777922E+04</pdfrwt>
<totfact> 0.60629193E+01</totfact>
</mgrwt>
</event>
<event>
12    3  0.4688899E-008  0.2835786E+04  0.7818608E-02  0.8292244E-01
          1   -1    0    0  501    0  0.00000000000E+00  0.00000000000E+00  0.37423919512E+04  0.37423919512E+04  0.00000000000E+00 0. -1.
         -1   -1    0    0    0  501 -0.00000000000E+00 -0.00000000000E+00 -0.53720209415E+03  0.53720209415E+03  0.00000000000E+00 0.  1.
         23    2    1    2    0    0 -0.84982675293E+03 -0.46808187768E+02  0.28705681490E+04  0.29954401036E+04  0.90018886893E+02 0.  0.
        254    2    1    2    0    0  0.84982675293E+03  0.46808187768E+02  0.33462170800E+03  0.12841539417E+04  0.90148940205E+03 0.  0.
         23    2    4    4    0    0  0.80217820765E+03  0.37754378009E+03  0.20601282653E+03  0.91486849015E+03  0.92270725905E+02 0.  0.
         23    2    4    4    0    0  0.47648545280E+02 -0.33073559233E+03  0.12860888147E+03  0.36928545152E+03  0.90416173410E+02 0.  0.
          1    1    3    3  502    0 -0.71194477238E+03 -0.60226763980E+01  0.23705386236E+04  0.24751474699E+04  0.00000000000E+00 0. -1.
         -1    1    3    3    0  502 -0.13788198055E+03 -0.40785511370E+02  0.50002952540E+03  0.52029263379E+03  0.00000000000E+00 0.  1.
         13    1    5    5    0    0  0.73939546299E+03  0.33304645662E+03  0.21040016829E+03  0.83779103825E+03  0.00000000000E+00 0. -1.
        -13    1    5    5    0    0  0.62782744660E+02  0.44497323475E+02 -0.43873417631E+01  0.77077451898E+02  0.00000000000E+00 0.  1.
          4    1    6    6  503    0  0.30712993686E+02 -0.32432623884E+03  0.13078132501E+03  0.35104779183E+03  0.00000000000E+00 0. -1.
         -4    1    6    6    0  503  0.16935551594E+02 -0.64093534874E+01 -0.21724435419E+01  0.18237659687E+02  0.00000000000E+00 0.  1.
<mgrwt>
<rscale>  0 0.28357862E+04</rscale>
<asrwt>0</asrwt>
<pdfrwt beam="1">  1        1 0.57575259E+00 0.28357862E+04</pdfrwt>
<pdfrwt beam="2">  1       -1 0.82646478E-01 0.28357862E+04</pdfrwt>
<totfact> 0.19984187E-01</totfact>
</mgrwt>
</event>
<event>
12    3  0.4688899E-008  0.1995174E+04  0.7818608E-02  0.8608880E-01
         -1   -1    0    0    0  501 -0.00000000000E+00  0.00000000000E+00  0.39649375033E+03  0.39649375033E+03  0.00000000000E+00 0.  1.
          1   -1    0    0  501    0  0.00000000000E+00 -0.00000000000E+00 -0.25099520752E+04  0.25099520752E+04  0.00000000000E+00 0. -1.
         23    2    1    2    0    0 -0.21823807974E+03 -0.39003261763E+03  0.10593308813E+03  0.46825134073E+03  0.91017562461E+02 0.  0.
        254    2    1    2    0    0  0.21823807974E+03  0.39003261763E+03 -0.22193914130E+04  0.24381944848E+04  0.90517445799E+03 0.  0.
         23    2    4    4    0    0  0.41048318507E+03  0.42849135541E+03 -0.78851508956E+03  0.99104082250E+03  0.91129460245E+02 0.  0.
         23    2    4    4    0    0 -0.19224510532E+03 -0.38458737786E+02 -0.14308763235E+04  0.14471536623E+04  0.91702858676E+02 0.  0.
          4    1    3    3  502    0 -0.53479033323E+02 -0.18617092006E+03  0.53348055237E+02  0.20091200431E+03  0.00000000000E+00 0. -1.
         -4    1    3    3    0  502 -0.16475904642E+03 -0.20386169757E+03  0.52585032891E+02  0.26733933642E+03  0.00000000000E+00 0.  1.
         13    1    5    5    0    0  0.96247072606E+02  0.12225197969E+03 -0.14868173962E+03  0.21520990967E+03  0.00000000000E+00 0.  1.
        -13    1    5    5    0    0  0.31423611246E+03  0.30623937572E+03 -0.63983334994E+03  0.77583091284E+03  0.00000000000E+00 0. -1.
          1    1    6    6  503    0 -0.19857142286E+03 -0.44167343588E+02 -0.14101023142E+04  0.14246999336E+04  0.00000000000E+00 0. -1.
         -1    1    6    6    0  503  0.63263175386E+01  0.57086058025E+01 -0.20774009290E+02  0.22453728772E+02  0.00000000000E+00 0.  1.
<mgrwt>
<rscale>  0 0.19951745E+04</rscale>
<asrwt>0</asrwt>
<pdfrwt beam="1">  1        1 0.38614647E+00 0.19951745E+04</pdfrwt>
<pdfrwt beam="2">  1       -1 0.60999039E-01 0.19951745E+04</pdfrwt>
<totfact> 0.33744218E+00</totfact>
</mgrwt>
</event>
<event>
12    3  0.4688899E-008  0.1604170E+04  0.7818608E-02  0.8817990E-01
         -2   -1    0    0    0  501 -0.00000000000E+00  0.00000000000E+00  0.25056804935E+03  0.25056804935E+03  0.00000000000E+00 0.  1.
          2   -1    0    0  501    0  0.00000000000E+00 -0.00000000000E+00 -0.25675287793E+04  0.25675287793E+04  0.00000000000E+00 0. -1.
         23    2    1    2    0    0  0.10804978104E+03  0.40301035876E+03 -0.13776553386E+04  0.14422416979E+04  0.89636926863E+02 0.  0.
        254    2    1    2    0    0 -0.10804978104E+03 -0.40301035876E+03 -0.93930539133E+03  0.13758551308E+04  0.91465327758E+03 0.  0.
         23    2    4    4    0    0 -0.16154893643E+02 -0.16677024688E+03 -0.10620372514E+04  0.10790556972E+04  0.91459163033E+02 0.  0.
         23    2    4    4    0    0 -0.91894887395E+02 -0.23624011189E+03  0.12273186007E+03  0.29679943354E+03  0.93662871392E+02 0.  0.
          3    1    3    3  502    0  0.11399915167E+03  0.39060721573E+03 -0.12670399165E+04  0.13307741933E+04  0.00000000000E+00 0. -1.
         -3    1    3    3    0  502 -0.59493706339E+01  0.12403143031E+02 -0.11061542211E+03  0.11146750458E+03  0.00000000000E+00 0.  1.
         13    1    5    5    0    0 -0.54067387290E+02 -0.10310005846E+03 -0.61586428133E+03  0.62677086518E+03  0.00000000000E+00 0. -1.
        -13    1    5    5    0    0  0.37912493647E+02 -0.63670188416E+02 -0.44617297007E+03  0.45228483203E+03  0.00000000000E+00 0.  1.
          2    1    6    6  503    0 -0.61760936045E+01 -0.46670282013E+02 -0.12442303083E+02  0.48693636765E+02  0.00000000000E+00 0. -1.
         -2    1    6    6    0  503 -0.85718793791E+02 -0.18956982987E+03  0.13517416315E+03  0.24810579677E+03  0.00000000000E+00 0.  1.
<mgrwt>
<rscale>  0 0.16041704E+04</rscale>
<asrwt>0</asrwt>
<pdfrwt beam="1">  1        2 0.39500439E+00 0.16041704E+04</pdfrwt>
<pdfrwt beam="2">  1       -2 0.38548934E-01 0.16041704E+04</pdfrwt>
<totfact> 0.19425985E+01</totfact>
</mgrwt>
</event>
<event>
12    3  0.4688899E-008  0.1451594E+04  0.7818608E-02  0.8917296E-01
         -2   -1    0    0    0  501 -0.00000000000E+00  0.00000000000E+00  0.35442753761E+03  0.35442753761E+03  0.00000000000E+00 0.  1.
          2   -1    0    0  501    0  0.00000000000E+00 -0.00000000000E+00 -0.14862873405E+04  0.14862873405E+04  0.00000000000E+00 0. -1.
         23    2    1    2    0    0  0.22592017703E+03 -0.30607000396E+03 -0.11864520255E+03  0.40868192783E+03  0.90694323584E+02 0.  0.
        254    2    1    2    0    0 -0.22592017703E+03  0.30607000396E+03 -0.10132146003E+04  0.14320329503E+04  0.93776104132E+03 0.  0.
         23    2    4    4    0    0  0.24640362894E+03 -0.54287130110E+02 -0.18258093389E+02  0.26964551414E+03  0.93346154024E+02 0.  0.
         23    2    4    4    0    0 -0.47232380597E+03  0.36035713407E+03 -0.99495650693E+03  0.11623874361E+04  0.90879366173E+02 0.  0.
          4    1    3    3  502    0  0.79527960409E+01 -0.67262831795E+02 -0.18800812530E+02  0.70292290172E+02  0.00000000000E+00 0. -1.
         -4    1    3    3    0  502  0.21796738099E+03 -0.23880717217E+03 -0.99844390024E+02  0.33838963766E+03  0.00000000000E+00 0.  1.
         13    1    5    5    0    0  0.25796649861E+02  0.15302329796E+02  0.18763227079E+02  0.35379190659E+02  0.00000000000E+00 0.  1.
        -13    1    5    5    0    0  0.22060697908E+03 -0.69589459906E+02 -0.37021320468E+02  0.23426632348E+03  0.00000000000E+00 0. -1.
          1    1    6    6  503    0 -0.45847870178E+03  0.34458560022E+03 -0.91642203398E+03  0.10810972668E+04  0.00000000000E+00 0. -1.
         -1    1    6    6    0  503 -0.13845104194E+02  0.15771533848E+02 -0.78534472949E+02  0.81290169341E+02  0.00000000000E+00 0.  1.
<mgrwt>
<rscale>  0 0.14515938E+04</rscale>
<asrwt>0</asrwt>
<pdfrwt beam="1">  1        2 0.22865959E+00 0.14515938E+04</pdfrwt>
<pdfrwt beam="2">  1       -2 0.54527314E-01 0.14515938E+04</pdfrwt>
<totfact> 0.39655986E+01</totfact>
</mgrwt>
</event>
<event>
12    3  0.4688899E-008  0.1290917E+04  0.7818608E-02  0.9036799E-01
         -2   -1    0    0    0  501 -0.00000000000E+00  0.00000000000E+00  0.53567460579E+03  0.53567460579E+03  0.00000000000E+00 0.  1.
          2   -1    0    0  501    0  0.00000000000E+00 -0.00000000000E+00 -0.77774266369E+03  0.77774266369E+03  0.00000000000E+00 0. -1.
         23    2    1    2    0    0 -0.50389756874E+01 -0.26213138643E+03 -0.23113158788E+03  0.36140068763E+03  0.91926008689E+02 0.  0.
        254    2    1    2    0    0  0.50389756874E+01  0.26213138643E+03 -0.10936470021E+02  0.95201658186E+03  0.91513808288E+03 0.  0.
         23    2    4    4    0    0  0.39989185223E+03  0.27950600380E+03  0.14410722272E+03  0.51771255650E+03  0.96032806255E+02 0.  0.
         23    2    4    4    0    0 -0.39485287654E+03 -0.17374617374E+02 -0.15504369274E+03  0.43430402536E+03  0.91491903153E+02 0.  0.
          4    1    3    3  502    0 -0.56691981322E+01 -0.20102050026E+03 -0.22211130514E+03  0.29962445361E+03  0.00000000000E+00 0. -1.
         -4    1    3    3    0  502  0.63022244475E+00 -0.61110886164E+02 -0.90202827469E+01  0.61776234014E+02  0.00000000000E+00 0.  1.
         13    1    5    5    0    0  0.37573005155E+03  0.28262723922E+03  0.12430076413E+03  0.48631461828E+03  0.00000000000E+00 0.  1.
        -13    1    5    5    0    0  0.24161800685E+02 -0.31212354247E+01  0.19806458586E+02  0.31397938223E+02  0.00000000000E+00 0. -1.
          3    1    6    6  503    0 -0.14059995254E+03  0.11255224997E+02 -0.99146496694E+02  0.17240955470E+03  0.00000000000E+00 0. -1.
         -3    1    6    6    0  503 -0.25425292400E+03 -0.28629842370E+02 -0.55897196042E+02  0.26189447066E+03  0.00000000000E+00 0.  1.
<mgrwt>
<rscale>  0 0.12909175E+04</rscale>
<asrwt>0</asrwt>
<pdfrwt beam="1">  1        2 0.11965272E+00 0.12909175E+04</pdfrwt>
<pdfrwt beam="2">  1       -2 0.82411478E-01 0.12909175E+04</pdfrwt>
<totfact> 0.45353904E+01</totfact>
</mgrwt>
</event>
<event>
12    3  0.4688899E-008  0.1422139E+04  0.7818608E-02  0.8937947E-01
         -2   -1    0    0    0  501 -0.00000000000E+00  0.00000000000E+00  0.65675414840E+03  0.65675414840E+03  0.00000000000E+00 0.  1.
          2   -1    0    0  501    0  0.00000000000E+00 -0.00000000000E+00 -0.76987705465E+03  0.76987705465E+03  0.00000000000E+00 0. -1.
         23    2    1    2    0    0 -0.64889526311E+02 -0.39312929408E+03 -0.19616458672E+03  0.45301401105E+03  0.89330043321E+02 0.  0.
        254    2    1    2    0    0  0.64889526311E+02  0.39312929408E+03  0.83041680469E+02  0.97361719200E+03  0.88446210964E+03 0.  0.
         23    2    4    4    0    0  0.27031899317E+03 -0.10878451572E+03  0.25382401052E+03  0.39757419618E+03  0.93446156844E+02 0.  0.
         23    2    4    4    0    0 -0.20542946685E+03  0.50191380980E+03 -0.17078233005E+03  0.57604299582E+03  0.92413150876E+02 0.  0.
          3    1    3    3  502    0 -0.10154049644E+02  0.79638572634E+00 -0.17721756726E+01  0.10338257156E+02  0.00000000000E+00 0. -1.
         -3    1    3    3    0  502 -0.54735476667E+02 -0.39392567980E+03 -0.19439241104E+03  0.44267575390E+03  0.00000000000E+00 0.  1.
         13    1    5    5    0    0  0.26049018429E+03 -0.76372187226E+02  0.23357283636E+03  0.35811187774E+03  0.00000000000E+00 0. -1.
        -13    1    5    5    0    0  0.98288088806E+01 -0.32412328495E+02  0.20251174159E+02  0.39462318448E+02  0.00000000000E+00 0.  1.
          1    1    6    6  503    0 -0.14017114371E+03  0.41652316741E+03 -0.11190427807E+03  0.45349979710E+03  0.00000000000E+00 0. -1.
         -1    1    6    6    0  503 -0.65258323150E+02  0.85390642389E+02 -0.58878051978E+02  0.12254319872E+03  0.00000000000E+00 0.  1.
<mgrwt>
<rscale>  0 0.14221392E+04</rscale>
<asrwt>0</asrwt>
<pdfrwt beam="1">  1        2 0.11844262E+00 0.14221392E+04</pdfrwt>
<pdfrwt beam="2">  1       -2 0.10103910E+00 0.14221392E+04</pdfrwt>
<totfact> 0.28388541E+01</totfact>
</mgrwt>
</event>
<event>
12    3  0.4688899E-008  0.2451052E+04  0.7818608E-02  0.8420634E-01
         -2   -1    0    0    0  501 -0.00000000000E+00  0.00000000000E+00  0.16575985301E+04  0.16575985301E+04  0.00000000000E+00 0.  1.
          2   -1    0    0  501    0  0.00000000000E+00 -0.00000000000E+00 -0.90607851543E+03  0.90607851543E+03  0.00000000000E+00 0. -1.
         23    2    1    2    0    0  0.66372795317E+03  0.36082973783E+03 -0.45442784933E+03  0.88646306760E+03  0.92623994978E+02 0.  0.
        254    2    1    2    0    0 -0.66372795317E+03 -0.36082973783E+03  0.12059478640E+04  0.16772139779E+04  0.88769565819E+03 0.  0.
         23    2    4    4    0    0 -0.73733742308E+03 -0.32266248565E+03  0.12937605975E+04  0.15265445422E+04  0.93510429566E+02 0.  0.
         23    2    4    4    0    0  0.73609469906E+02 -0.38167252175E+02 -0.87812733515E+02  0.15066943576E+03  0.90083902592E+02 0.  0.
          3    1    3    3  502    0  0.44746557566E+03  0.24040914922E+03 -0.25378402863E+03  0.56782773234E+03  0.00000000000E+00 0. -1.
         -3    1    3    3    0  502  0.21626237751E+03  0.12042058860E+03 -0.20064382071E+03  0.31863533526E+03  0.00000000000E+00 0.  1.
         13    1    5    5    0    0 -0.47387083377E+03 -0.23616585291E+03  0.77999066700E+03  0.94271592635E+03  0.00000000000E+00 0. -1.
        -13    1    5    5    0    0 -0.26346658931E+03 -0.86496632742E+02  0.51376993052E+03  0.58382861583E+03  0.00000000000E+00 0.  1.
          3    1    6    6  503    0  0.38047254360E+02  0.15817149378E+02 -0.73799385485E+02  0.84522926338E+02  0.00000000000E+00 0. -1.
         -3    1    6    6    0  503  0.35562215546E+02 -0.53984401553E+02 -0.14013348030E+02  0.66146509421E+02  0.00000000000E+00 0.  1.
<mgrwt>
<rscale>  0 0.24510524E+04</rscale>
<asrwt>0</asrwt>
<pdfrwt beam="1">  1        2 0.13939670E+00 0.24510524E+04</pdfrwt>
<pdfrwt beam="2">  1       -2 0.25501516E+00 0.24510524E+04</pdfrwt>
<totfact> 0.15567012E+00</totfact>
</mgrwt>
</event>
<event>
12    3  0.4688899E-008  0.1268406E+04  0.7818608E-02  0.9055002E-01
         -2   -1    0    0    0  501 -0.00000000000E+00  0.00000000000E+00  0.20111242112E+03  0.20111242112E+03  0.00000000000E+00 0. -1.
          2   -1    0    0  501    0  0.00000000000E+00 -0.00000000000E+00 -0.19999418439E+04  0.19999418439E+04  0.00000000000E+00 0.  1.
         23    2    1    2    0    0 -0.16678068946E+03 -0.92883203139E+01 -0.92985421839E+03  0.94877428553E+03  0.87416852840E+02 0.  0.
        254    2    1    2    0    0  0.16678068946E+03  0.92883203139E+01 -0.86897520440E+03  0.12522799795E+04  0.88610674860E+03 0.  0.
         23    2    4    4    0    0 -0.31513001946E+03 -0.60912988756E+02 -0.60465873054E+03  0.69080436941E+03  0.92634631843E+02 0.  0.
         23    2    4    4    0    0  0.48191070892E+03  0.70201309070E+02 -0.26431647386E+03  0.56147561009E+03  0.90694581980E+02 0.  0.
          4    1    3    3  502    0 -0.22853762750E+02  0.20292379514E+02 -0.68936857370E+02  0.75407993225E+02  0.00000000000E+00 0. -1.
         -4    1    3    3    0  502 -0.14392692671E+03 -0.29580699828E+02 -0.86091736102E+03  0.87336629231E+03  0.00000000000E+00 0.  1.
         13    1    5    5    0    0 -0.35676746615E+02 -0.12482143877E+02 -0.24535548330E+02  0.45062482140E+02  0.00000000000E+00 0.  1.
        -13    1    5    5    0    0 -0.27945327284E+03 -0.48430844880E+02 -0.58012318221E+03  0.64574188727E+03  0.00000000000E+00 0. -1.
          3    1    6    6  503    0  0.37907124769E+03  0.76217620220E+02 -0.17215317143E+03  0.42325034068E+03  0.00000000000E+00 0. -1.
         -3    1    6    6    0  503  0.10283946124E+03 -0.60163111496E+01 -0.92163302433E+02  0.13822526941E+03  0.00000000000E+00 0.  1.
<mgrwt>
<rscale>  0 0.12684055E+04</rscale>
<asrwt>0</asrwt>
<pdfrwt beam="1">  1        2 0.30768336E+00 0.12684055E+04</pdfrwt>
<pdfrwt beam="2">  1       -2 0.30940372E-01 0.12684055E+04</pdfrwt>
<totfact> 0.63587039E+01</totfact>
</mgrwt>
</event>
<event>
12    3  0.4688899E-008  0.1452984E+04  0.7818608E-02  0.8916335E-01
          2   -1    0    0  501    0  0.00000000000E+00  0.00000000000E+00  0.11749814785E+04  0.11749814785E+04  0.00000000000E+00 0. -1.
         -2   -1    0    0    0  501 -0.00000000000E+00 -0.00000000000E+00 -0.44919033879E+03  0.44919033879E+03  0.00000000000E+00 0.  1.
         23    2    1    2    0    0 -0.27854666892E+02 -0.10133151886E+03  0.70097287201E+03  0.71468541593E+03  0.91478507135E+02 0.  0.
        254    2    1    2    0    0  0.27854666892E+02  0.10133151886E+03  0.24818267664E+02  0.90948640133E+03  0.90305349156E+03 0.  0.
         23    2    4    4    0    0 -0.37773817478E+03 -0.11462899048E+03  0.13826630889E+03  0.42775013157E+03  0.89591677820E+02 0.  0.
         23    2    4    4    0    0  0.40559284167E+03  0.21596050933E+03 -0.11344804123E+03  0.48173626976E+03  0.89748987408E+02 0.  0.
          4    1    3    3  502    0 -0.56773200707E+02 -0.89194094222E+02  0.58847718966E+03  0.59789981227E+03  0.00000000000E+00 0. -1.
         -4    1    3    3    0  502  0.28918533815E+02 -0.12137424633E+02  0.11249568235E+03  0.11678560366E+03  0.00000000000E+00 0.  1.
         13    1    5    5    0    0 -0.22242700530E+02  0.11900062803E+02  0.20358263546E+02  0.32416170598E+02  0.00000000000E+00 0.  1.
        -13    1    5    5    0    0 -0.35549547425E+03 -0.12652905328E+03  0.11790804534E+03  0.39533396097E+03  0.00000000000E+00 0. -1.
          1    1    6    6  503    0  0.40724473953E+03  0.21477020656E+03 -0.10391495292E+03  0.47198817457E+03  0.00000000000E+00 0. -1.
         -1    1    6    6    0  503 -0.16518978508E+01  0.11903027727E+01 -0.95330883076E+01  0.97480951924E+01  0.00000000000E+00 0.  1.
<mgrwt>
<rscale>  0 0.14529836E+04</rscale>
<asrwt>0</asrwt>
<pdfrwt beam="1">  1        2 0.18076638E+00 0.14529836E+04</pdfrwt>
<pdfrwt beam="2">  1       -2 0.69106207E-01 0.14529836E+04</pdfrwt>
<totfact> 0.36349218E+01</totfact>
</mgrwt>
</event>
<event>
12    3  0.4688899E-008  0.1487941E+04  0.7818608E-02  0.8892512E-01
         -1   -1    0    0    0  501 -0.00000000000E+00  0.00000000000E+00  0.25860415713E+03  0.25860415713E+03  0.00000000000E+00 0.  1.
          1   -1    0    0  501    0  0.00000000000E+00 -0.00000000000E+00 -0.21403049671E+04  0.21403049671E+04  0.00000000000E+00 0. -1.
         23    2    1    2    0    0  0.15867841787E+03  0.17556419498E+02  0.10427119620E+03  0.21079780509E+03  0.89867480816E+02 0.  0.
        254    2    1    2    0    0 -0.15867841787E+03 -0.17556419498E+02 -0.19859720062E+04  0.21881113192E+04  0.90457684447E+03 0.  0.
         23    2    4    4    0    0 -0.10415135894E+03 -0.43684858565E+03 -0.12869442360E+04  0.13660698293E+04  0.90758577978E+02 0.  0.
         23    2    4    4    0    0 -0.54527058934E+02  0.41929216615E+03 -0.69902777017E+03  0.82204148989E+03  0.91286728970E+02 0.  0.
          2    1    3    3  502    0  0.14258325965E+03  0.46488308916E+02  0.88363922156E+02  0.17406703173E+03  0.00000000000E+00 0.  1.
         -2    1    3    3    0  502  0.16095158223E+02 -0.28931889418E+02  0.15907274044E+02  0.36730773352E+02  0.00000000000E+00 0. -1.
         13    1    5    5    0    0 -0.11617221768E+03 -0.42157656870E+03 -0.12507110264E+04  0.13249531535E+04  0.00000000000E+00 0. -1.
        -13    1    5    5    0    0  0.12020858744E+02 -0.15272016950E+02 -0.36233209638E+02  0.41116675782E+02  0.00000000000E+00 0.  1.
          4    1    6    6  503    0  0.68142136396E+01  0.24652681674E+03 -0.35572805646E+03  0.43285604424E+03  0.00000000000E+00 0. -1.
         -4    1    6    6    0  503 -0.61341272573E+02  0.17276534941E+03 -0.34329971371E+03  0.38918544566E+03  0.00000000000E+00 0.  1.
<mgrwt>
<rscale>  0 0.14879405E+04</rscale>
<asrwt>0</asrwt>
<pdfrwt beam="1">  1        1 0.32927769E+00 0.14879405E+04</pdfrwt>
<pdfrwt beam="2">  1       -1 0.39785254E-01 0.14879405E+04</pdfrwt>
<totfact> 0.14266019E+01</totfact>
</mgrwt>
</event>
<event>
12    3  0.4688899E-008  0.1366937E+04  0.7818608E-02  0.8978105E-01
         -2   -1    0    0    0  501 -0.00000000000E+00  0.00000000000E+00  0.31921596014E+03  0.31921596014E+03  0.00000000000E+00 0.  1.
          2   -1    0    0  501    0  0.00000000000E+00 -0.00000000000E+00 -0.14633642602E+04  0.14633642602E+04  0.00000000000E+00 0. -1.
         23    2    1    2    0    0 -0.75070712399E+02  0.16685662964E+02 -0.78988601215E+03  0.79885586069E+03  0.91305809041E+02 0.  0.
        254    2    1    2    0    0  0.75070712399E+02 -0.16685662964E+02 -0.35426228795E+03  0.98372435968E+03  0.91449320607E+03 0.  0.
         23    2    4    4    0    0 -0.37700254647E+02 -0.43426151555E+03 -0.53313561921E+02  0.44899934171E+03  0.93561209269E+02 0.  0.
         23    2    4    4    0    0  0.11277096705E+03  0.41757585258E+03 -0.30094872603E+03  0.53472501797E+03  0.90960570993E+02 0.  0.
          4    1    3    3  502    0 -0.51462608473E+02  0.19833041307E+02 -0.75256211850E+03  0.75458034151E+03  0.00000000000E+00 0. -1.
         -4    1    3    3    0  502 -0.23608103926E+02 -0.31473783428E+01 -0.37323893652E+02  0.44275519181E+02  0.00000000000E+00 0.  1.
         13    1    5    5    0    0 -0.25140643145E+00 -0.37778860697E+03 -0.50825998308E+02  0.38119230956E+03  0.00000000000E+00 0.  1.
        -13    1    5    5    0    0 -0.37448848216E+02 -0.56472908580E+02 -0.24875636133E+01  0.67807032150E+02  0.00000000000E+00 0. -1.
          3    1    6    6  503    0  0.78288727423E+02  0.25716010675E+03 -0.23784124373E+03  0.35892743356E+03  0.00000000000E+00 0. -1.
         -3    1    6    6    0  503  0.34482239623E+02  0.16041574584E+03 -0.63107482295E+02  0.17579758441E+03  0.00000000000E+00 0.  1.
<mgrwt>
<rscale>  0 0.13669371E+04</rscale>
<asrwt>0</asrwt>
<pdfrwt beam="1">  1        2 0.22513297E+00 0.13669371E+04</pdfrwt>
<pdfrwt beam="2">  1       -2 0.49110147E-01 0.13669371E+04</pdfrwt>
<totfact> 0.50979642E+01</totfact>
</mgrwt>
</event>
<event>
12    3  0.4688899E-008  0.1315750E+04  0.7818608E-02  0.9017168E-01
          1   -1    0    0  501    0  0.00000000000E+00  0.00000000000E+00  0.11767092031E+04  0.11767092031E+04  0.00000000000E+00 0. -1.
         -1   -1    0    0    0  501 -0.00000000000E+00 -0.00000000000E+00 -0.36780477767E+03  0.36780477767E+03  0.00000000000E+00 0.  1.
         23    2    1    2    0    0  0.24227390929E+03  0.20757876998E+03  0.35167572903E+03  0.48338268813E+03  0.90539560006E+02 0.  0.
        254    2    1    2    0    0 -0.24227390929E+03 -0.20757876998E+03  0.45722869640E+03  0.10611312926E+04  0.90285987092E+03 0.  0.
         23    2    4    4    0    0 -0.47247102286E+03 -0.41096502674E+03  0.25404455151E+03  0.68172381264E+03  0.89931095426E+02 0.  0.
         23    2    4    4    0    0  0.23019711358E+03  0.20338625675E+03  0.20318414489E+03  0.37940747999E+03  0.91156780339E+02 0.  0.
          2    1    3    3  502    0  0.18667577434E+03  0.19301157200E+03  0.32008325620E+03  0.41779732234E+03  0.00000000000E+00 0. -1.
         -2    1    3    3    0  502  0.55598134948E+02  0.14567197983E+02  0.31592472827E+02  0.65585365792E+02  0.00000000000E+00 0.  1.
         13    1    5    5    0    0 -0.18020947142E+03 -0.21586201236E+03  0.11583235750E+03  0.30412003718E+03  0.00000000000E+00 0.  1.
        -13    1    5    5    0    0 -0.29226155144E+03 -0.19510301438E+03  0.13821219401E+03  0.37760377546E+03  0.00000000000E+00 0. -1.
          2    1    6    6  503    0  0.20939054471E+03  0.14898783910E+03  0.13691758134E+03  0.29118413503E+03  0.00000000000E+00 0. -1.
         -2    1    6    6    0  503  0.20806568871E+02  0.54398417653E+02  0.66266563551E+02  0.88223344961E+02  0.00000000000E+00 0.  1.
<mgrwt>
<rscale>  0 0.13157496E+04</rscale>
<asrwt>0</asrwt>
<pdfrwt beam="1">  1        1 0.18103218E+00 0.13157496E+04</pdfrwt>
<pdfrwt beam="2">  1       -1 0.56585351E-01 0.13157496E+04</pdfrwt>
<totfact> 0.34476982E+01</totfact>
</mgrwt>
</event>
<event>
12    3  0.4688899E-008  0.2343310E+04  0.7818608E-02  0.8461038E-01
          2   -1    0    0  501    0  0.00000000000E+00  0.00000000000E+00  0.24535843964E+04  0.24535843964E+04  0.00000000000E+00 0.  1.
         -2   -1    0    0    0  501 -0.00000000000E+00 -0.00000000000E+00 -0.55949791421E+03  0.55949791421E+03  0.00000000000E+00 0. -1.
         23    2    1    2    0    0 -0.47102918290E+03 -0.34028807003E+02  0.19429021560E+04  0.20015069961E+04  0.90194329085E+02 0.  0.
        254    2    1    2    0    0  0.47102918290E+03  0.34028807003E+02 -0.48815673821E+02  0.10115753145E+04  0.89323859968E+03 0.  0.
         23    2    4    4    0    0  0.18117362516E+03 -0.16968208804E+03 -0.41626946227E+03  0.49295611402E+03  0.90053160304E+02 0.  0.
         23    2    4    4    0    0  0.28985555774E+03  0.20371089504E+03  0.36745378845E+03  0.51861920043E+03  0.91810758099E+02 0.  0.
          1    1    3    3  502    0 -0.28714985444E+03  0.14114680732E+02  0.10537652113E+04  0.10922799017E+04  0.00000000000E+00 0. -1.
         -1    1    3    3    0  502 -0.18387932845E+03 -0.48143487735E+02  0.88913694471E+03  0.90922709446E+03  0.00000000000E+00 0.  1.
         13    1    5    5    0    0  0.65386447691E+02 -0.99501145157E+02 -0.13000647848E+03  0.17628825791E+03  0.00000000000E+00 0. -1.
        -13    1    5    5    0    0  0.11578717747E+03 -0.70180942883E+02 -0.28626298379E+03  0.31666785611E+03  0.00000000000E+00 0.  1.
          1    1    6    6  503    0  0.22789107950E+03  0.18739065695E+03  0.25872454011E+03  0.39241303506E+03  0.00000000000E+00 0. -1.
         -1    1    6    6    0  503  0.61964478235E+02  0.16320238091E+02  0.10872924833E+03  0.12620616537E+03  0.00000000000E+00 0.  1.
<mgrwt>
<rscale>  0 0.23433099E+04</rscale>
<asrwt>0</asrwt>
<pdfrwt beam="1">  1        2 0.37747451E+00 0.23433099E+04</pdfrwt>
<pdfrwt beam="2">  1       -2 0.86076604E-01 0.23433099E+04</pdfrwt>
<totfact> 0.39164488E+00</totfact>
</mgrwt>
</event>
<event>
12    3  0.4688899E-008  0.1646441E+04  0.7818608E-02  0.8792515E-01
          2   -1    0    0  501    0  0.00000000000E+00  0.00000000000E+00  0.82203040917E+03  0.82203040917E+03  0.00000000000E+00 0. -1.
         -2   -1    0    0    0  501 -0.00000000000E+00 -0.00000000000E+00 -0.82441209530E+03  0.82441209530E+03  0.00000000000E+00 0.  1.
         23    2    1    2    0    0 -0.34708732140E+02 -0.49703970039E+03  0.27877144367E+03  0.57818317320E+03  0.91263925625E+02 0.  0.
        254    2    1    2    0    0  0.34708732140E+02  0.49703970039E+03 -0.28115312980E+03  0.10682593313E+04  0.90215173702E+03 0.  0.
         23    2    4    4    0    0 -0.30971166842E+03  0.73937017225E+02 -0.38278070159E+03  0.50650975468E+03  0.92968091268E+02 0.  0.
         23    2    4    4    0    0  0.34442040056E+03  0.42310268316E+03  0.10162757180E+03  0.56174957659E+03  0.87138571420E+02 0.  0.
          3    1    3    3  502    0 -0.59090992495E+02 -0.39245575125E+03  0.19624707719E+03  0.44274843578E+03  0.00000000000E+00 0. -1.
         -3    1    3    3    0  502  0.24382260355E+02 -0.10458394914E+03  0.82524366472E+02  0.13543473742E+03  0.00000000000E+00 0.  1.
         13    1    5    5    0    0 -0.12206240576E+03 -0.11470149008E+02 -0.17614460683E+03  0.21461061887E+03  0.00000000000E+00 0. -1.
        -13    1    5    5    0    0 -0.18764926267E+03  0.85407166233E+02 -0.20663609477E+03  0.29189913581E+03  0.00000000000E+00 0.  1.
          1    1    6    6  503    0  0.72788224201E+01  0.14843913031E+02  0.20120678349E+02  0.26041595710E+02  0.00000000000E+00 0. -1.
         -1    1    6    6    0  503  0.33714157814E+03  0.40825877013E+03  0.81506893448E+02  0.53570798088E+03  0.00000000000E+00 0.  1.
<mgrwt>
<rscale>  0 0.16464408E+04</rscale>
<asrwt>0</asrwt>
<pdfrwt beam="1">  1        2 0.12646622E+00 0.16464408E+04</pdfrwt>
<pdfrwt beam="2">  1       -2 0.12683263E+00 0.16464408E+04</pdfrwt>
<totfact> 0.14668088E+01</totfact>
</mgrwt>
</event>
<event>
12    3  0.4688899E-008  0.2284456E+04  0.7818608E-02  0.8484075E-01
          2   -1    0    0  501    0  0.00000000000E+00  0.00000000000E+00  0.12656996834E+04  0.12656996834E+04  0.00000000000E+00 0. -1.
         -2   -1    0    0    0  501 -0.00000000000E+00 -0.00000000000E+00 -0.10308014305E+04  0.10308014305E+04  0.00000000000E+00 0.  1.
         23    2    1    2    0    0 -0.43082551006E+03 -0.77577351711E+03  0.41178330300E+03  0.98266464583E+03  0.92893205134E+02 0.  0.
        254    2    1    2    0    0  0.43082551006E+03  0.77577351711E+03 -0.17688505002E+03  0.13138364681E+04  0.95259790780E+03 0.  0.
         23    2    4    4    0    0  0.12142010882E+02  0.85390707983E+03 -0.18408991036E+03  0.87838949264E+03  0.91511071935E+02 0.  0.
         23    2    4    4    0    0  0.41868349918E+03 -0.78133562717E+02  0.72048603332E+01  0.43544697543E+03  0.90340645838E+02 0.  0.
          1    1    3    3  502    0 -0.36110624063E+03 -0.66786156222E+03  0.38562650349E+03  0.85155421642E+03  0.00000000000E+00 0. -1.
         -1    1    3    3    0  502 -0.69719269428E+02 -0.10791195489E+03  0.26156799510E+02  0.13111042940E+03  0.00000000000E+00 0.  1.
         13    1    5    5    0    0 -0.26967432863E+02  0.11660508285E+03 -0.12173162033E+02  0.12030034770E+03  0.00000000000E+00 0.  1.
        -13    1    5    5    0    0  0.39109443745E+02  0.73730199697E+03 -0.17191674832E+03  0.75808914495E+03  0.00000000000E+00 0. -1.
          3    1    6    6  503    0  0.29862932196E+03 -0.85013615099E+02 -0.23360835395E+02  0.31137198866E+03  0.00000000000E+00 0. -1.
         -3    1    6    6    0  503  0.12005417721E+03  0.68800523823E+01  0.30565695728E+02  0.12407498677E+03  0.00000000000E+00 0.  1.
<mgrwt>
<rscale>  0 0.22844562E+04</rscale>
<asrwt>0</asrwt>
<pdfrwt beam="1">  1        2 0.19472303E+00 0.22844562E+04</pdfrwt>
<pdfrwt beam="2">  1       -2 0.15858484E+00 0.22844562E+04</pdfrwt>
<totfact> 0.40564339E+00</totfact>
</mgrwt>
</event>
<event>
12    3  0.4688899E-008  0.1165332E+04  0.7818608E-02  0.9143755E-01
         -1   -1    0    0    0  501 -0.00000000000E+00  0.00000000000E+00  0.46716164974E+03  0.46716164974E+03  0.00000000000E+00 0.  1.
          1   -1    0    0  501    0  0.00000000000E+00 -0.00000000000E+00 -0.72672824891E+03  0.72672824891E+03  0.00000000000E+00 0. -1.
         23    2    1    2    0    0  0.21539367877E+02  0.54325757828E+02 -0.27552183196E+03  0.29607742496E+03  0.91292548186E+02 0.  0.
        254    2    1    2    0    0 -0.21539367877E+02 -0.54325757828E+02  0.15955232789E+02  0.89781247369E+03  0.89576639596E+03 0.  0.
         23    2    4    4    0    0  0.18956168780E+03 -0.25233069861E+03  0.32692450423E+03  0.46351048142E+03  0.91421660323E+02 0.  0.
         23    2    4    4    0    0 -0.21110105568E+03  0.19800494079E+03 -0.31096927145E+03  0.43430199227E+03  0.90259184685E+02 0.  0.
          1    1    3    3  502    0  0.98418764310E+01  0.77982793828E+02 -0.23428462918E+03  0.24711832416E+03  0.00000000000E+00 0. -1.
         -1    1    3    3    0  502  0.11697491446E+02 -0.23657036001E+02 -0.41237202776E+02  0.48959100801E+02  0.00000000000E+00 0.  1.
         13    1    5    5    0    0  0.18994163956E+03 -0.20159873209E+03  0.28787081022E+03  0.39948651866E+03  0.00000000000E+00 0.  1.
        -13    1    5    5    0    0 -0.37995176594E+00 -0.50731966525E+02  0.39053694019E+02  0.64023962760E+02  0.00000000000E+00 0. -1.
          3    1    6    6  503    0 -0.12174994425E+03  0.14332111600E+03 -0.14260808368E+03  0.23601071320E+03  0.00000000000E+00 0. -1.
         -3    1    6    6    0  503 -0.89351111423E+02  0.54683824788E+02 -0.16836118777E+03  0.19829127906E+03  0.00000000000E+00 0.  1.
<mgrwt>
<rscale>  0 0.11653318E+04</rscale>
<asrwt>0</asrwt>
<pdfrwt beam="1">  1        1 0.11180435E+00 0.11653318E+04</pdfrwt>
<pdfrwt beam="2">  1       -1 0.71871023E-01 0.11653318E+04</pdfrwt>
<totfact> 0.49881636E+01</totfact>
</mgrwt>
</event>
<event>
12    3  0.4688899E-008  0.4136147E+04  0.7818608E-02  0.7977631E-01
         -2   -1    0    0    0  501 -0.00000000000E+00  0.00000000000E+00  0.12767789792E+04  0.12767789792E+04  0.00000000000E+00 0.  1.
          2   -1    0    0  501    0  0.00000000000E+00 -0.00000000000E+00 -0.33497798445E+04  0.33497798445E+04  0.00000000000E+00 0. -1.
         23    2    1    2    0    0 -0.12049604964E+04 -0.14898273182E+04 -0.14857631878E+04  0.24263953653E+04  0.91580470593E+02 0.  0.
        254    2    1    2    0    0  0.12049604964E+04  0.14898273182E+04 -0.58723767741E+03  0.22001634584E+04  0.90794048136E+03 0.  0.
         23    2    4    4    0    0  0.65339115674E+03  0.12313401436E+04 -0.71791193234E+03  0.15706502803E+04  0.91794376376E+02 0.  0.
         23    2    4    4    0    0  0.55156933965E+03  0.25848717461E+03  0.13067425493E+03  0.62951317801E+03  0.90369931460E+02 0.  0.
          1    1    3    3  502    0 -0.11767367138E+04 -0.14458733909E+04 -0.14263303994E+04  0.23472702368E+04  0.00000000000E+00 0. -1.
         -1    1    3    3    0  502 -0.28223782564E+02 -0.43953927343E+02 -0.59432788411E+02  0.79125128559E+02  0.00000000000E+00 0.  1.
         13    1    5    5    0    0  0.29469702808E+03  0.65208194292E+03 -0.35979233518E+03  0.80094177260E+03  0.00000000000E+00 0. -1.
        -13    1    5    5    0    0  0.35869412866E+03  0.57925820069E+03 -0.35811959716E+03  0.76970850774E+03  0.00000000000E+00 0.  1.
          4    1    6    6  503    0  0.44972699681E+03  0.23903809251E+03  0.85573624418E+02  0.51644595702E+03  0.00000000000E+00 0. -1.
         -4    1    6    6    0  503  0.10184234284E+03  0.19449082098E+02  0.45100630511E+02  0.11306722099E+03  0.00000000000E+00 0.  1.
<mgrwt>
<rscale>  0 0.41361472E+04</rscale>
<asrwt>0</asrwt>
<pdfrwt beam="1">  1        2 0.51535074E+00 0.41361472E+04</pdfrwt>
<pdfrwt beam="2">  1       -2 0.19642754E+00 0.41361472E+04</pdfrwt>
<totfact> 0.11284190E-01</totfact>
</mgrwt>
</event>
<event>
12    3  0.4688899E-008  0.1537689E+04  0.7818608E-02  0.8859770E-01
         -1   -1    0    0    0  501 -0.00000000000E+00  0.00000000000E+00  0.36247787474E+03  0.36247787474E+03  0.00000000000E+00 0.  1.
          1   -1    0    0  501    0  0.00000000000E+00 -0.00000000000E+00 -0.16307806326E+04  0.16307806326E+04  0.00000000000E+00 0. -1.
         23    2    1    2    0    0  0.39447301143E+02  0.21791610488E+03 -0.10190281557E+04  0.10468137171E+04  0.91416944727E+02 0.  0.
        254    2    1    2    0    0 -0.39447301143E+02 -0.21791610488E+03 -0.24927460215E+03  0.94644479027E+03  0.88576317118E+03 0.  0.
         23    2    4    4    0    0 -0.28852987585E+03  0.31593960839E+01 -0.45340414735E+03  0.54507239042E+03  0.90934695919E+02 0.  0.
         23    2    4    4    0    0  0.24908257471E+03 -0.22107550096E+03  0.20412954520E+03  0.40137239985E+03  0.92273647312E+02 0.  0.
          1    1    3    3  502    0 -0.26489981751E+02  0.10718752545E+03 -0.49630746269E+03  0.50844073624E+03  0.00000000000E+00 0. -1.
         -1    1    3    3    0  502  0.65937282894E+02  0.11072857943E+03 -0.52272069301E+03  0.53837298082E+03  0.00000000000E+00 0.  1.
         13    1    5    5    0    0 -0.19505394534E+03 -0.34413905540E+02 -0.33910358681E+03  0.39271058182E+03  0.00000000000E+00 0. -1.
        -13    1    5    5    0    0 -0.93475930514E+02  0.37573301624E+02 -0.11430056055E+03  0.15236180861E+03  0.00000000000E+00 0.  1.
          1    1    6    6  503    0  0.11133814840E+03 -0.13971505040E+03  0.14747738271E+03  0.23165935554E+03  0.00000000000E+00 0. -1.
         -1    1    6    6    0  503  0.13774442631E+03 -0.81360450565E+02  0.56652162488E+02  0.16971304431E+03  0.00000000000E+00 0.  1.
<mgrwt>
<rscale>  0 0.15376890E+04</rscale>
<asrwt>0</asrwt>
<pdfrwt beam="1">  1        1 0.25088933E+00 0.15376890E+04</pdfrwt>
<pdfrwt beam="2">  1       -1 0.55765827E-01 0.15376890E+04</pdfrwt>
<totfact> 0.16671132E+01</totfact>
</mgrwt>
</event>
<event>
12    3  0.4688899E-008  0.2387791E+04  0.7818608E-02  0.8444089E-01
          2   -1    0    0  501    0  0.00000000000E+00  0.00000000000E+00  0.11721328069E+04  0.11721328069E+04  0.00000000000E+00 0.  1.
         -2   -1    0    0    0  501 -0.00000000000E+00 -0.00000000000E+00 -0.12160621089E+04  0.12160621089E+04  0.00000000000E+00 0. -1.
         23    2    1    2    0    0  0.33785721057E+03 -0.83419192582E+03 -0.50466520225E+03  0.10351602457E+04  0.82741187267E+02 0.  0.
        254    2    1    2    0    0 -0.33785721057E+03  0.83419192582E+03  0.46073590023E+03  0.13530346700E+04  0.89911155298E+03 0.  0.
         23    2    4    4    0    0  0.87660635232E+02  0.61581230197E+03 -0.70389331533E+02  0.63223154842E+03  0.88616559404E+02 0.  0.
         23    2    4    4    0    0 -0.42551784580E+03  0.21837962385E+03  0.53112523177E+03  0.72080312161E+03  0.93316831811E+02 0.  0.
          2    1    3    3  502    0  0.30648508699E+03 -0.74226577706E+03 -0.41970726932E+03  0.90611576758E+03  0.00000000000E+00 0. -1.
         -2    1    3    3    0  502  0.31372123571E+02 -0.91926148763E+02 -0.84957932930E+02  0.12904447811E+03  0.00000000000E+00 0.  1.
         13    1    5    5    0    0  0.31503519467E+02  0.48367779674E+03 -0.51912407477E+02  0.48747469765E+03  0.00000000000E+00 0. -1.
        -13    1    5    5    0    0  0.56157115764E+02  0.13213450523E+03 -0.18476924056E+02  0.14475685077E+03  0.00000000000E+00 0.  1.
          3    1    6    6  503    0 -0.18054302560E+03  0.54545133960E+02  0.25312360117E+03  0.31566202369E+03  0.00000000000E+00 0. -1.
         -3    1    6    6    0  503 -0.24497482020E+03  0.16383448989E+03  0.27800163059E+03  0.40514109792E+03  0.00000000000E+00 0.  1.
<mgrwt>
<rscale>  0 0.23877909E+04</rscale>
<asrwt>0</asrwt>
<pdfrwt beam="1">  1        2 0.18032813E+00 0.23877909E+04</pdfrwt>
<pdfrwt beam="2">  1       -2 0.18708648E+00 0.23877909E+04</pdfrwt>
<totfact> 0.28735371E+00</totfact>
</mgrwt>
</event>
<event>
12    3  0.4688899E-008  0.1701433E+04  0.7818608E-02  0.8760547E-01
          1   -1    0    0  501    0  0.00000000000E+00  0.00000000000E+00  0.11418211008E+04  0.11418211008E+04  0.00000000000E+00 0. -1.
         -1   -1    0    0    0  501 -0.00000000000E+00 -0.00000000000E+00 -0.63382850554E+03  0.63382850554E+03  0.00000000000E+00 0.  1.
         23    2    1    2    0    0 -0.47064325395E+03  0.78673448623E+02  0.56815745403E+03  0.74712646862E+03  0.87752399028E+02 0.  0.
        254    2    1    2    0    0  0.47064325395E+03 -0.78673448623E+02 -0.60164858805E+02  0.10285231377E+04  0.90914545069E+03 0.  0.
         23    2    4    4    0    0  0.83344778739E+02 -0.45984752694E+03 -0.23061380753E+02  0.47671895562E+03  0.91230670202E+02 0.  0.
         23    2    4    4    0    0  0.38729847521E+03  0.38117407832E+03 -0.37103478052E+02  0.55180418206E+03  0.88416064034E+02 0.  0.
          4    1    3    3  502    0 -0.42268560779E+03  0.42084841776E+02  0.50187243549E+03  0.65750300261E+03  0.00000000000E+00 0. -1.
         -4    1    3    3    0  502 -0.47957646159E+02  0.36588606847E+02  0.66285018543E+02  0.89623466008E+02  0.00000000000E+00 0.  1.
         13    1    5    5    0    0 -0.16572810031E+02 -0.11647207310E+03 -0.18369577191E+02  0.11907074876E+03  0.00000000000E+00 0. -1.
        -13    1    5    5    0    0  0.99917588770E+02 -0.34337545384E+03 -0.46918035621E+01  0.35764820686E+03  0.00000000000E+00 0.  1.
          3    1    6    6  503    0  0.26643744477E+03  0.20213645306E+03 -0.17283010034E+02  0.33488320362E+03  0.00000000000E+00 0. -1.
         -3    1    6    6    0  503  0.12086103044E+03  0.17903762526E+03 -0.19820468018E+02  0.21692097845E+03  0.00000000000E+00 0.  1.
<mgrwt>
<rscale>  0 0.17014332E+04</rscale>
<asrwt>0</asrwt>
<pdfrwt beam="1">  1        1 0.17566478E+00 0.17014332E+04</pdfrwt>
<pdfrwt beam="2">  1       -1 0.97512078E-01 0.17014332E+04</pdfrwt>
<totfact> 0.11331886E+01</totfact>
</mgrwt>
</event>
<event>
12    3  0.4688899E-008  0.1662891E+04  0.7818608E-02  0.8782816E-01
         -4   -1    0    0    0  501 -0.00000000000E+00  0.00000000000E+00  0.13832897570E+04  0.13832897570E+04  0.00000000000E+00 0.  1.
          4   -1    0    0  501    0  0.00000000000E+00 -0.00000000000E+00 -0.49975202687E+03  0.49975202687E+03  0.00000000000E+00 0. -1.
         23    2    1    2    0    0  0.45867185366E+03  0.23149306149E+03  0.67129209788E+03  0.85017475043E+03  0.90526895018E+02 0.  0.
        254    2    1    2    0    0 -0.45867185366E+03 -0.23149306149E+03  0.21224563225E+03  0.10328670335E+04  0.87051547575E+03 0.  0.
         23    2    4    4    0    0 -0.65407726237E+03 -0.27037584293E+03 -0.19538400809E+02  0.71385382484E+03  0.91024021808E+02 0.  0.
         23    2    4    4    0    0  0.19540540870E+03  0.38882781433E+02  0.23178403306E+03  0.31901320861E+03  0.91380768470E+02 0.  0.
          2    1    3    3  502    0  0.24554954433E+03  0.84340971397E+02  0.38214127394E+03  0.46199559676E+03  0.00000000000E+00 0. -1.
         -2    1    3    3    0  502  0.21312230934E+03  0.14715209010E+03  0.28915082394E+03  0.38817915367E+03  0.00000000000E+00 0.  1.
         13    1    5    5    0    0 -0.14428422631E+03 -0.48158624646E+02 -0.40263370045E+02  0.15734779966E+03  0.00000000000E+00 0. -1.
        -13    1    5    5    0    0 -0.50979303606E+03 -0.22221721828E+03  0.20724969236E+02  0.55650602518E+03  0.00000000000E+00 0.  1.
          3    1    6    6  503    0  0.57783716899E+02  0.14893571747E+02  0.15696693736E+02  0.61702209136E+02  0.00000000000E+00 0. -1.
         -3    1    6    6    0  503  0.13762169181E+03  0.23989209686E+02  0.21608733932E+03  0.25731099948E+03  0.00000000000E+00 0.  1.
<mgrwt>
<rscale>  0 0.16628913E+04</rscale>
<asrwt>0</asrwt>
<pdfrwt beam="1">  1        4 0.76884928E-01 0.16628913E+04</pdfrwt>
<pdfrwt beam="2">  1       -4 0.21281381E+00 0.16628913E+04</pdfrwt>
<totfact> 0.31456973E-01</totfact>
</mgrwt>
</event>
<event>
12    3  0.4688899E-008  0.1768997E+04  0.7818608E-02  0.8722962E-01
          2   -1    0    0  501    0  0.00000000000E+00  0.00000000000E+00  0.13998186393E+04  0.13998186393E+04  0.00000000000E+00 0.  1.
         -2   -1    0    0    0  501 -0.00000000000E+00 -0.00000000000E+00 -0.55888505354E+03  0.55888505354E+03  0.00000000000E+00 0. -1.
         23    2    1    2    0    0  0.78941631643E+02  0.14573106339E+03 -0.38467805849E+03  0.42853297175E+03  0.90520578600E+02 0.  0.
        254    2    1    2    0    0 -0.78941631643E+02 -0.14573106339E+03  0.12256116443E+04  0.15301707211E+04  0.90101565422E+03 0.  0.
         23    2    4    4    0    0 -0.19808261344E+03  0.91644104120E+02 -0.35175395390E+02  0.23846981444E+03  0.89415772613E+02 0.  0.
         23    2    4    4    0    0  0.11914098179E+03 -0.23737516751E+03  0.12607870397E+04  0.12917009067E+04  0.91464360492E+02 0.  0.
          2    1    3    3  502    0  0.27973893421E+02  0.13068027779E+03 -0.30199989459E+03  0.33024810378E+03  0.00000000000E+00 0. -1.
         -2    1    3    3    0  502  0.50967738222E+02  0.15050785605E+02 -0.82678163897E+02  0.98284867971E+02  0.00000000000E+00 0.  1.
         13    1    5    5    0    0 -0.20423930880E+03  0.85071849008E+02 -0.44310583422E+02  0.22564206735E+03  0.00000000000E+00 0.  1.
        -13    1    5    5    0    0  0.61566953648E+01  0.65722551126E+01  0.91351880326E+01  0.12827747093E+02  0.00000000000E+00 0. -1.
          1    1    6    6  503    0  0.43915471370E+01 -0.42183449775E+02  0.93678272039E+02  0.10283164772E+03  0.00000000000E+00 0. -1.
         -1    1    6    6    0  503  0.11474943466E+03 -0.19519171774E+03  0.11671087676E+04  0.11888692590E+04  0.00000000000E+00 0.  1.
<mgrwt>
<rscale>  0 0.17689971E+04</rscale>
<asrwt>0</asrwt>
<pdfrwt beam="1">  1        2 0.21535671E+00 0.17689971E+04</pdfrwt>
<pdfrwt beam="2">  1       -2 0.85982317E-01 0.17689971E+04</pdfrwt>
<totfact> 0.16078908E+01</totfact>
</mgrwt>
</event>
<event>
12    3  0.4688899E-008  0.3120976E+04  0.7818608E-02  0.8210005E-01
         -2   -1    0    0    0  501 -0.00000000000E+00  0.00000000000E+00  0.15101170074E+04  0.15101170074E+04  0.00000000000E+00 0.  1.
          2   -1    0    0  501    0  0.00000000000E+00 -0.00000000000E+00 -0.16125393162E+04  0.16125393162E+04  0.00000000000E+00 0. -1.
         23    2    1    2    0    0  0.55227120072E+03 -0.94867062871E+03  0.86169408823E+03  0.13985648784E+04  0.92128044602E+02 0.  0.
        254    2    1    2    0    0 -0.55227120072E+03  0.94867062871E+03 -0.96411639706E+03  0.17240914451E+04  0.91541872559E+03 0.  0.
         23    2    4    4    0    0  0.16427485773E+03  0.10176191114E+03 -0.45028095013E+03  0.49790640601E+03  0.88408934233E+02 0.  0.
         23    2    4    4    0    0 -0.71654605845E+03  0.84690871757E+03 -0.51383544692E+03  0.12261850391E+04  0.93862952546E+02 0.  0.
          3    1    3    3  502    0 -0.11402908907E+01  0.84290073808E-01 -0.12961018703E+01  0.17283657571E+01  0.00000000000E+00 0. -1.
         -3    1    3    3    0  502  0.55341149161E+03 -0.94875491878E+03  0.86299019010E+03  0.13968365127E+04  0.00000000000E+00 0.  1.
         13    1    5    5    0    0  0.10167398794E+03  0.46256946946E+02 -0.15535939557E+03  0.19134745036E+03  0.00000000000E+00 0. -1.
        -13    1    5    5    0    0  0.62600869792E+02  0.55504964197E+02 -0.29492155456E+03  0.30655895566E+03  0.00000000000E+00 0.  1.
          2    1    6    6  503    0 -0.61923097739E+02  0.40276970778E+02 -0.44575447859E+02  0.86276734758E+02  0.00000000000E+00 0. -1.
         -2    1    6    6    0  503 -0.65462296071E+03  0.80663174679E+03 -0.46925999906E+03  0.11399083044E+04  0.00000000000E+00 0.  1.
<mgrwt>
<rscale>  0 0.31209762E+04</rscale>
<asrwt>0</asrwt>
<pdfrwt beam="1">  1        2 0.24808297E+00 0.31209762E+04</pdfrwt>
<pdfrwt beam="2">  1       -2 0.23232569E+00 0.31209762E+04</pdfrwt>
<totfact> 0.76902130E-01</totfact>
</mgrwt>
</event>
<event>
12    3  0.4688899E-008  0.1399417E+04  0.7818608E-02  0.8954240E-01
         -3   -1    0    0    0  501 -0.00000000000E+00  0.00000000000E+00  0.10655211316E+03  0.10655211316E+03  0.00000000000E+00 0.  1.
          3   -1    0    0  501    0  0.00000000000E+00 -0.00000000000E+00 -0.45948613981E+04  0.45948613981E+04  0.00000000000E+00 0. -1.
         23    2    1    2    0    0 -0.50443990341E+02  0.46265229858E+02 -0.26679462143E+04  0.26703798774E+04  0.91140659562E+02 0.  0.
        254    2    1    2    0    0  0.50443990341E+02 -0.46265229858E+02 -0.18203630707E+04  0.20310336339E+04  0.89815969910E+03 0.  0.
         23    2    4    4    0    0  0.10377480645E+03 -0.45202819213E+03 -0.10919373920E+04  0.11906171644E+04  0.10071378918E+03 0.  0.
         23    2    4    4    0    0 -0.53330816110E+02  0.40576296227E+03 -0.72842567877E+03  0.84041646946E+03  0.90598648783E+02 0.  0.
          4    1    3    3  502    0  0.51627147832E+01  0.16358433074E+01 -0.16207678371E+04  0.16207768851E+04  0.00000000000E+00 0. -1.
         -4    1    3    3    0  502 -0.55606705125E+02  0.44629386551E+02 -0.10471783772E+04  0.10496029923E+04  0.00000000000E+00 0.  1.
         13    1    5    5    0    0  0.59615171649E+02 -0.13351937364E+03 -0.25373981014E+03  0.29285710351E+03  0.00000000000E+00 0.  1.
        -13    1    5    5    0    0  0.44159634803E+02 -0.31850881849E+03 -0.83819758183E+03  0.89776006092E+03  0.00000000000E+00 0. -1.
          3    1    6    6  503    0 -0.51887661813E+02  0.32974022332E+03 -0.51368781317E+03  0.61261416383E+03  0.00000000000E+00 0. -1.
         -3    1    6    6    0  503 -0.14431542967E+01  0.76022738951E+02 -0.21473786559E+03  0.22780230563E+03  0.00000000000E+00 0.  1.
<mgrwt>
<rscale>  0 0.13994173E+04</rscale>
<asrwt>0</asrwt>
<pdfrwt beam="1">  1        3 0.70690178E+00 0.13994173E+04</pdfrwt>
<pdfrwt beam="2">  1       -3 0.16392632E-01 0.13994173E+04</pdfrwt>
<totfact> 0.26262713E-02</totfact>
</mgrwt>
</event>
<event>
12    3  0.4688899E-008  0.1975035E+04  0.7818608E-02  0.8618382E-01
          2   -1    0    0  501    0  0.00000000000E+00  0.00000000000E+00  0.91171261392E+03  0.91171261392E+03  0.00000000000E+00 0. -1.
         -2   -1    0    0    0  501 -0.00000000000E+00 -0.00000000000E+00 -0.10696249258E+04  0.10696249258E+04  0.00000000000E+00 0.  1.
         23    2    1    2    0    0  0.78797235150E+03 -0.18188856112E+02 -0.63936899250E+02  0.79585630304E+03  0.89822418019E+02 0.  0.
        254    2    1    2    0    0 -0.78797235150E+03  0.18188856112E+02 -0.93975412589E+02  0.11854812366E+04  0.88051298858E+03 0.  0.
         23    2    4    4    0    0 -0.17522338147E+03 -0.14885384385E+03 -0.40301515052E+03  0.47286972715E+03  0.91235229285E+02 0.  0.
         23    2    4    4    0    0 -0.61274897003E+03  0.16704269996E+03  0.30903973793E+03  0.71261150950E+03  0.94578221433E+02 0.  0.
          3    1    3    3  502    0  0.27782557282E+02  0.15080192539E+02 -0.94352117361E+01  0.32989481910E+02  0.00000000000E+00 0. -1.
         -3    1    3    3    0  502  0.76018979422E+03 -0.33269048651E+02 -0.54501687514E+02  0.76286682113E+03  0.00000000000E+00 0.  1.
         13    1    5    5    0    0 -0.33686235205E+02 -0.47408380718E+02 -0.18453180044E+03  0.19347946242E+03  0.00000000000E+00 0. -1.
        -13    1    5    5    0    0 -0.14153714626E+03 -0.10144546313E+03 -0.21848335007E+03  0.27939026472E+03  0.00000000000E+00 0.  1.
          3    1    6    6  503    0 -0.27194668702E+03  0.10965045147E+03  0.17789237790E+03  0.34296343858E+03  0.00000000000E+00 0. -1.
         -3    1    6    6    0  503 -0.34080228302E+03  0.57392248498E+02  0.13114736003E+03  0.36964807093E+03  0.00000000000E+00 0.  1.
<mgrwt>
<rscale>  0 0.19750347E+04</rscale>
<asrwt>0</asrwt>
<pdfrwt beam="1">  1        2 0.14026348E+00 0.19750347E+04</pdfrwt>
<pdfrwt beam="2">  1       -2 0.16455768E+00 0.19750347E+04</pdfrwt>
<totfact> 0.62497802E+00</totfact>
</mgrwt>
</event>
<event>
12    3  0.4688899E-008  0.2638435E+04  0.7818608E-02  0.8355262E-01
          2   -1    0    0  501    0  0.00000000000E+00  0.00000000000E+00  0.19564995716E+04  0.19564995716E+04  0.00000000000E+00 0. -1.
         -2   -1    0    0    0  501 -0.00000000000E+00 -0.00000000000E+00 -0.88951482312E+03  0.88951482312E+03  0.00000000000E+00 0.  1.
         23    2    1    2    0    0  0.90198403667E+03 -0.25661065995E+03 -0.27445279813E+03  0.98141503872E+03  0.91798184147E+02 0.  0.
        254    2    1    2    0    0 -0.90198403667E+03  0.25661065995E+03  0.13414375466E+04  0.18645993560E+04  0.89322552233E+03 0.  0.
         23    2    4    4    0    0 -0.48136998511E+03  0.43157109959E+03  0.28892246662E+03  0.71420691604E+03  0.92976613389E+02 0.  0.
         23    2    4    4    0    0 -0.42061405156E+03 -0.17496043964E+03  0.10525150800E+04  0.11503924400E+04  0.89930175645E+02 0.  0.
          3    1    3    3  502    0  0.17233366081E+03 -0.83345985578E+02 -0.73121289097E+02  0.20491990357E+03  0.00000000000E+00 0. -1.
         -3    1    3    3    0  502  0.72965037586E+03 -0.17326467437E+03 -0.20133150903E+03  0.77649513515E+03  0.00000000000E+00 0.  1.
         13    1    5    5    0    0  0.44255722683E+01  0.34519303741E+01  0.30640851208E+01  0.63945391419E+01  0.00000000000E+00 0. -1.
        -13    1    5    5    0    0 -0.48579555738E+03  0.42811916922E+03  0.28585838150E+03  0.70781237690E+03  0.00000000000E+00 0.  1.
          1    1    6    6  503    0 -0.31235312504E+02 -0.42288378096E+02  0.13531670637E+03  0.14517080523E+03  0.00000000000E+00 0. -1.
         -1    1    6    6    0  503 -0.38937873906E+03 -0.13267206155E+03  0.91719837364E+03  0.10052216347E+04  0.00000000000E+00 0.  1.
<mgrwt>
<rscale>  0 0.26384354E+04</rscale>
<asrwt>0</asrwt>
<pdfrwt beam="1">  1        2 0.30099993E+00 0.26384354E+04</pdfrwt>
<pdfrwt beam="2">  1       -2 0.13684843E+00 0.26384354E+04</pdfrwt>
<totfact> 0.23733074E+00</totfact>
</mgrwt>
</event>
<event>
12    3  0.4688899E-008  0.3045395E+04  0.7818608E-02  0.8230886E-01
         -2   -1    0    0    0  501 -0.00000000000E+00  0.00000000000E+00  0.11280525226E+04  0.11280525226E+04  0.00000000000E+00 0.  1.
          2   -1    0    0  501    0  0.00000000000E+00 -0.00000000000E+00 -0.20554073764E+04  0.20554073764E+04  0.00000000000E+00 0. -1.
         23    2    1    2    0    0  0.14026470655E+02 -0.11943293033E+04 -0.12024065869E+04  0.16972544602E+04  0.90949854905E+02 0.  0.
        254    2    1    2    0    0 -0.14026470655E+02  0.11943293033E+04  0.27505173311E+03  0.14862054387E+04  0.84055572314E+03 0.  0.
         23    2    4    4    0    0 -0.23010172828E+02  0.12981989632E+04  0.17223268564E+03  0.13131635375E+04  0.94256894459E+02 0.  0.
         23    2    4    4    0    0  0.89837021732E+01 -0.10386965990E+03  0.10281904747E+03  0.17304190124E+03  0.92206994918E+02 0.  0.
          1    1    3    3  502    0  0.29207059441E+02 -0.11588969001E+04 -0.11607328497E+04  0.16404864600E+04  0.00000000000E+00 0. -1.
         -1    1    3    3    0  502 -0.15180588786E+02 -0.35432403205E+02 -0.41673737195E+02  0.56768000181E+02  0.00000000000E+00 0.  1.
         13    1    5    5    0    0  0.51454836996E+01  0.11839222131E+04  0.16310943367E+03  0.11951162998E+04  0.00000000000E+00 0. -1.
        -13    1    5    5    0    0 -0.28155656528E+02  0.11427675005E+03  0.91232519730E+01  0.11804723768E+03  0.00000000000E+00 0.  1.
          1    1    6    6  503    0  0.48617276705E+02 -0.38249788917E+02  0.54349622665E+02  0.82344200950E+02  0.00000000000E+00 0.  1.
         -1    1    6    6    0  503 -0.39633574532E+02 -0.65619870982E+02  0.48469424803E+02  0.90697700294E+02  0.00000000000E+00 0. -1.
<mgrwt>
<rscale>  0 0.30453949E+04</rscale>
<asrwt>0</asrwt>
<pdfrwt beam="1">  1        2 0.31621651E+00 0.30453949E+04</pdfrwt>
<pdfrwt beam="2">  1       -2 0.17354654E+00 0.30453949E+04</pdfrwt>
<totfact> 0.10676364E+00</totfact>
</mgrwt>
</event>
<event>
12    3  0.4688899E-008  0.1541153E+04  0.7818608E-02  0.8857539E-01
         -2   -1    0    0    0  501 -0.00000000000E+00  0.00000000000E+00  0.34911086071E+03  0.34911086071E+03  0.00000000000E+00 0.  1.
          2   -1    0    0  501    0  0.00000000000E+00 -0.00000000000E+00 -0.17008579126E+04  0.17008579126E+04  0.00000000000E+00 0. -1.
         23    2    1    2    0    0  0.42829424701E+02 -0.12673432241E+02  0.21731301454E+03  0.23997828229E+03  0.91485814089E+02 0.  0.
        254    2    1    2    0    0 -0.42829424701E+02  0.12673432241E+02 -0.15690600665E+04  0.18099904911E+04  0.90117762404E+03 0.  0.
         23    2    4    4    0    0  0.22812009057E+03  0.28212692194E+03 -0.29392723531E+03  0.47563362538E+03  0.90552471730E+02 0.  0.
         23    2    4    4    0    0 -0.27094951527E+03 -0.26945348969E+03 -0.12751328312E+04  0.13343568657E+04  0.92334635761E+02 0.  0.
          1    1    3    3  502    0  0.88324754713E+01 -0.37275038441E+02  0.31824538887E+02  0.49802031978E+02  0.00000000000E+00 0. -1.
         -1    1    3    3    0  502  0.33996949230E+02  0.24601606200E+02  0.18548847565E+03  0.19017625031E+03  0.00000000000E+00 0.  1.
         13    1    5    5    0    0  0.21598236352E+03  0.25287601428E+03 -0.29412443091E+03  0.44396378322E+03  0.00000000000E+00 0.  1.
        -13    1    5    5    0    0  0.12137727052E+02  0.29250907655E+02  0.19719560555E+00  0.31669842165E+02  0.00000000000E+00 0. -1.
          3    1    6    6  503    0 -0.68196937206E+02 -0.60467676572E+02 -0.18835501433E+03  0.20924811487E+03  0.00000000000E+00 0. -1.
         -3    1    6    6    0  503 -0.20275257806E+03 -0.20898581312E+03 -0.10867778168E+04  0.11251087508E+04  0.00000000000E+00 0.  1.
<mgrwt>
<rscale>  0 0.15411528E+04</rscale>
<asrwt>0</asrwt>
<pdfrwt beam="1">  1        2 0.26167044E+00 0.15411528E+04</pdfrwt>
<pdfrwt beam="2">  1       -2 0.53709365E-01 0.15411528E+04</pdfrwt>
<totfact> 0.30814686E+01</totfact>
</mgrwt>
</event>
<event>
12    3  0.4688899E-008  0.2472335E+04  0.7818608E-02  0.8412908E-01
         -1   -1    0    0    0  501 -0.00000000000E+00  0.00000000000E+00  0.56220691823E+03  0.56220691823E+03  0.00000000000E+00 0.  1.
          1   -1    0    0  501    0  0.00000000000E+00 -0.00000000000E+00 -0.27180573390E+04  0.27180573390E+04  0.00000000000E+00 0. -1.
         23    2    1    2    0    0 -0.25858312559E+03 -0.23990489265E+03  0.40157755706E+03  0.54227385870E+03  0.91524931801E+02 0.  0.
        254    2    1    2    0    0  0.25858312559E+03  0.23990489265E+03 -0.25574279779E+04  0.27379903986E+04  0.91199450124E+03 0.  0.
         23    2    4    4    0    0  0.37875172878E+03 -0.56309202230E+02 -0.22544665888E+04  0.22886240841E+04  0.92504052020E+02 0.  0.
         23    2    4    4    0    0 -0.12016860319E+03  0.29621409488E+03 -0.30296138903E+03  0.44936631451E+03  0.89225546611E+02 0.  0.
          4    1    3    3  502    0 -0.54919451336E+02 -0.20930557130E+02  0.10939755236E+03  0.12418558217E+03  0.00000000000E+00 0. -1.
         -4    1    3    3    0  502 -0.20366367425E+03 -0.21897433552E+03  0.29218000470E+03  0.41808827653E+03  0.00000000000E+00 0.  1.
         13    1    5    5    0    0  0.29738397517E+02  0.21060701628E+02 -0.20609120908E+03  0.20928810740E+03  0.00000000000E+00 0. -1.
        -13    1    5    5    0    0  0.34901333126E+03 -0.77369903857E+02 -0.20483753798E+04  0.20793359767E+04  0.00000000000E+00 0.  1.
          1    1    6    6  503    0 -0.22158613403E+02  0.16746101346E+03 -0.13605464835E+03  0.21689873793E+03  0.00000000000E+00 0. -1.
         -1    1    6    6    0  503 -0.98009989789E+02  0.12875308142E+03 -0.16690674069E+03  0.23246757658E+03  0.00000000000E+00 0.  1.
<mgrwt>
<rscale>  0 0.24723354E+04</rscale>
<asrwt>0</asrwt>
<pdfrwt beam="1">  1        1 0.41816268E+00 0.24723354E+04</pdfrwt>
<pdfrwt beam="2">  1       -1 0.86493370E-01 0.24723354E+04</pdfrwt>
<totfact> 0.11183858E+00</totfact>
</mgrwt>
</event>
<event>
12    3  0.4688899E-008  0.2233048E+04  0.7818608E-02  0.8504797E-01
          3   -1    0    0  501    0  0.00000000000E+00  0.00000000000E+00  0.72056706302E+03  0.72056706302E+03  0.00000000000E+00 0. -1.
         -3   -1    0    0    0  501 -0.00000000000E+00 -0.00000000000E+00 -0.17300625109E+04  0.17300625109E+04  0.00000000000E+00 0.  1.
         23    2    1    2    0    0  0.26795502006E+03 -0.39497589569E+03  0.45421347689E+03  0.66534935629E+03  0.92596071095E+02 0.  0.
        254    2    1    2    0    0 -0.26795502006E+03  0.39497589569E+03 -0.14637089248E+04  0.17852802177E+04  0.90386712965E+03 0.  0.
         23    2    4    4    0    0 -0.34255521658E+03  0.64103712928E+02 -0.13769122081E+04  0.14232371834E+04  0.90903734446E+02 0.  0.
         23    2    4    4    0    0  0.74600196519E+02  0.33087218276E+03 -0.86796716682E+02  0.36204303425E+03  0.92194891286E+02 0.  0.
          4    1    3    3  502    0  0.78846351488E+02 -0.14718310483E+03  0.21613491599E+03  0.27311886680E+03  0.00000000000E+00 0. -1.
         -4    1    3    3    0  502  0.18910866857E+03 -0.24779279085E+03  0.23807856089E+03  0.39223048949E+03  0.00000000000E+00 0.  1.
         13    1    5    5    0    0 -0.90095578723E+02  0.26349190880E+02 -0.54558956760E+03  0.55360587916E+03  0.00000000000E+00 0. -1.
        -13    1    5    5    0    0 -0.25245963786E+03  0.37754522048E+02 -0.83132264053E+03  0.86963130426E+03  0.00000000000E+00 0.  1.
          1    1    6    6  503    0  0.20409600661E+01  0.47582335404E+02  0.18693489345E+02  0.51163372684E+02  0.00000000000E+00 0. -1.
         -1    1    6    6    0  503  0.72559236453E+02  0.28328984736E+03 -0.10549020603E+03  0.31087966157E+03  0.00000000000E+00 0.  1.
<mgrwt>
<rscale>  0 0.22330482E+04</rscale>
<asrwt>0</asrwt>
<pdfrwt beam="1">  1        3 0.11085647E+00 0.22330482E+04</pdfrwt>
<pdfrwt beam="2">  1       -3 0.26616346E+00 0.22330482E+04</pdfrwt>
<totfact> 0.96253687E-02</totfact>
</mgrwt>
</event>
<event>
12    3  0.4688899E-008  0.2335638E+04  0.7818608E-02  0.8464001E-01
         -1   -1    0    0    0  501 -0.00000000000E+00  0.00000000000E+00  0.80122786277E+03  0.80122786277E+03  0.00000000000E+00 0.  1.
          1   -1    0    0  501    0  0.00000000000E+00 -0.00000000000E+00 -0.17021389634E+04  0.17021389634E+04  0.00000000000E+00 0. -1.
         23    2    1    2    0    0  0.50362440022E+03 -0.78436590112E+03 -0.16969094258E+02  0.93660230197E+03  0.89824932808E+02 0.  0.
        254    2    1    2    0    0 -0.50362440022E+03  0.78436590112E+03 -0.88394200635E+03  0.15667645242E+04  0.89695607490E+03 0.  0.
         23    2    4    4    0    0  0.17118233363E+03  0.23432286006E+03 -0.55251745926E+03  0.63062034977E+03  0.90531147461E+02 0.  0.
         23    2    4    4    0    0 -0.67480673385E+03  0.55004304106E+03 -0.33142454710E+03  0.93614417441E+03  0.92801992466E+02 0.  0.
          2    1    3    3  502    0  0.70939266493E+02 -0.13787193117E+03 -0.32935445015E+02  0.15851117460E+03  0.00000000000E+00 0. -1.
         -2    1    3    3    0  502  0.43268513372E+03 -0.64649396995E+03  0.15966350756E+02  0.77809112737E+03  0.00000000000E+00 0.  1.
         13    1    5    5    0    0  0.31505437995E+02  0.32447115316E+02 -0.32881256582E+02  0.55915873864E+02  0.00000000000E+00 0.  1.
        -13    1    5    5    0    0  0.13967689564E+03  0.20187574475E+03 -0.51963620268E+03  0.57470447591E+03  0.00000000000E+00 0. -1.
          2    1    6    6  503    0 -0.26332943611E+03  0.26655165075E+03 -0.11841933721E+03  0.39295713998E+03  0.00000000000E+00 0.  1.
         -2    1    6    6    0  503 -0.41147729774E+03  0.28349139031E+03 -0.21300520988E+03  0.54318703443E+03  0.00000000000E+00 0. -1.
<mgrwt>
<rscale>  0 0.23356380E+04</rscale>
<asrwt>0</asrwt>
<pdfrwt beam="1">  1        1 0.26186753E+00 0.23356380E+04</pdfrwt>
<pdfrwt beam="2">  1       -1 0.12326582E+00 0.23356380E+04</pdfrwt>
<totfact> 0.24798595E+00</totfact>
</mgrwt>
</event>
<event>
12    3  0.4688899E-008  0.1119767E+04  0.7818608E-02  0.9186137E-01
         -2   -1    0    0    0  501 -0.00000000000E+00  0.00000000000E+00  0.13555739896E+04  0.13555739896E+04  0.00000000000E+00 0.  1.
          2   -1    0    0  501    0  0.00000000000E+00 -0.00000000000E+00 -0.23124475447E+03  0.23124475447E+03  0.00000000000E+00 0. -1.
         23    2    1    2    0    0  0.10490565151E+03  0.13945628316E+03  0.28233765144E+03  0.34351687835E+03  0.88521441838E+02 0.  0.
        254    2    1    2    0    0 -0.10490565151E+03 -0.13945628316E+03  0.84199158370E+03  0.12433018657E+04  0.89799579713E+03 0.  0.
         23    2    4    4    0    0 -0.47357149665E+02  0.48810846336E+02 -0.17169957848E+03  0.20646618197E+03  0.92316524527E+02 0.  0.
         23    2    4    4    0    0 -0.57548501845E+02 -0.18826712949E+03  0.10136911622E+04  0.10368356838E+04  0.93285158020E+02 0.  0.
          1    1    3    3  502    0  0.88055997661E+02  0.10918980864E+03  0.14447413267E+03  0.20136794195E+03  0.00000000000E+00 0. -1.
         -1    1    3    3    0  502  0.16849653849E+02  0.30266474522E+02  0.13786351877E+03  0.14214893641E+03  0.00000000000E+00 0.  1.
         13    1    5    5    0    0 -0.55189037830E+02 -0.93410272422E+01 -0.85310098123E+02  0.10203380581E+03  0.00000000000E+00 0. -1.
        -13    1    5    5    0    0  0.78318881649E+01  0.58151873579E+02 -0.86389480361E+02  0.10443237616E+03  0.00000000000E+00 0.  1.
          3    1    6    6  503    0 -0.63211267780E+02 -0.16161617261E+03  0.96958543403E+03  0.98499307891E+03  0.00000000000E+00 0. -1.
         -3    1    6    6    0  503  0.56627659357E+01 -0.26650956882E+02  0.44105728149E+02  0.51842604838E+02  0.00000000000E+00 0.  1.
<mgrwt>
<rscale>  0 0.11197667E+04</rscale>
<asrwt>0</asrwt>
<pdfrwt beam="1">  1        2 0.35576117E-01 0.11197667E+04</pdfrwt>
<pdfrwt beam="2">  1       -2 0.20854984E+00 0.11197667E+04</pdfrwt>
<totfact> 0.17050350E+01</totfact>
</mgrwt>
</event>
<event>
12    3  0.4688899E-008  0.1855050E+04  0.7818608E-02  0.8677560E-01
          1   -1    0    0  501    0  0.00000000000E+00  0.00000000000E+00  0.13269569547E+04  0.13269569547E+04  0.00000000000E+00 0. -1.
         -1   -1    0    0    0  501 -0.00000000000E+00 -0.00000000000E+00 -0.64832715955E+03  0.64832715955E+03  0.00000000000E+00 0.  1.
         23    2    1    2    0    0  0.48888368595E+03 -0.26142344859E+03 -0.20644400632E+03  0.59876623276E+03  0.92479164600E+02 0.  0.
        254    2    1    2    0    0 -0.48888368595E+03  0.26142344859E+03  0.88507380145E+03  0.13765178815E+04  0.89671420540E+03 0.  0.
         23    2    4    4    0    0 -0.41462307585E+03  0.16206959870E+03  0.10541012551E+04  0.11478564178E+04  0.90917821204E+02 0.  0.
         23    2    4    4    0    0 -0.74260610098E+02  0.99353849891E+02 -0.16902745360E+03  0.22866146365E+03  0.91268610075E+02 0.  0.
          1    1    3    3  502    0  0.27360869470E+03 -0.11517161495E+03 -0.70381996202E+02  0.30508989510E+03  0.00000000000E+00 0. -1.
         -1    1    3    3    0  502  0.21527499125E+03 -0.14625183364E+03 -0.13606201011E+03  0.29367633765E+03  0.00000000000E+00 0.  1.
         13    1    5    5    0    0 -0.12392966696E+02  0.24345926487E+02  0.92735560354E+02  0.96675715224E+02  0.00000000000E+00 0.  1.
        -13    1    5    5    0    0 -0.40223010916E+03  0.13772367221E+03  0.96136569470E+03  0.10511807026E+04  0.00000000000E+00 0. -1.
          2    1    6    6  503    0  0.72021720584E+00 -0.15798810726E+02 -0.25129088532E+02  0.29691618744E+02  0.00000000000E+00 0.  1.
         -2    1    6    6    0  503 -0.74980827303E+02  0.11515266062E+03 -0.14389836507E+03  0.19896984490E+03  0.00000000000E+00 0. -1.
<mgrwt>
<rscale>  0 0.18550496E+04</rscale>
<asrwt>0</asrwt>
<pdfrwt beam="1">  1        1 0.20414722E+00 0.18550496E+04</pdfrwt>
<pdfrwt beam="2">  1       -1 0.99742640E-01 0.18550496E+04</pdfrwt>
<totfact> 0.77925659E+00</totfact>
</mgrwt>
</event>
<event>
12    3  0.4688899E-008  0.1525627E+04  0.7818608E-02  0.8867588E-01
          1   -1    0    0  501    0  0.00000000000E+00  0.00000000000E+00  0.18087741557E+04  0.18087741557E+04  0.00000000000E+00 0. -1.
         -1   -1    0    0    0  501 -0.00000000000E+00 -0.00000000000E+00 -0.32170100883E+03  0.32170100883E+03  0.00000000000E+00 0.  1.
         23    2    1    2    0    0 -0.35474292497E+03  0.57192827524E+02  0.25118613645E+02  0.37099398624E+03  0.88837102292E+02 0.  0.
        254    2    1    2    0    0  0.35474292497E+03 -0.57192827524E+02  0.14619545332E+04  0.17594811782E+04  0.91068622322E+03 0.  0.
         23    2    4    4    0    0  0.94867701830E+02  0.57708800969E+02 -0.98308528037E+02  0.17060808797E+03  0.84334847108E+02 0.  0.
         23    2    4    4    0    0  0.25987522314E+03 -0.11490162849E+03  0.15602630612E+04  0.15888730903E+04  0.96743790238E+02 0.  0.
          4    1    3    3  502    0 -0.27161858825E+03  0.62706804789E+02  0.51766411441E+02  0.28352876786E+03  0.00000000000E+00 0. -1.
         -4    1    3    3    0  502 -0.83124336713E+02 -0.55139772654E+01 -0.26647797796E+02  0.87465218382E+02  0.00000000000E+00 0.  1.
         13    1    5    5    0    0  0.99919687237E+02  0.20674537109E+02 -0.73320566226E+02  0.12564746640E+03  0.00000000000E+00 0.  1.
        -13    1    5    5    0    0 -0.50519854074E+01  0.37034263860E+02 -0.24987961811E+02  0.44960621567E+02  0.00000000000E+00 0. -1.
          2    1    6    6  503    0  0.15422174837E+03 -0.57675532671E+02  0.64182578100E+03  0.66260934788E+03  0.00000000000E+00 0. -1.
         -2    1    6    6    0  503  0.10565347476E+03 -0.57226095822E+02  0.91843728022E+03  0.92626374239E+03  0.00000000000E+00 0.  1.
<mgrwt>
<rscale>  0 0.15256270E+04</rscale>
<asrwt>0</asrwt>
<pdfrwt beam="1">  1        1 0.27827294E+00 0.15256270E+04</pdfrwt>
<pdfrwt beam="2">  1       -1 0.49492464E-01 0.15256270E+04</pdfrwt>
<totfact> 0.15879023E+01</totfact>
</mgrwt>
</event>
<event>
12    3  0.4688899E-008  0.1481093E+04  0.7818608E-02  0.8897124E-01
         -2   -1    0    0    0  501 -0.00000000000E+00  0.00000000000E+00  0.17481976137E+03  0.17481976137E+03  0.00000000000E+00 0.  1.
          2   -1    0    0  501    0  0.00000000000E+00 -0.00000000000E+00 -0.31369966751E+04  0.31369966751E+04  0.00000000000E+00 0. -1.
         23    2    1    2    0    0 -0.11433294447E+03  0.18643783704E+03 -0.18449183509E+04  0.18600847962E+04  0.91436526566E+02 0.  0.
        254    2    1    2    0    0  0.11433294447E+03 -0.18643783704E+03 -0.11172585628E+04  0.14517316402E+04  0.90079241216E+03 0.  0.
         23    2    4    4    0    0  0.11350184910E+03 -0.25265320498E+03 -0.12453838742E+04  0.12794463770E+04  0.96362471241E+02 0.  0.
         23    2    4    4    0    0  0.83109537149E+00  0.66215367934E+02  0.12812531133E+03  0.17228526325E+03  0.94238796992E+02 0.  0.
          1    1    3    3  502    0 -0.32886799670E+02  0.11047484830E+03 -0.12094869451E+04  0.12149670382E+04  0.00000000000E+00 0. -1.
         -1    1    3    3    0  502 -0.81446144797E+02  0.75962988746E+02 -0.63543140579E+03  0.64511775795E+03  0.00000000000E+00 0.  1.
         13    1    5    5    0    0  0.61120914104E+02 -0.47581014682E+02 -0.24645377480E+03  0.25833927734E+03  0.00000000000E+00 0. -1.
        -13    1    5    5    0    0  0.52380934992E+02 -0.20507219030E+03 -0.99893009936E+03  0.10211070997E+04  0.00000000000E+00 0.  1.
          1    1    6    6  503    0 -0.18378904017E+02  0.59378995580E+01 -0.89708696140E+01  0.21295991774E+02  0.00000000000E+00 0. -1.
         -1    1    6    6    0  503  0.19209999388E+02  0.60277468376E+02  0.13709618095E+03  0.15098927147E+03  0.00000000000E+00 0.  1.
<mgrwt>
<rscale>  0 0.14810929E+04</rscale>
<asrwt>0</asrwt>
<pdfrwt beam="1">  1        2 0.48261483E+00 0.14810929E+04</pdfrwt>
<pdfrwt beam="2">  1       -2 0.26895350E-01 0.14810929E+04</pdfrwt>
<totfact> 0.17468916E+01</totfact>
</mgrwt>
</event>
<event>
12    3  0.4688899E-008  0.1202966E+04  0.7818608E-02  0.9110264E-01
         -3   -1    0    0    0  501 -0.00000000000E+00  0.00000000000E+00  0.82340005117E+03  0.82340005117E+03  0.00000000000E+00 0.  1.
          3   -1    0    0  501    0  0.00000000000E+00 -0.00000000000E+00 -0.43937576376E+03  0.43937576376E+03  0.00000000000E+00 0. -1.
         23    2    1    2    0    0  0.13736710154E+02  0.11569583165E+03 -0.15474699293E+03  0.21015463164E+03  0.81511439151E+02 0.  0.
        254    2    1    2    0    0 -0.13736710154E+02 -0.11569583165E+03  0.53877128034E+03  0.10526211833E+04  0.89675115853E+03 0.  0.
         23    2    4    4    0    0 -0.37283437005E+03 -0.12072347171E+03  0.32078342753E+01  0.40275644298E+03  0.92859237794E+02 0.  0.
         23    2    4    4    0    0  0.35909765990E+03  0.50276400612E+01  0.53556344606E+03  0.64986474032E+03  0.80743850781E+02 0.  0.
          1    1    3    3  502    0  0.41878186533E+02  0.98501749175E+02 -0.10141291383E+03  0.14744814746E+03  0.00000000000E+00 0. -1.
         -1    1    3    3    0  502 -0.28141476379E+02  0.17194082473E+02 -0.53334079100E+02  0.62706484181E+02  0.00000000000E+00 0.  1.
         13    1    5    5    0    0 -0.13493311076E+03 -0.81750696365E+02 -0.26095453104E+02  0.15990964139E+03  0.00000000000E+00 0.  1.
        -13    1    5    5    0    0 -0.23790125929E+03 -0.38972775345E+02  0.29303287379E+02  0.24284680159E+03  0.00000000000E+00 0. -1.
          3    1    6    6  503    0  0.34857743533E+03  0.20514357728E+02  0.51271534578E+03  0.62032579593E+03  0.00000000000E+00 0. -1.
         -3    1    6    6    0  503  0.10520224566E+02 -0.15486717667E+02  0.22848100279E+02  0.29538944385E+02  0.00000000000E+00 0.  1.
<mgrwt>
<rscale>  0 0.12029664E+04</rscale>
<asrwt>0</asrwt>
<pdfrwt beam="1">  1        3 0.67596271E-01 0.12029664E+04</pdfrwt>
<pdfrwt beam="2">  1       -3 0.12667693E+00 0.12029664E+04</pdfrwt>
<totfact> 0.26938154E+00</totfact>
</mgrwt>
</event>
<event>
12    3  0.4688899E-008  0.1860156E+04  0.7818608E-02  0.8674948E-01
          2   -1    0    0  501    0  0.00000000000E+00  0.00000000000E+00  0.55131854901E+03  0.55131854901E+03  0.00000000000E+00 0.  1.
         -2   -1    0    0    0  501 -0.00000000000E+00 -0.00000000000E+00 -0.15690472350E+04  0.15690472350E+04  0.00000000000E+00 0. -1.
         23    2    1    2    0    0  0.29385751076E+03 -0.57837237107E+03 -0.71527148617E+02  0.65904353556E+03  0.91407945665E+02 0.  0.
        254    2    1    2    0    0 -0.29385751076E+03  0.57837237107E+03 -0.94620153736E+03  0.14613222485E+04  0.90515110797E+03 0.  0.
         23    2    4    4    0    0  0.25269775300E+03 -0.45571405187E+02 -0.29289943429E+03  0.40088078067E+03  0.94775600033E+02 0.  0.
         23    2    4    4    0    0 -0.54655526376E+03  0.62394377626E+03 -0.65330210307E+03  0.10604414678E+04  0.98508763224E+02 0.  0.
          3    1    3    3  502    0  0.15556149886E+03 -0.23899502050E+03  0.24714394053E+01  0.28517382027E+03  0.00000000000E+00 0. -1.
         -3    1    3    3    0  502  0.13829601189E+03 -0.33937735057E+03 -0.73998588023E+02  0.37386971529E+03  0.00000000000E+00 0.  1.
         13    1    5    5    0    0  0.13094315997E+03  0.11667724890E+02 -0.19207625575E+03  0.23275638545E+03  0.00000000000E+00 0. -1.
        -13    1    5    5    0    0  0.12175459303E+03 -0.57239130077E+02 -0.10082317854E+03  0.16812439522E+03  0.00000000000E+00 0.  1.
          3    1    6    6  503    0 -0.50971746036E+03  0.55709421697E+03 -0.62061539449E+03  0.97740949650E+03  0.00000000000E+00 0.  1.
         -3    1    6    6    0  503 -0.36837803403E+02  0.66849559281E+02 -0.32686708584E+02  0.83031971274E+02  0.00000000000E+00 0. -1.
<mgrwt>
<rscale>  0 0.18601557E+04</rscale>
<asrwt>0</asrwt>
<pdfrwt beam="1">  1        2 0.84818241E-01 0.18601557E+04</pdfrwt>
<pdfrwt beam="2">  1       -2 0.24139188E+00 0.18601557E+04</pdfrwt>
<totfact> 0.37443138E+00</totfact>
</mgrwt>
</event>
<event>
12    3  0.4688899E-008  0.1483751E+04  0.7818608E-02  0.8895330E-01
         -1   -1    0    0    0  501 -0.00000000000E+00  0.00000000000E+00  0.90530864170E+03  0.90530864170E+03  0.00000000000E+00 0.  1.
          1   -1    0    0  501    0  0.00000000000E+00 -0.00000000000E+00 -0.60794690716E+03  0.60794690716E+03  0.00000000000E+00 0. -1.
         23    2    1    2    0    0 -0.11884477242E+03  0.89894329130E+02  0.54075676135E+03  0.56813118155E+03  0.90277871934E+02 0.  0.
        254    2    1    2    0    0  0.11884477242E+03 -0.89894329130E+02 -0.24339502681E+03  0.94512436731E+03  0.90100713663E+03 0.  0.
         23    2    4    4    0    0 -0.19914880058E+03 -0.39862157310E+03 -0.68899963474E+02  0.45959977167E+03  0.89024388985E+02 0.  0.
         23    2    4    4    0    0  0.31799357300E+03  0.30872724397E+03 -0.17449506334E+03  0.48552459564E+03  0.94091350301E+02 0.  0.
          4    1    3    3  502    0 -0.92334517880E+02  0.18019244977E+02  0.24022873640E+03  0.25799263977E+03  0.00000000000E+00 0. -1.
         -4    1    3    3    0  502 -0.26510254537E+02  0.71875084153E+02  0.30052802495E+03  0.31013854178E+03  0.00000000000E+00 0.  1.
         13    1    5    5    0    0 -0.17761287653E+03 -0.27935748320E+03 -0.30369287925E+02  0.33242928719E+03  0.00000000000E+00 0.  1.
        -13    1    5    5    0    0 -0.21535924048E+02 -0.11926408990E+03 -0.38530675548E+02  0.12717048448E+03  0.00000000000E+00 0. -1.
          4    1    6    6  503    0  0.48717642457E+02  0.94476874683E+02 -0.64143893019E+02  0.12415203401E+03  0.00000000000E+00 0. -1.
         -4    1    6    6    0  503  0.26927593054E+03  0.21425036929E+03 -0.11035117032E+03  0.36137256163E+03  0.00000000000E+00 0.  1.
<mgrwt>
<rscale>  0 0.14837514E+04</rscale>
<asrwt>0</asrwt>
<pdfrwt beam="1">  1        1 0.93530293E-01 0.14837514E+04</pdfrwt>
<pdfrwt beam="2">  1       -1 0.13927825E+00 0.14837514E+04</pdfrwt>
<totfact> 0.13830165E+01</totfact>
</mgrwt>
</event>
<event>
12    3  0.4688899E-008  0.1223752E+04  0.7818608E-02  0.9092316E-01
          2   -1    0    0  501    0  0.00000000000E+00  0.00000000000E+00  0.19532709402E+04  0.19532709402E+04  0.00000000000E+00 0. -1.
         -2   -1    0    0    0  501 -0.00000000000E+00 -0.00000000000E+00 -0.19167462736E+03  0.19167462736E+03  0.00000000000E+00 0.  1.
         23    2    1    2    0    0  0.44940539155E+02 -0.20614730534E+03  0.67571178781E+03  0.71367676992E+03  0.90728982059E+02 0.  0.
        254    2    1    2    0    0 -0.44940539155E+02  0.20614730534E+03  0.10858845250E+04  0.14312687976E+04  0.90822288332E+03 0.  0.
         23    2    4    4    0    0 -0.73890032999E+02  0.39080958891E+03  0.97057483778E+02  0.42095856788E+03  0.97949420380E+02 0.  0.
         23    2    4    4    0    0  0.28949493844E+02 -0.18466228357E+03  0.98882704121E+03  0.10103102297E+04  0.89496428241E+02 0.  0.
          1    1    3    3  502    0 -0.11532486499E+02 -0.36931541480E+02  0.23609794548E+03  0.23924710419E+03  0.00000000000E+00 0. -1.
         -1    1    3    3    0  502  0.56473025655E+02 -0.16921576386E+03  0.43961384233E+03  0.47442966574E+03  0.00000000000E+00 0.  1.
         13    1    5    5    0    0 -0.34422524951E+02  0.42374060603E+02 -0.73390221053E+01  0.55084775405E+02  0.00000000000E+00 0. -1.
        -13    1    5    5    0    0 -0.39467508048E+02  0.34843552831E+03  0.10439650588E+03  0.36587379247E+03  0.00000000000E+00 0.  1.
          2    1    6    6  503    0  0.17307796489E+02  0.32537721672E+01  0.57236665107E+02  0.59884745012E+02  0.00000000000E+00 0. -1.
         -2    1    6    6    0  503  0.11641697355E+02 -0.18791605574E+03  0.93159037610E+03  0.95042548470E+03  0.00000000000E+00 0.  1.
<mgrwt>
<rscale>  0 0.12237524E+04</rscale>
<asrwt>0</asrwt>
<pdfrwt beam="1">  1        2 0.30050321E+00 0.12237524E+04</pdfrwt>
<pdfrwt beam="2">  1       -2 0.29488406E-01 0.12237524E+04</pdfrwt>
<totfact> 0.74068731E+01</totfact>
</mgrwt>
</event>
<event>
12    3  0.4688899E-008  0.1755824E+04  0.7818608E-02  0.8730151E-01
          2   -1    0    0  501    0  0.00000000000E+00  0.00000000000E+00  0.22981003097E+04  0.22981003097E+04  0.00000000000E+00 0. -1.
         -2   -1    0    0    0  501 -0.00000000000E+00 -0.00000000000E+00 -0.33537677296E+03  0.33537677296E+03  0.00000000000E+00 0.  1.
         23    2    1    2    0    0  0.57621522086E+03  0.11934598949E+03  0.32746198017E+03  0.67964397230E+03  0.91744943535E+02 0.  0.
        254    2    1    2    0    0 -0.57621522086E+03 -0.11934598949E+03  0.16352615566E+04  0.19538331103E+04  0.89281354088E+03 0.  0.
         23    2    4    4    0    0 -0.63791623196E+02  0.18016105376E+03  0.11845219211E+04  0.12032831577E+04  0.90943936640E+02 0.  0.
         23    2    4    4    0    0 -0.51242359766E+03 -0.29950704325E+03  0.45073963544E+03  0.75054995261E+03  0.88750211281E+02 0.  0.
          2    1    3    3  502    0  0.45494966190E+03  0.77969569666E+02  0.21516699761E+03  0.50926936440E+03  0.00000000000E+00 0. -1.
         -2    1    3    3    0  502  0.12126555896E+03  0.41376419827E+02  0.11229498257E+03  0.17037460790E+03  0.00000000000E+00 0.  1.
         13    1    5    5    0    0 -0.53767764521E+02  0.18023856888E+03  0.11731152770E+04  0.11880977937E+04  0.00000000000E+00 0. -1.
        -13    1    5    5    0    0 -0.10023858676E+02 -0.77515127469E-01  0.11406644078E+02  0.15185364022E+02  0.00000000000E+00 0.  1.
          1    1    6    6  503    0 -0.40496401678E+03 -0.20910124831E+03  0.30648422748E+03  0.54922833924E+03  0.00000000000E+00 0. -1.
         -1    1    6    6    0  503 -0.10745958089E+03 -0.90405794941E+02  0.14425540796E+03  0.20132161337E+03  0.00000000000E+00 0.  1.
<mgrwt>
<rscale>  0 0.17558240E+04</rscale>
<asrwt>0</asrwt>
<pdfrwt beam="1">  1        2 0.35355388E+00 0.17558240E+04</pdfrwt>
<pdfrwt beam="2">  1       -2 0.51596428E-01 0.17558240E+04</pdfrwt>
<totfact> 0.15287484E+01</totfact>
</mgrwt>
</event>
<event>
12    3  0.4688899E-008  0.2886355E+04  0.7818608E-02  0.8276949E-01
         -1   -1    0    0    0  501 -0.00000000000E+00  0.00000000000E+00  0.75624747296E+03  0.75624747296E+03  0.00000000000E+00 0.  1.
          1   -1    0    0  501    0  0.00000000000E+00 -0.00000000000E+00 -0.27540737939E+04  0.27540737939E+04  0.00000000000E+00 0. -1.
         23    2    1    2    0    0 -0.97325457667E+03 -0.86598083464E+03 -0.98632096952E+03  0.16361413257E+04  0.83558996130E+02 0.  0.
        254    2    1    2    0    0  0.97325457667E+03  0.86598083464E+03 -0.10115053514E+04  0.18741799412E+04  0.89008993866E+03 0.  0.
         23    2    4    4    0    0  0.82523482801E+03  0.60450366621E+03 -0.11408504133E+04  0.15351927351E+04  0.94020553923E+02 0.  0.
         23    2    4    4    0    0  0.14801974866E+03  0.26147716842E+03  0.12934506191E+03  0.33898720603E+03  0.88893336149E+02 0.  0.
          2    1    3    3  502    0 -0.24763627859E+03 -0.20968572793E+03 -0.29081995392E+03  0.43573854152E+03  0.00000000000E+00 0. -1.
         -2    1    3    3    0  502 -0.72561829807E+03 -0.65629510671E+03 -0.69550101560E+03  0.12004027842E+04  0.00000000000E+00 0.  1.
         13    1    5    5    0    0  0.46178503189E+03  0.37353385509E+03 -0.60607598377E+03  0.84858768237E+03  0.00000000000E+00 0. -1.
        -13    1    5    5    0    0  0.36344979612E+03  0.23096981112E+03 -0.53477442958E+03  0.68660505277E+03  0.00000000000E+00 0.  1.
          2    1    6    6  503    0  0.62392385287E+01 -0.66920967697E+01  0.84077389936E+01  0.12425873473E+02  0.00000000000E+00 0. -1.
         -2    1    6    6    0  503  0.14178051013E+03  0.26816926519E+03  0.12093732291E+03  0.32656133255E+03  0.00000000000E+00 0.  1.
<mgrwt>
<rscale>  0 0.28863550E+04</rscale>
<asrwt>0</asrwt>
<pdfrwt beam="1">  1        1 0.42370366E+00 0.28863550E+04</pdfrwt>
<pdfrwt beam="2">  1       -1 0.11634576E+00 0.28863550E+04</pdfrwt>
<totfact> 0.51508598E-01</totfact>
</mgrwt>
</event>
<event>
12    3  0.4688899E-008  0.2328836E+04  0.7818608E-02  0.8466638E-01
          2   -1    0    0  501    0  0.00000000000E+00  0.00000000000E+00  0.31796839715E+04  0.31796839715E+04  0.00000000000E+00 0. -1.
         -2   -1    0    0    0  501 -0.00000000000E+00 -0.00000000000E+00 -0.42641618221E+03  0.42641618221E+03  0.00000000000E+00 0.  1.
         23    2    1    2    0    0 -0.10821828315E+03 -0.75405225467E+03  0.20052746162E+03  0.79320084044E+03  0.93007047217E+02 0.  0.
        254    2    1    2    0    0  0.10821828315E+03  0.75405225467E+03  0.25527403277E+04  0.28128993133E+04  0.90311315262E+03 0.  0.
         23    2    4    4    0    0  0.39374684418E+03  0.67507844557E+02  0.11820206034E+04  0.12510860992E+04  0.91922981548E+02 0.  0.
         23    2    4    4    0    0 -0.28552856103E+03  0.68654441011E+03  0.13707197243E+04  0.15618132140E+04  0.86707362347E+02 0.  0.
          1    1    3    3  502    0  0.15321381295E+02 -0.12351760238E+03  0.42610936439E+02  0.13155620368E+03  0.00000000000E+00 0. -1.
         -1    1    3    3    0  502 -0.12353966445E+03 -0.63053465229E+03  0.15791652518E+03  0.66164463677E+03  0.00000000000E+00 0.  1.
         13    1    5    5    0    0  0.29893688714E+03  0.35056684069E+02  0.76231300324E+03  0.81958120311E+03  0.00000000000E+00 0.  1.
        -13    1    5    5    0    0  0.94809957038E+02  0.32451160488E+02  0.41970760012E+03  0.43150489612E+03  0.00000000000E+00 0. -1.
          1    1    6    6  503    0 -0.13246275653E+03  0.25367342754E+03  0.59872876543E+03  0.66360585008E+03  0.00000000000E+00 0. -1.
         -1    1    6    6    0  503 -0.15306580449E+03  0.43287098258E+03  0.77199095889E+03  0.89820736395E+03  0.00000000000E+00 0.  1.
<mgrwt>
<rscale>  0 0.23288355E+04</rscale>
<asrwt>0</asrwt>
<pdfrwt beam="1">  1        2 0.48918213E+00 0.23288355E+04</pdfrwt>
<pdfrwt beam="2">  1       -2 0.65602492E-01 0.23288355E+04</pdfrwt>
<totfact> 0.25910670E+00</totfact>
</mgrwt>
</event>
<event>
12    3  0.4688899E-008  0.4582581E+04  0.7818608E-02  0.7896337E-01
          2   -1    0    0  501    0  0.00000000000E+00  0.00000000000E+00  0.26211338412E+04  0.26211338412E+04  0.00000000000E+00 0.  1.
         -2   -1    0    0    0  501 -0.00000000000E+00 -0.00000000000E+00 -0.20029544912E+04  0.20029544912E+04  0.00000000000E+00 0. -1.
         23    2    1    2    0    0  0.77187770821E+03  0.13143969265E+04 -0.13018405122E+04  0.20066494076E+04  0.91753195460E+02 0.  0.
        254    2    1    2    0    0 -0.77187770821E+03 -0.13143969265E+04  0.19200198622E+04  0.26174389249E+04  0.91710183614E+03 0.  0.
         23    2    4    4    0    0 -0.13374851276E+03 -0.27204858620E+03  0.10949896374E+04  0.11398052433E+04  0.90854767714E+02 0.  0.
         23    2    4    4    0    0 -0.63812919544E+03 -0.10423483403E+04  0.82503022480E+03  0.14776336816E+04  0.95013118331E+02 0.  0.
          4    1    3    3  502    0  0.22026929199E+03  0.33093593222E+03 -0.38415457515E+03  0.55282175232E+03  0.00000000000E+00 0. -1.
         -4    1    3    3    0  502  0.55160841622E+03  0.98346099429E+03 -0.91768593702E+03  0.14538276552E+04  0.00000000000E+00 0.  1.
         13    1    5    5    0    0 -0.13008059992E+03 -0.23544690693E+03  0.10354472585E+04  0.10698164486E+04  0.00000000000E+00 0. -1.
        -13    1    5    5    0    0 -0.36679128448E+01 -0.36601679266E+02  0.59542378827E+02  0.69988794718E+02  0.00000000000E+00 0.  1.
          1    1    6    6  503    0 -0.63520297462E+03 -0.10248953180E+04  0.80018915443E+03  0.14471336893E+04  0.00000000000E+00 0. -1.
         -1    1    6    6    0  503 -0.29262208209E+01 -0.17453022337E+02  0.24841070368E+02  0.30499992360E+02  0.00000000000E+00 0.  1.
<mgrwt>
<rscale>  0 0.45825808E+04</rscale>
<asrwt>0</asrwt>
<pdfrwt beam="1">  1        2 0.40325136E+00 0.45825808E+04</pdfrwt>
<pdfrwt beam="2">  1       -2 0.30814684E+00 0.45825808E+04</pdfrwt>
<totfact> 0.63053413E-02</totfact>
</mgrwt>
</event>
<event>
12    3  0.4688899E-008  0.2398726E+04  0.7818608E-02  0.8439981E-01
          3   -1    0    0  501    0  0.00000000000E+00  0.00000000000E+00  0.10009961444E+04  0.10009961444E+04  0.00000000000E+00 0. -1.
         -3   -1    0    0    0  501 -0.00000000000E+00 -0.00000000000E+00 -0.14370406428E+04  0.14370406428E+04  0.00000000000E+00 0.  1.
         23    2    1    2    0    0  0.10298766225E+04  0.94718712325E+02 -0.28593961762E+03  0.10783216655E+04  0.10676449466E+03 0.  0.
        254    2    1    2    0    0 -0.10298766225E+04 -0.94718712325E+02 -0.15010488076E+03  0.13597151217E+04  0.86987139558E+03 0.  0.
         23    2    4    4    0    0  0.17897016795E+02 -0.24932463456E+03  0.66667838353E+02  0.27471340298E+03  0.92410911129E+02 0.  0.
         23    2    4    4    0    0 -0.10477736393E+04  0.15460592224E+03 -0.21677271912E+03  0.10850017187E+04  0.92226500671E+02 0.  0.
          1    1    3    3  502    0  0.56870456758E+03  0.12442833407E+02 -0.19337048146E+03  0.60080933114E+03  0.00000000000E+00 0. -1.
         -1    1    3    3    0  502  0.46117205493E+03  0.82275878918E+02 -0.92569136167E+02  0.47751233437E+03  0.00000000000E+00 0.  1.
         13    1    5    5    0    0 -0.22153639570E+02 -0.10253871839E+03 -0.80355793754E+01  0.10521189596E+03  0.00000000000E+00 0.  1.
        -13    1    5    5    0    0  0.40050656365E+02 -0.14678591617E+03  0.74703417728E+02  0.16950150702E+03  0.00000000000E+00 0. -1.
          4    1    6    6  503    0 -0.89814876009E+03  0.13161942588E+03 -0.15214790713E+03  0.92040417978E+03  0.00000000000E+00 0. -1.
         -4    1    6    6    0  503 -0.14962487922E+03  0.22986496363E+02 -0.64624811982E+02  0.16459753892E+03  0.00000000000E+00 0.  1.
<mgrwt>
<rscale>  0 0.23987264E+04</rscale>
<asrwt>0</asrwt>
<pdfrwt beam="1">  1        3 0.15399941E+00 0.23987264E+04</pdfrwt>
<pdfrwt beam="2">  1       -3 0.22108318E+00 0.23987264E+04</pdfrwt>
<totfact> 0.76784268E-02</totfact>
</mgrwt>
</event>
<event>
12    3  0.4688899E-008  0.1450149E+04  0.7818608E-02  0.8918297E-01
         -2   -1    0    0    0  501 -0.00000000000E+00  0.00000000000E+00  0.19724641380E+03  0.19724641380E+03  0.00000000000E+00 0.  1.
          2   -1    0    0  501    0  0.00000000000E+00 -0.00000000000E+00 -0.26653630379E+04  0.26653630379E+04  0.00000000000E+00 0. -1.
         23    2    1    2    0    0 -0.18674918757E+03  0.38490337867E+03 -0.98962242695E+03  0.10819634889E+04  0.90920698638E+02 0.  0.
        254    2    1    2    0    0  0.18674918757E+03 -0.38490337867E+03 -0.14784941971E+04  0.17806459628E+04  0.89539325654E+03 0.  0.
         23    2    4    4    0    0 -0.32308124405E+03 -0.31932201813E+03 -0.57829021496E+03  0.73992882504E+03  0.82018607010E+02 0.  0.
         23    2    4    4    0    0  0.50983043162E+03 -0.65581360538E+02 -0.90020398219E+03  0.10407171378E+04  0.92178996558E+02 0.  0.
          1    1    3    3  502    0 -0.10346515065E+03  0.13389332145E+03 -0.31949113922E+03  0.36153429570E+03  0.00000000000E+00 0. -1.
         -1    1    3    3    0  502 -0.83284036919E+02  0.25101005722E+03 -0.67013128773E+03  0.72042919321E+03  0.00000000000E+00 0.  1.
         13    1    5    5    0    0 -0.22963519296E+03 -0.27381861508E+03 -0.45894434056E+03  0.58166903265E+03  0.00000000000E+00 0.  1.
        -13    1    5    5    0    0 -0.93446051090E+02 -0.45503403052E+02 -0.11934587440E+03  0.15825979240E+03  0.00000000000E+00 0. -1.
          3    1    6    6  503    0  0.32666202216E+03 -0.68604690663E+02 -0.50812688376E+03  0.60795362513E+03  0.00000000000E+00 0. -1.
         -3    1    6    6    0  503  0.18316840946E+03  0.30233301255E+01 -0.39207709843E+03  0.43276351262E+03  0.00000000000E+00 0.  1.
<mgrwt>
<rscale>  0 0.14501494E+04</rscale>
<asrwt>0</asrwt>
<pdfrwt beam="1">  1        2 0.41005586E+00 0.14501494E+04</pdfrwt>
<pdfrwt beam="2">  1       -2 0.30345601E-01 0.14501494E+04</pdfrwt>
<totfact> 0.27228599E+01</totfact>
</mgrwt>
</event>
<event>
12    3  0.4688899E-008  0.1733138E+04  0.7818608E-02  0.8742687E-01
         -2   -1    0    0    0  501 -0.00000000000E+00  0.00000000000E+00  0.25139180646E+03  0.25139180646E+03  0.00000000000E+00 0.  1.
          2   -1    0    0  501    0  0.00000000000E+00 -0.00000000000E+00 -0.29871376116E+04  0.29871376116E+04  0.00000000000E+00 0. -1.
         23    2    1    2    0    0  0.23256789049E+02  0.47234161762E+03 -0.23181458632E+03  0.53432006778E+03  0.90069142507E+02 0.  0.
        254    2    1    2    0    0 -0.23256789049E+02 -0.47234161762E+03 -0.25039312188E+04  0.27042093502E+04  0.90522327610E+03 0.  0.
         23    2    4    4    0    0 -0.19423383416E+03 -0.63447488075E+03 -0.11886901215E+04  0.13648451173E+04  0.97636226720E+02 0.  0.
         23    2    4    4    0    0  0.17097704511E+03  0.16213326313E+03 -0.13152410973E+04  0.13393642329E+04  0.92287915831E+02 0.  0.
          2    1    3    3  502    0 -0.30705436025E+02  0.12208944808E+03 -0.44862700813E+02  0.13364624596E+03  0.00000000000E+00 0. -1.
         -2    1    3    3    0  502  0.53962225074E+02  0.35025216954E+03 -0.18695188551E+03  0.40067382183E+03  0.00000000000E+00 0.  1.
         13    1    5    5    0    0 -0.17092573522E+03 -0.41316786828E+03 -0.82862451028E+03  0.94156352594E+03  0.00000000000E+00 0.  1.
        -13    1    5    5    0    0 -0.23308098936E+02 -0.22130701247E+03 -0.36006561118E+03  0.42328159137E+03  0.00000000000E+00 0. -1.
          2    1    6    6  503    0  0.12741315644E+03  0.16466252974E+03 -0.11330602856E+04  0.11520301524E+04  0.00000000000E+00 0. -1.
         -2    1    6    6    0  503  0.43563888670E+02 -0.25292666114E+01 -0.18218081167E+03  0.18733408053E+03  0.00000000000E+00 0.  1.
<mgrwt>
<rscale>  0 0.17331381E+04</rscale>
<asrwt>0</asrwt>
<pdfrwt beam="1">  1        2 0.45955965E+00 0.17331381E+04</pdfrwt>
<pdfrwt beam="2">  1       -2 0.38675661E-01 0.17331381E+04</pdfrwt>
<totfact> 0.10680583E+01</totfact>
</mgrwt>
</event>
<event>
12    3  0.4688899E-008  0.1877063E+04  0.7818608E-02  0.8666359E-01
         -1   -1    0    0    0  501 -0.00000000000E+00  0.00000000000E+00  0.97861682749E+03  0.97861682749E+03  0.00000000000E+00 0.  1.
          1   -1    0    0  501    0  0.00000000000E+00 -0.00000000000E+00 -0.90008799300E+03  0.90008799300E+03  0.00000000000E+00 0. -1.
         23    2    1    2    0    0  0.86069011590E+02 -0.14001503538E+03  0.73456669830E+03  0.75808488444E+03  0.89957617143E+02 0.  0.
        254    2    1    2    0    0 -0.86069011590E+02  0.14001503538E+03 -0.65603786381E+03  0.11206199360E+04  0.89352743518E+03 0.  0.
         23    2    4    4    0    0 -0.20454531576E+03 -0.32955469371E+03 -0.18691563032E+03  0.44017972212E+03  0.91518591362E+02 0.  0.
         23    2    4    4    0    0  0.11847630417E+03  0.46956972910E+03 -0.46912223349E+03  0.68044021392E+03  0.91601580945E+02 0.  0.
          3    1    3    3  502    0 -0.15765621618E+02 -0.33422886098E+01  0.85981553455E+02  0.87478873179E+02  0.00000000000E+00 0. -1.
         -3    1    3    3    0  502  0.10183463321E+03 -0.13667274677E+03  0.64858514484E+03  0.67060601126E+03  0.00000000000E+00 0.  1.
         13    1    5    5    0    0 -0.16191031303E+03 -0.17651229048E+03 -0.11785974548E+03  0.26695029080E+03  0.00000000000E+00 0.  1.
        -13    1    5    5    0    0 -0.42635002730E+02 -0.15304240323E+03 -0.69055884844E+02  0.17322943132E+03  0.00000000000E+00 0. -1.
          2    1    6    6  503    0 -0.15125357625E+01 -0.21381143984E+01  0.18063319285E+01  0.31815299228E+01  0.00000000000E+00 0. -1.
         -2    1    6    6    0  503  0.11998883993E+03  0.47170784349E+03 -0.47092856542E+03  0.67725868399E+03  0.00000000000E+00 0.  1.
<mgrwt>
<rscale>  0 0.18770629E+04</rscale>
<asrwt>0</asrwt>
<pdfrwt beam="1">  1        1 0.13847508E+00 0.18770629E+04</pdfrwt>
<pdfrwt beam="2">  1       -1 0.15055644E+00 0.18770629E+04</pdfrwt>
<totfact> 0.58918842E+00</totfact>
</mgrwt>
</event>
<event>
12    3  0.4688899E-008  0.1731302E+04  0.7818608E-02  0.8743710E-01
          1   -1    0    0  501    0  0.00000000000E+00  0.00000000000E+00  0.20531254427E+04  0.20531254427E+04  0.00000000000E+00 0. -1.
         -1   -1    0    0    0  501 -0.00000000000E+00 -0.00000000000E+00 -0.36498100412E+03  0.36498100412E+03  0.00000000000E+00 0.  1.
         23    2    1    2    0    0 -0.60879662493E+03 -0.85839284801E+02  0.52939705494E+03  0.81646033891E+03  0.91348398437E+02 0.  0.
        254    2    1    2    0    0  0.60879662493E+03  0.85839284801E+02  0.11587473837E+04  0.16016461079E+04  0.91900655199E+03 0.  0.
         23    2    4    4    0    0  0.31701764034E+03  0.12152881252E+02  0.12345098019E+04  0.12778769607E+04  0.91143836610E+02 0.  0.
         23    2    4    4    0    0  0.29177898459E+03  0.73686403548E+02 -0.75762418247E+02  0.32376914721E+03  0.92313892508E+02 0.  0.
          4    1    3    3  502    0 -0.23368122795E+01 -0.25759505572E+01 -0.34408433984E+01  0.48924039281E+01  0.00000000000E+00 0.  1.
         -4    1    3    3    0  502 -0.60645981265E+03 -0.83263334243E+02  0.53283789834E+03  0.81156793498E+03  0.00000000000E+00 0. -1.
         13    1    5    5    0    0  0.90330786493E+02  0.14216391846E+02  0.52885455562E+03  0.53670187049E+03  0.00000000000E+00 0.  1.
        -13    1    5    5    0    0  0.22668685385E+03 -0.20635105935E+01  0.70565524628E+03  0.74117509023E+03  0.00000000000E+00 0. -1.
          4    1    6    6  503    0  0.23503416597E+03  0.42637741660E+02 -0.93784781443E+02  0.25662155291E+03  0.00000000000E+00 0. -1.
         -4    1    6    6    0  503  0.56744818623E+02  0.31048661888E+02  0.18022363196E+02  0.67147594303E+02  0.00000000000E+00 0.  1.
<mgrwt>
<rscale>  0 0.17313022E+04</rscale>
<asrwt>0</asrwt>
<pdfrwt beam="1">  1        1 0.31586545E+00 0.17313022E+04</pdfrwt>
<pdfrwt beam="2">  1       -1 0.56150925E-01 0.17313022E+04</pdfrwt>
<totfact> 0.83551284E+00</totfact>
</mgrwt>
</event>
<event>
12    3  0.4688899E-008  0.1209935E+04  0.7818608E-02  0.9104204E-01
         -2   -1    0    0    0  501 -0.00000000000E+00  0.00000000000E+00  0.96744462131E+03  0.96744462131E+03  0.00000000000E+00 0.  1.
          2   -1    0    0  501    0  0.00000000000E+00 -0.00000000000E+00 -0.37830171070E+03  0.37830171070E+03  0.00000000000E+00 0. -1.
         23    2    1    2    0    0  0.16443296254E+03  0.64965423144E+02 -0.80507566513E+02  0.21458095112E+03  0.91130735451E+02 0.  0.
        254    2    1    2    0    0 -0.16443296254E+03 -0.64965423144E+02  0.66965047712E+03  0.11311653809E+04  0.89434034463E+03 0.  0.
         23    2    4    4    0    0 -0.39574279361E+03 -0.12830891411E+03  0.75048025385E+03  0.86298803478E+03  0.91935850628E+02 0.  0.
         23    2    4    4    0    0  0.23130983107E+03  0.63343490963E+02 -0.80829776726E+02  0.26817734610E+03  0.88707386168E+02 0.  0.
          2    1    3    3  502    0  0.13306109347E+03  0.91228403698E+01 -0.66426954825E+02  0.14900007094E+03  0.00000000000E+00 0. -1.
         -2    1    3    3    0  502  0.31371869065E+02  0.55842582774E+02 -0.14080611688E+02  0.65580880179E+02  0.00000000000E+00 0.  1.
         13    1    5    5    0    0 -0.54411030904E+02 -0.19646795592E+02  0.50998671067E+02  0.77119526137E+02  0.00000000000E+00 0. -1.
        -13    1    5    5    0    0 -0.34133176270E+03 -0.10866211852E+03  0.69948158278E+03  0.78586850864E+03  0.00000000000E+00 0.  1.
          1    1    6    6  503    0  0.28919880904E+02  0.36865662439E+02 -0.36275582339E+02  0.59256682768E+02  0.00000000000E+00 0. -1.
         -1    1    6    6    0  503  0.20238995016E+03  0.26477828524E+02 -0.44554194387E+02  0.20892066333E+03  0.00000000000E+00 0.  1.
<mgrwt>
<rscale>  0 0.12099355E+04</rscale>
<asrwt>0</asrwt>
<pdfrwt beam="1">  1        2 0.58200263E-01 0.12099355E+04</pdfrwt>
<pdfrwt beam="2">  1       -2 0.14883763E+00 0.12099355E+04</pdfrwt>
<totfact> 0.25513772E+01</totfact>
</mgrwt>
</event>
<event>
12    3  0.4688899E-008  0.1132108E+04  0.7818608E-02  0.9174450E-01
          2   -1    0    0  501    0  0.00000000000E+00  0.00000000000E+00  0.19635186979E+03  0.19635186979E+03  0.00000000000E+00 0. -1.
         -2   -1    0    0    0  501 -0.00000000000E+00 -0.00000000000E+00 -0.16318530453E+04  0.16318530453E+04  0.00000000000E+00 0.  1.
         23    2    1    2    0    0  0.37172359561E+02  0.24185699691E+02 -0.61628291002E+03  0.62598641461E+03  0.10043721278E+03 0.  0.
        254    2    1    2    0    0 -0.37172359561E+02 -0.24185699691E+02 -0.81921826550E+03  0.12022185005E+04  0.87877415984E+03 0.  0.
         23    2    4    4    0    0  0.22740047900E+03  0.11296182574E+03 -0.84837051517E+03  0.88995418236E+03  0.88400021343E+02 0.  0.
         23    2    4    4    0    0 -0.26457283856E+03 -0.13714752543E+03  0.29152249670E+02  0.31226431813E+03  0.88605417878E+02 0.  0.
          4    1    3    3  502    0 -0.76658025193E+01 -0.19649276367E+02 -0.40614530969E+03  0.40669260034E+03  0.00000000000E+00 0.  1.
         -4    1    3    3    0  502  0.44838162080E+02  0.43834976058E+02 -0.21013760033E+03  0.21929381427E+03  0.00000000000E+00 0. -1.
         13    1    5    5    0    0  0.23315428417E+03  0.11567436988E+03 -0.84025977099E+03  0.87964649878E+03  0.00000000000E+00 0.  1.
        -13    1    5    5    0    0 -0.57538051688E+01 -0.27125441471E+01 -0.81107441783E+01  0.10307683580E+02  0.00000000000E+00 0. -1.
          1    1    6    6  503    0 -0.11871638734E+03 -0.83520311841E+02 -0.25808648700E+02  0.14742899803E+03  0.00000000000E+00 0. -1.
         -1    1    6    6    0  503 -0.14585645123E+03 -0.53627213587E+02  0.54960898371E+02  0.16483532010E+03  0.00000000000E+00 0.  1.
<mgrwt>
<rscale>  0 0.11321085E+04</rscale>
<asrwt>0</asrwt>
<pdfrwt beam="1">  1        2 0.30207980E-01 0.11321085E+04</pdfrwt>
<pdfrwt beam="2">  1       -2 0.25105431E+00 0.11321085E+04</pdfrwt>
<totfact> 0.11129068E+01</totfact>
</mgrwt>
</event>
<event>
12    3  0.4688899E-008  0.1653707E+04  0.7818608E-02  0.8788217E-01
          2   -1    0    0  501    0  0.00000000000E+00  0.00000000000E+00  0.19404557636E+04  0.19404557636E+04  0.00000000000E+00 0. -1.
         -2   -1    0    0    0  501 -0.00000000000E+00 -0.00000000000E+00 -0.35233302684E+03  0.35233302684E+03  0.00000000000E+00 0.  1.
         23    2    1    2    0    0  0.51310571839E+03  0.24945693882E+03  0.41922579400E+03  0.71407734506E+03  0.93005084820E+02 0.  0.
        254    2    1    2    0    0 -0.51310571839E+03 -0.24945693882E+03  0.11688969427E+04  0.15787114454E+04  0.89470862429E+03 0.  0.
         23    2    4    4    0    0  0.27754539241E+02  0.12401790657E+03 -0.71339397268E+02  0.17212615356E+03  0.91582463053E+02 0.  0.
         23    2    4    4    0    0 -0.54086025763E+03 -0.37347484539E+03  0.12402363400E+04  0.14065852918E+04  0.91009480845E+02 0.  0.
          1    1    3    3  502    0  0.15578017535E+03  0.10530307514E+03  0.18147340561E+03  0.26132125365E+03  0.00000000000E+00 0. -1.
         -1    1    3    3    0  502  0.35732554304E+03  0.14415386368E+03  0.23775238839E+03  0.45275609141E+03  0.00000000000E+00 0.  1.
         13    1    5    5    0    0 -0.16843353201E+00 -0.28107433082E+01  0.15595693029E+02  0.15847848083E+02  0.00000000000E+00 0. -1.
        -13    1    5    5    0    0  0.27922972773E+02  0.12682864988E+03 -0.86935090297E+02  0.15627830548E+03  0.00000000000E+00 0.  1.
          2    1    6    6  503    0 -0.23137707004E+02 -0.98561760220E+01  0.20153615836E+02  0.32228340362E+02  0.00000000000E+00 0. -1.
         -2    1    6    6    0  503 -0.51772255063E+03 -0.36361866937E+03  0.12200827242E+04  0.13743569514E+04  0.00000000000E+00 0.  1.
<mgrwt>
<rscale>  0 0.16537069E+04</rscale>
<asrwt>0</asrwt>
<pdfrwt beam="1">  1        2 0.29853165E+00 0.16537069E+04</pdfrwt>
<pdfrwt beam="2">  1       -2 0.54205082E-01 0.16537069E+04</pdfrwt>
<totfact> 0.22067463E+01</totfact>
</mgrwt>
</event>
<event>
12    3  0.4688899E-008  0.1651956E+04  0.7818608E-02  0.8789250E-01
         -1   -1    0    0    0  501 -0.00000000000E+00  0.00000000000E+00  0.13598933209E+04  0.13598933209E+04  0.00000000000E+00 0.  1.
          1   -1    0    0  501    0  0.00000000000E+00 -0.00000000000E+00 -0.50168634819E+03  0.50168634819E+03  0.00000000000E+00 0. -1.
         23    2    1    2    0    0 -0.23888672829E+03 -0.10204409506E+02 -0.29077998036E+03  0.38699142600E+03  0.89656945579E+02 0.  0.
        254    2    1    2    0    0  0.23888672829E+03  0.10204409506E+02  0.11489869530E+04  0.14745882430E+04  0.89278691152E+03 0.  0.
         23    2    4    4    0    0 -0.14512364986E+03 -0.14035473513E+03 -0.28905841245E+02  0.22306362352E+03  0.90341059648E+02 0.  0.
         23    2    4    4    0    0  0.38401037814E+03  0.15055914464E+03  0.11778927943E+04  0.12515246195E+04  0.93543636462E+02 0.  0.
          1    1    3    3  502    0 -0.81024068827E+02  0.32118435907E+02 -0.13828022426E+03  0.16345615337E+03  0.00000000000E+00 0. -1.
         -1    1    3    3    0  502 -0.15786265946E+03 -0.42322845412E+02 -0.15249975611E+03  0.22353527263E+03  0.00000000000E+00 0.  1.
         13    1    5    5    0    0 -0.35800576355E+02 -0.52144572675E+02  0.30892918240E+02  0.70392543100E+02  0.00000000000E+00 0. -1.
        -13    1    5    5    0    0 -0.10932307350E+03 -0.88210162458E+02 -0.59798759486E+02  0.15267108042E+03  0.00000000000E+00 0.  1.
          1    1    6    6  503    0  0.35866676473E+01  0.16710107455E+02  0.82531799784E+02  0.84282796890E+02  0.00000000000E+00 0. -1.
         -1    1    6    6    0  503  0.38042371050E+03  0.13384903718E+03  0.10953609945E+04  0.11672418226E+04  0.00000000000E+00 0.  1.
<mgrwt>
<rscale>  0 0.16519563E+04</rscale>
<asrwt>0</asrwt>
<pdfrwt beam="1">  1        1 0.77182516E-01 0.16519563E+04</pdfrwt>
<pdfrwt beam="2">  1       -1 0.20921436E+00 0.16519563E+04</pdfrwt>
<totfact> 0.54848539E+00</totfact>
</mgrwt>
</event>
<event>
12    3  0.4688899E-008  0.1713505E+04  0.7818608E-02  0.8753699E-01
         -2   -1    0    0    0  501 -0.00000000000E+00  0.00000000000E+00  0.55658712600E+03  0.55658712600E+03  0.00000000000E+00 0. -1.
          2   -1    0    0  501    0  0.00000000000E+00 -0.00000000000E+00 -0.13187960902E+04  0.13187960902E+04  0.00000000000E+00 0.  1.
         23    2    1    2    0    0 -0.15917161324E+03  0.25695149919E+03  0.30199262235E+03  0.43694440365E+03  0.91439556731E+02 0.  0.
        254    2    1    2    0    0  0.15917161324E+03 -0.25695149919E+03 -0.10642015866E+04  0.14384388126E+04  0.91935930151E+03 0.  0.
         23    2    4    4    0    0 -0.33161777182E+03  0.54189646971E+02 -0.22740517170E+03  0.41575392895E+03  0.90726803653E+02 0.  0.
         23    2    4    4    0    0  0.49078938506E+03 -0.31114114616E+03 -0.83679641489E+03  0.10226848836E+04  0.89292205231E+02 0.  0.
          4    1    3    3  502    0 -0.11801196776E+03  0.19453265553E+03  0.27620746135E+03  0.35785519461E+03  0.00000000000E+00 0. -1.
         -4    1    3    3    0  502 -0.41159645483E+02  0.62418843657E+02  0.25785160995E+02  0.79089209044E+02  0.00000000000E+00 0.  1.
         13    1    5    5    0    0 -0.85624646995E+02  0.22448423437E+02 -0.16215444432E+02  0.89991402511E+02  0.00000000000E+00 0. -1.
        -13    1    5    5    0    0 -0.24599312483E+03  0.31741223534E+02 -0.21118972726E+03  0.32576252644E+03  0.00000000000E+00 0.  1.
          1    1    6    6  503    0  0.18544577169E+03 -0.14641496450E+03 -0.40367392486E+03  0.46773936512E+03  0.00000000000E+00 0. -1.
         -1    1    6    6    0  503  0.30534361338E+03 -0.16472618167E+03 -0.43312249003E+03  0.55494551852E+03  0.00000000000E+00 0.  1.
<mgrwt>
<rscale>  0 0.17135051E+04</rscale>
<asrwt>0</asrwt>
<pdfrwt beam="1">  1        2 0.20289170E+00 0.17135051E+04</pdfrwt>
<pdfrwt beam="2">  1       -2 0.85628789E-01 0.17135051E+04</pdfrwt>
<totfact> 0.18156088E+01</totfact>
</mgrwt>
</event>
<event>
12    3  0.4688899E-008  0.3349820E+04  0.7818608E-02  0.8150333E-01
         -1   -1    0    0    0  501 -0.00000000000E+00  0.00000000000E+00  0.82433809451E+03  0.82433809451E+03  0.00000000000E+00 0.  1.
          1   -1    0    0  501    0  0.00000000000E+00 -0.00000000000E+00 -0.34031229310E+04  0.34031229310E+04  0.00000000000E+00 0. -1.
         23    2    1    2    0    0 -0.86969602720E+03  0.77979859180E+03  0.96380274399E+02  0.11757780611E+04  0.93315959146E+02 0.  0.
        254    2    1    2    0    0  0.86969602720E+03 -0.77979859180E+03 -0.26751651109E+04  0.30516829644E+04  0.88983342327E+03 0.  0.
         23    2    4    4    0    0 -0.13270399848E+03 -0.35079590307E+02 -0.11168446111E+03  0.19870610923E+03  0.90386780685E+02 0.  0.
         23    2    4    4    0    0  0.10024000257E+04 -0.74471900149E+03 -0.25634806498E+04  0.28529768551E+04  0.92906898060E+02 0.  0.
          4    1    3    3  502    0 -0.10231390674E+03  0.79676058597E+02 -0.17205879510E+02  0.13081457149E+03  0.00000000000E+00 0. -1.
         -4    1    3    3    0  502 -0.76738212046E+03  0.70012253320E+03  0.11358615391E+03  0.10449634896E+04  0.00000000000E+00 0.  1.
         13    1    5    5    0    0 -0.11279622312E+02 -0.10115254470E+02 -0.64192162181E+02  0.65955909045E+02  0.00000000000E+00 0.  1.
        -13    1    5    5    0    0 -0.12142437616E+03 -0.24964335837E+02 -0.47492298930E+02  0.13275020018E+03  0.00000000000E+00 0. -1.
          3    1    6    6  503    0  0.96585063187E+03 -0.70371580309E+03 -0.24820611783E+04  0.27547615264E+04  0.00000000000E+00 0. -1.
         -3    1    6    6    0  503  0.36549393805E+02 -0.41003198396E+02 -0.81419471454E+02  0.98215328733E+02  0.00000000000E+00 0.  1.
<mgrwt>
<rscale>  0 0.33498202E+04</rscale>
<asrwt>0</asrwt>
<pdfrwt beam="1">  1        1 0.52355737E+00 0.33498202E+04</pdfrwt>
<pdfrwt beam="2">  1       -1 0.12682125E+00 0.33498202E+04</pdfrwt>
<totfact> 0.13250433E-01</totfact>
</mgrwt>
</event>
<event>
12    3  0.4688899E-008  0.3409674E+04  0.7818608E-02  0.8135536E-01
          1   -1    0    0  501    0  0.00000000000E+00  0.00000000000E+00  0.42472046704E+04  0.42472046704E+04  0.00000000000E+00 0. -1.
         -1   -1    0    0    0  501 -0.00000000000E+00 -0.00000000000E+00 -0.68432524150E+03  0.68432524150E+03  0.00000000000E+00 0.  1.
         23    2    1    2    0    0 -0.10779499729E+04 -0.11504292786E+04  0.14435589193E+04  0.21395779890E+04  0.92021456820E+02 0.  0.
        254    2    1    2    0    0  0.10779499729E+04  0.11504292786E+04  0.21193205096E+04  0.27919519229E+04  0.90444040588E+03 0.  0.
         23    2    4    4    0    0  0.47709718718E+02  0.38738992390E+03  0.10365806252E+04  0.11114877191E+04  0.92511549139E+02 0.  0.
         23    2    4    4    0    0  0.10302402542E+04  0.76303935471E+03  0.10827398844E+04  0.16804642038E+04  0.89499969783E+02 0.  0.
          1    1    3    3  502    0 -0.80428030914E+03 -0.84021204236E+03  0.11160076647E+04  0.16119231369E+04  0.00000000000E+00 0. -1.
         -1    1    3    3    0  502 -0.27366966380E+03 -0.31021723625E+03  0.32755125460E+03  0.52765485209E+03  0.00000000000E+00 0.  1.
         13    1    5    5    0    0  0.54021406047E+01  0.32831390852E+03  0.83859479486E+03  0.90058893820E+03  0.00000000000E+00 0. -1.
        -13    1    5    5    0    0  0.42307578113E+02  0.59076015388E+02  0.19798583035E+03  0.21089878089E+03  0.00000000000E+00 0.  1.
          3    1    6    6  503    0  0.89717645871E+03  0.68206982822E+03  0.91620509223E+03  0.14524381638E+04  0.00000000000E+00 0. -1.
         -3    1    6    6    0  503  0.13306379551E+03  0.80969526485E+02  0.16653479219E+03  0.22802603997E+03  0.00000000000E+00 0.  1.
<mgrwt>
<rscale>  0 0.34096741E+04</rscale>
<asrwt>0</asrwt>
<pdfrwt beam="1">  1        1 0.65341609E+00 0.34096741E+04</pdfrwt>
<pdfrwt beam="2">  1       -1 0.10528081E+00 0.34096741E+04</pdfrwt>
<totfact> 0.39616627E-02</totfact>
</mgrwt>
</event>
<event>
12    3  0.4688899E-008  0.2292060E+04  0.7818608E-02  0.8481058E-01
          2   -1    0    0  501    0  0.00000000000E+00  0.00000000000E+00  0.17981282675E+04  0.17981282675E+04  0.00000000000E+00 0. -1.
         -2   -1    0    0    0  501 -0.00000000000E+00 -0.00000000000E+00 -0.73041747107E+03  0.73041747107E+03  0.00000000000E+00 0.  1.
         23    2    1    2    0    0 -0.51095727728E+03  0.49626668042E+03  0.11739647899E+04  0.13769730771E+04  0.10248692456E+03 0.  0.
        254    2    1    2    0    0  0.51095727728E+03 -0.49626668042E+03 -0.10625399346E+03  0.11515726615E+04  0.89859430577E+03 0.  0.
         23    2    4    4    0    0  0.46104704656E+02 -0.29623793813E+03 -0.43850972743E+03  0.53920095973E+03  0.92543687763E+02 0.  0.
         23    2    4    4    0    0  0.46485257263E+03 -0.20002874228E+03  0.33225573397E+03  0.61237170180E+03  0.92226982970E+02 0.  0.
          3    1    3    3  502    0 -0.45724924822E+03  0.41670606950E+03  0.95470705501E+03  0.11376231293E+04  0.00000000000E+00 0. -1.
         -3    1    3    3    0  502 -0.53708029057E+02  0.79560610920E+02  0.21925773493E+03  0.23934994782E+03  0.00000000000E+00 0.  1.
         13    1    5    5    0    0  0.34366373235E+02 -0.12598414964E+03 -0.11759831676E+03  0.17573394001E+03  0.00000000000E+00 0.  1.
        -13    1    5    5    0    0  0.11738331421E+02 -0.17025378850E+03 -0.32091141067E+03  0.36346701972E+03  0.00000000000E+00 0. -1.
          3    1    6    6  503    0  0.75054619879E+01 -0.22570310134E+02  0.13717371877E+02  0.27457551792E+02  0.00000000000E+00 0. -1.
         -3    1    6    6    0  503  0.45734711064E+03 -0.17745843215E+03  0.31853836209E+03  0.58491415000E+03  0.00000000000E+00 0.  1.
<mgrwt>
<rscale>  0 0.22920596E+04</rscale>
<asrwt>0</asrwt>
<pdfrwt beam="1">  1        2 0.27663512E+00 0.22920596E+04</pdfrwt>
<pdfrwt beam="2">  1       -2 0.11237192E+00 0.22920596E+04</pdfrwt>
<totfact> 0.48954453E+00</totfact>
</mgrwt>
</event>
<event>
12    3  0.4688899E-008  0.2002925E+04  0.7818608E-02  0.8605255E-01
          2   -1    0    0  501    0  0.00000000000E+00  0.00000000000E+00  0.74482319627E+03  0.74482319627E+03  0.00000000000E+00 0. -1.
         -2   -1    0    0    0  501 -0.00000000000E+00 -0.00000000000E+00 -0.13465299312E+04  0.13465299312E+04  0.00000000000E+00 0.  1.
         23    2    1    2    0    0  0.23578706180E+03 -0.22452457790E+03 -0.99806561329E+03  0.10549843372E+04  0.10416409531E+03 0.  0.
        254    2    1    2    0    0 -0.23578706180E+03  0.22452457790E+03  0.39635887833E+03  0.10363687903E+04  0.90052933569E+03 0.  0.
         23    2    4    4    0    0 -0.39200221871E+03 -0.23336168902E+03  0.20483462647E+03  0.50833116896E+03  0.91213681892E+02 0.  0.
         23    2    4    4    0    0  0.15621515690E+03  0.45788626692E+03  0.19152425186E+03  0.52803762132E+03  0.89884268911E+02 0.  0.
          3    1    3    3  502    0  0.17743553380E+02 -0.55105026328E+02 -0.27411617197E+03  0.28016258377E+03  0.00000000000E+00 0. -1.
         -3    1    3    3    0  502  0.21804350842E+03 -0.16941955157E+03 -0.72394944133E+03  0.77482175345E+03  0.00000000000E+00 0.  1.
         13    1    5    5    0    0 -0.27108375780E+01 -0.22188970293E+02  0.95316072787E+01  0.24301246477E+02  0.00000000000E+00 0. -1.
        -13    1    5    5    0    0 -0.38929138113E+03 -0.21117271872E+03  0.19530301919E+03  0.48402992248E+03  0.00000000000E+00 0.  1.
          4    1    6    6  503    0  0.29694060565E+02  0.35862581690E+02 -0.24973553040E+01  0.46627232191E+02  0.00000000000E+00 0. -1.
         -4    1    6    6    0  503  0.12652109634E+03  0.42202368523E+03  0.19402160716E+03  0.48141038913E+03  0.00000000000E+00 0.  1.
<mgrwt>
<rscale>  0 0.20029246E+04</rscale>
<asrwt>0</asrwt>
<pdfrwt beam="1">  1        2 0.11458818E+00 0.20029246E+04</pdfrwt>
<pdfrwt beam="2">  1       -2 0.20715845E+00 0.20029246E+04</pdfrwt>
<totfact> 0.41957285E+00</totfact>
</mgrwt>
</event>
<event>
12    3  0.4688899E-008  0.1692392E+04  0.7818608E-02  0.8765715E-01
         -1   -1    0    0    0  501 -0.00000000000E+00  0.00000000000E+00  0.93247285274E+03  0.93247285274E+03  0.00000000000E+00 0.  1.
          1   -1    0    0  501    0  0.00000000000E+00 -0.00000000000E+00 -0.76790225208E+03  0.76790225208E+03  0.00000000000E+00 0. -1.
         23    2    1    2    0    0 -0.14453747838E+03 -0.16907871517E+03 -0.50765027739E+03  0.56155037764E+03  0.90284704758E+02 0.  0.
        254    2    1    2    0    0  0.14453747838E+03  0.16907871517E+03  0.67222087805E+03  0.11388247272E+04  0.89194291061E+03 0.  0.
         23    2    4    4    0    0 -0.10211633642E+02 -0.65399685050E+01 -0.20563786044E+03  0.22594606905E+03  0.92831286876E+02 0.  0.
         23    2    4    4    0    0  0.15474911202E+03  0.17561868367E+03  0.87785873849E+03  0.91287865813E+03  0.89007134580E+02 0.  0.
          2    1    3    3  502    0 -0.82996541047E+02 -0.11860772163E+03 -0.22207504195E+03  0.26509157232E+03  0.00000000000E+00 0. -1.
         -2    1    3    3    0  502 -0.61540937333E+02 -0.50470993534E+02 -0.28557523543E+03  0.29645880532E+03  0.00000000000E+00 0.  1.
         13    1    5    5    0    0 -0.75151256621E+01 -0.45885879358E+00 -0.21462933968E+03  0.21476135853E+03  0.00000000000E+00 0. -1.
        -13    1    5    5    0    0 -0.26965079796E+01 -0.60811097114E+01  0.89914792384E+01  0.11184710524E+02  0.00000000000E+00 0.  1.
          1    1    6    6  503    0  0.11156942389E+03  0.70283411568E+02  0.55788127546E+03  0.57325300853E+03  0.00000000000E+00 0. -1.
         -1    1    6    6    0  503  0.43179688137E+02  0.10533527210E+03  0.31997746303E+03  0.33962564960E+03  0.00000000000E+00 0.  1.
<mgrwt>
<rscale>  0 0.16923924E+04</rscale>
<asrwt>0</asrwt>
<pdfrwt beam="1">  1        1 0.11813881E+00 0.16923924E+04</pdfrwt>
<pdfrwt beam="2">  1       -1 0.14345736E+00 0.16923924E+04</pdfrwt>
<totfact> 0.88350027E+00</totfact>
</mgrwt>
</event>
<event>
12    3  0.4688899E-008  0.3375533E+04  0.7818608E-02  0.8143938E-01
          1   -1    0    0  501    0  0.00000000000E+00  0.00000000000E+00  0.37400724571E+04  0.37400724571E+04  0.00000000000E+00 0. -1.
         -1   -1    0    0    0  501 -0.00000000000E+00 -0.00000000000E+00 -0.76163097726E+03  0.76163097726E+03  0.00000000000E+00 0.  1.
         23    2    1    2    0    0 -0.11411256904E+04 -0.73392644637E+03  0.33970341017E+03  0.14016504744E+04  0.91704829062E+02 0.  0.
        254    2    1    2    0    0  0.11411256904E+04  0.73392644637E+03  0.26387380696E+04  0.31000529599E+04  0.89809458528E+03 0.  0.
         23    2    4    4    0    0  0.14390134107E+03  0.59093176213E+03  0.96049019433E+03  0.11403760216E+04  0.89488064874E+02 0.  0.
         23    2    4    4    0    0  0.99722434932E+03  0.14299468424E+03  0.16782478753E+04  0.19596769383E+04  0.94413394175E+02 0.  0.
          1    1    3    3  502    0 -0.23138736020E+03 -0.14970862872E+03  0.31392958395E+02  0.27737754381E+03  0.00000000000E+00 0. -1.
         -1    1    3    3    0  502 -0.90973833018E+03 -0.58421781765E+03  0.30831045178E+03  0.11242729306E+04  0.00000000000E+00 0.  1.
         13    1    5    5    0    0  0.80472387369E+02  0.28676947267E+03  0.38956359710E+03  0.49037978320E+03  0.00000000000E+00 0.  1.
        -13    1    5    5    0    0  0.63428953700E+02  0.30416228946E+03  0.57092659723E+03  0.64999623839E+03  0.00000000000E+00 0. -1.
          2    1    6    6  503    0  0.30907961232E+03  0.78131715848E+02  0.47591265626E+03  0.57282425591E+03  0.00000000000E+00 0. -1.
         -2    1    6    6    0  503  0.68814473699E+03  0.64862968393E+02  0.12023352191E+04  0.13868526824E+04  0.00000000000E+00 0.  1.
<mgrwt>
<rscale>  0 0.33755326E+04</rscale>
<asrwt>0</asrwt>
<pdfrwt beam="1">  1        1 0.57539575E+00 0.33755326E+04</pdfrwt>
<pdfrwt beam="2">  1       -1 0.11717400E+00 0.33755326E+04</pdfrwt>
<totfact> 0.86330272E-02</totfact>
</mgrwt>
</event>
<event>
12    3  0.4688899E-008  0.2344435E+04  0.7818608E-02  0.8460604E-01
         -1   -1    0    0    0  501 -0.00000000000E+00  0.00000000000E+00  0.55265362617E+03  0.55265362617E+03  0.00000000000E+00 0.  1.
          1   -1    0    0  501    0  0.00000000000E+00 -0.00000000000E+00 -0.24863572968E+04  0.24863572968E+04  0.00000000000E+00 0. -1.
         23    2    1    2    0    0 -0.22403559528E+03  0.10064736450E+03  0.42657693890E+03  0.50046540587E+03  0.90420670949E+02 0.  0.
        254    2    1    2    0    0  0.22403559528E+03 -0.10064736450E+03 -0.23602806095E+04  0.25385455171E+04  0.90164679712E+03 0.  0.
         23    2    4    4    0    0  0.55003251853E+03  0.43386162609E+02 -0.15718656855E+04  0.16683940066E+04  0.91425912236E+02 0.  0.
         23    2    4    4    0    0 -0.32599692324E+03 -0.14403352711E+03 -0.78841492394E+03  0.87015151043E+03  0.92444079963E+02 0.  0.
          2    1    3    3  502    0 -0.47830519349E+02 -0.14249423480E+02  0.62428037016E+02  0.79925368040E+02  0.00000000000E+00 0. -1.
         -2    1    3    3    0  502 -0.17620507594E+03  0.11489678798E+03  0.36414890188E+03  0.42054003783E+03  0.00000000000E+00 0.  1.
         13    1    5    5    0    0  0.39015339538E+03  0.47189353935E+02 -0.12236408919E+04  0.12852017504E+04  0.00000000000E+00 0. -1.
        -13    1    5    5    0    0  0.15987912315E+03 -0.38031913266E+01 -0.34822479366E+03  0.38319225619E+03  0.00000000000E+00 0.  1.
          1    1    6    6  503    0 -0.22670661428E+03 -0.14006550194E+03 -0.52837717661E+03  0.59177417530E+03  0.00000000000E+00 0. -1.
         -1    1    6    6    0  503 -0.99290308957E+02 -0.39680251726E+01 -0.26003774734E+03  0.27837733513E+03  0.00000000000E+00 0.  1.
<mgrwt>
<rscale>  0 0.23444354E+04</rscale>
<asrwt>0</asrwt>
<pdfrwt beam="1">  1        1 0.38251650E+00 0.23444354E+04</pdfrwt>
<pdfrwt beam="2">  1       -1 0.85023636E-01 0.23444354E+04</pdfrwt>
<totfact> 0.17055683E+00</totfact>
</mgrwt>
</event>
<event>
12    3  0.4688899E-008  0.1619830E+04  0.7818608E-02  0.8808457E-01
         -2   -1    0    0    0  501 -0.00000000000E+00  0.00000000000E+00  0.37966907079E+03  0.37966907079E+03  0.00000000000E+00 0.  1.
          2   -1    0    0  501    0  0.00000000000E+00 -0.00000000000E+00 -0.17277215614E+04  0.17277215614E+04  0.00000000000E+00 0. -1.
         23    2    1    2    0    0  0.28983525128E+03 -0.78306431018E+02 -0.10910347961E+04  0.11353463016E+04  0.92292622416E+02 0.  0.
        254    2    1    2    0    0 -0.28983525128E+03  0.78306431018E+02 -0.25701769452E+03  0.97204433063E+03  0.88807416097E+03 0.  0.
         23    2    4    4    0    0 -0.31569815380E+02 -0.17063742918E+03 -0.49469802166E+03  0.53240262448E+03  0.92804291050E+02 0.  0.
         23    2    4    4    0    0 -0.25826543590E+03  0.24894386020E+03  0.23768032714E+03  0.43964170615E+03  0.90104444743E+02 0.  0.
          1    1    3    3  502    0  0.22676357380E+03 -0.41765757424E+02 -0.68352095536E+03  0.72136467429E+03  0.00000000000E+00 0. -1.
         -1    1    3    3    0  502  0.63071677479E+02 -0.36540673594E+02 -0.40751384074E+03  0.41398162728E+03  0.00000000000E+00 0.  1.
         13    1    5    5    0    0 -0.24354636358E+02 -0.17239391604E+03 -0.49524407652E+03  0.52495667052E+03  0.00000000000E+00 0.  1.
        -13    1    5    5    0    0 -0.72151790218E+01  0.17564868613E+01  0.54605485778E+00  0.74459539562E+01  0.00000000000E+00 0. -1.
          2    1    6    6  503    0 -0.61082889662E+02  0.14051582969E+02  0.49064135432E+02  0.79598089042E+02  0.00000000000E+00 0. -1.
         -2    1    6    6    0  503 -0.19718254624E+03  0.23489227723E+03  0.18861619171E+03  0.36004361711E+03  0.00000000000E+00 0.  1.
<mgrwt>
<rscale>  0 0.16198302E+04</rscale>
<asrwt>0</asrwt>
<pdfrwt beam="1">  1        2 0.26580332E+00 0.16198302E+04</pdfrwt>
<pdfrwt beam="2">  1       -2 0.58410626E-01 0.16198302E+04</pdfrwt>
<totfact> 0.24836915E+01</totfact>
</mgrwt>
</event>
<event>
12    3  0.4688899E-008  0.1329181E+04  0.7818608E-02  0.9006739E-01
          2   -1    0    0  501    0  0.00000000000E+00  0.00000000000E+00  0.10258835077E+04  0.10258835077E+04  0.00000000000E+00 0.  1.
         -2   -1    0    0    0  501 -0.00000000000E+00 -0.00000000000E+00 -0.43053675462E+03  0.43053675462E+03  0.00000000000E+00 0. -1.
         23    2    1    2    0    0  0.12427423704E+03 -0.19136734446E+03  0.45403896738E+03  0.51717588267E+03  0.96197521791E+02 0.  0.
        254    2    1    2    0    0 -0.12427423704E+03  0.19136734446E+03  0.14130778571E+03  0.93924437966E+03  0.90008142293E+03 0.  0.
         23    2    4    4    0    0 -0.42055720180E+03  0.35251469558E+02  0.33024367862E+03  0.54377112504E+03  0.92277424449E+02 0.  0.
         23    2    4    4    0    0  0.29628296475E+03  0.15611587491E+03 -0.18893589291E+03  0.39547325463E+03  0.92447617017E+02 0.  0.
          2    1    3    3  502    0  0.23128978726E+02 -0.41494775439E+02  0.19871257580E+03  0.20431214801E+03  0.00000000000E+00 0. -1.
         -2    1    3    3    0  502  0.10114525832E+03 -0.14987256903E+03  0.25532639158E+03  0.31286373466E+03  0.00000000000E+00 0.  1.
         13    1    5    5    0    0 -0.43513206436E+01  0.35922682322E+01 -0.56587560597E+01  0.79912391116E+01  0.00000000000E+00 0.  1.
        -13    1    5    5    0    0 -0.41620588116E+03  0.31659201326E+02  0.33590243468E+03  0.53577988592E+03  0.00000000000E+00 0. -1.
          3    1    6    6  503    0  0.24405812235E+03  0.15554923364E+03 -0.18413704008E+03  0.34302533537E+03  0.00000000000E+00 0. -1.
         -3    1    6    6    0  503  0.52224842401E+02  0.56664126356E+00 -0.47988528324E+01  0.52447919259E+02  0.00000000000E+00 0.  1.
<mgrwt>
<rscale>  0 0.13291810E+04</rscale>
<asrwt>0</asrwt>
<pdfrwt beam="1">  1        2 0.15782823E+00 0.13291810E+04</pdfrwt>
<pdfrwt beam="2">  1       -2 0.66236424E-01 0.13291810E+04</pdfrwt>
<totfact> 0.49725718E+01</totfact>
</mgrwt>
</event>
<event>
12    3  0.4688899E-008  0.1741658E+04  0.7818608E-02  0.8737956E-01
          2   -1    0    0  501    0  0.00000000000E+00  0.00000000000E+00  0.60559124977E+03  0.60559124977E+03  0.00000000000E+00 0. -1.
         -2   -1    0    0    0  501 -0.00000000000E+00 -0.00000000000E+00 -0.12522353982E+04  0.12522353982E+04  0.00000000000E+00 0.  1.
         23    2    1    2    0    0  0.13011490825E+03 -0.37092095608E+03 -0.76198455768E+03  0.86369615493E+03  0.10410733350E+03 0.  0.
        254    2    1    2    0    0 -0.13011490825E+03  0.37092095608E+03  0.11534040922E+03  0.99413049306E+03  0.90580339049E+03 0.  0.
         23    2    4    4    0    0 -0.34973278210E+03  0.51293753346E+03  0.26172439679E+03  0.67979543002E+03  0.90577230601E+02 0.  0.
         23    2    4    4    0    0  0.21961787384E+03 -0.14201657737E+03 -0.14638398757E+03  0.31433506304E+03  0.94749888036E+02 0.  0.
          4    1    3    3  502    0  0.25528113348E+02 -0.78936649529E+01 -0.31550942578E+02  0.41345574069E+02  0.00000000000E+00 0. -1.
         -4    1    3    3    0  502  0.10458679491E+03 -0.36302729113E+03 -0.73043361510E+03  0.82235058086E+03  0.00000000000E+00 0.  1.
         13    1    5    5    0    0 -0.25487710981E+02  0.95166312778E+02  0.43787545865E+02  0.10781279920E+03  0.00000000000E+00 0. -1.
        -13    1    5    5    0    0 -0.32424507112E+03  0.41777122068E+03  0.21793685092E+03  0.57198263082E+03  0.00000000000E+00 0.  1.
          1    1    6    6  503    0  0.15000795655E+01  0.79908695510E-01 -0.28546712268E+02  0.28586210057E+02  0.00000000000E+00 0. -1.
         -1    1    6    6    0  503  0.21811779428E+03 -0.14209648607E+03 -0.11783727530E+03  0.28574885299E+03  0.00000000000E+00 0.  1.
<mgrwt>
<rscale>  0 0.17416576E+04</rscale>
<asrwt>0</asrwt>
<pdfrwt beam="1">  1        2 0.93167885E-01 0.17416576E+04</pdfrwt>
<pdfrwt beam="2">  1       -2 0.19265160E+00 0.17416576E+04</pdfrwt>
<totfact> 0.69144656E+00</totfact>
</mgrwt>
</event>
<event>
12    3  0.4688899E-008  0.3572405E+04  0.7818608E-02  0.8096842E-01
          2   -1    0    0  501    0  0.00000000000E+00  0.00000000000E+00  0.15181672114E+04  0.15181672114E+04  0.00000000000E+00 0. -1.
         -2   -1    0    0    0  501 -0.00000000000E+00 -0.00000000000E+00 -0.21015598378E+04  0.21015598378E+04  0.00000000000E+00 0.  1.
         23    2    1    2    0    0  0.46960202537E+03  0.10649234241E+04 -0.14898796657E+04  0.18927516330E+04  0.90439838980E+02 0.  0.
        254    2    1    2    0    0 -0.46960202537E+03 -0.10649234241E+04  0.90648703934E+03  0.17269754162E+04  0.89785153241E+03 0.  0.
         23    2    4    4    0    0 -0.21167043945E+03 -0.82182225474E+03  0.12252137532E+03  0.86230638208E+03  0.91458273750E+02 0.  0.
         23    2    4    4    0    0 -0.25793158591E+03 -0.24310116938E+03  0.78396566402E+03  0.86466903414E+03  0.86159704429E+02 0.  0.
          2    1    3    3  502    0  0.19031351048E+03  0.36081764292E+03 -0.46982629961E+03  0.62221005739E+03  0.00000000000E+00 0. -1.
         -2    1    3    3    0  502  0.27928851488E+03  0.70410578120E+03 -0.10200533661E+04  0.12705415756E+04  0.00000000000E+00 0.  1.
         13    1    5    5    0    0 -0.10061205639E+03 -0.31864276486E+03  0.69840524885E+01  0.33422264208E+03  0.00000000000E+00 0. -1.
        -13    1    5    5    0    0 -0.11105838306E+03 -0.50317948988E+03  0.11553732283E+03  0.52808374000E+03  0.00000000000E+00 0.  1.
          3    1    6    6  503    0 -0.71865265330E+02 -0.11039060765E+03  0.35444301703E+03  0.37812769661E+03  0.00000000000E+00 0. -1.
         -3    1    6    6    0  503 -0.18606632058E+03 -0.13271056173E+03  0.42952264699E+03  0.48654133753E+03  0.00000000000E+00 0.  1.
<mgrwt>
<rscale>  0 0.35724049E+04</rscale>
<asrwt>0</asrwt>
<pdfrwt beam="1">  1        2 0.23356419E+00 0.35724049E+04</pdfrwt>
<pdfrwt beam="2">  1       -2 0.32331690E+00 0.35724049E+04</pdfrwt>
<totfact> 0.23124272E-01</totfact>
</mgrwt>
</event>
<event>
12    3  0.4688899E-008  0.1586961E+04  0.7818608E-02  0.8828598E-01
         -2   -1    0    0    0  501 -0.00000000000E+00  0.00000000000E+00  0.29106734417E+03  0.29106734417E+03  0.00000000000E+00 0.  1.
          2   -1    0    0  501    0  0.00000000000E+00 -0.00000000000E+00 -0.21631127437E+04  0.21631127437E+04  0.00000000000E+00 0. -1.
         23    2    1    2    0    0 -0.11811127355E+02 -0.61398556729E+02  0.18046222539E+03  0.21219301436E+03  0.92466075163E+02 0.  0.
        254    2    1    2    0    0  0.11811127355E+02  0.61398556729E+02 -0.20525076249E+04  0.22419870735E+04  0.89989399486E+03 0.  0.
         23    2    4    4    0    0  0.44015080217E+03  0.10444100850E+03 -0.10500543428E+04  0.11470874296E+04  0.92492137416E+02 0.  0.
         23    2    4    4    0    0 -0.42833967482E+03 -0.43042451766E+02 -0.10024532822E+04  0.10948996439E+04  0.92547920957E+02 0.  0.
          3    1    3    3  502    0 -0.98824014629E+01  0.11590093602E+02 -0.22831062343E+01  0.15401451310E+02  0.00000000000E+00 0. -1.
         -3    1    3    3    0  502 -0.19287258920E+01 -0.72988650331E+02  0.18274533162E+03  0.19679156306E+03  0.00000000000E+00 0.  1.
         13    1    5    5    0    0  0.26078237867E+03  0.17600437797E+02 -0.63414947753E+03  0.68590289713E+03  0.00000000000E+00 0. -1.
        -13    1    5    5    0    0  0.17936842350E+03  0.86840570698E+02 -0.41590486526E+03  0.46118453249E+03  0.00000000000E+00 0.  1.
          4    1    6    6  503    0 -0.37640118797E+03 -0.52333994524E+02 -0.93488251515E+03  0.10091689742E+04  0.00000000000E+00 0. -1.
         -4    1    6    6    0  503 -0.51938486842E+02  0.92915427577E+01 -0.67570767012E+02  0.85730669756E+02  0.00000000000E+00 0.  1.
<mgrwt>
<rscale>  0 0.15869612E+04</rscale>
<asrwt>0</asrwt>
<pdfrwt beam="1">  1        2 0.33278658E+00 0.15869612E+04</pdfrwt>
<pdfrwt beam="2">  1       -2 0.44779591E-01 0.15869612E+04</pdfrwt>
<totfact> 0.24605605E+01</totfact>
</mgrwt>
</event>
<event>
12    3  0.4688899E-008  0.1346729E+04  0.7818608E-02  0.8993308E-01
         -2   -1    0    0    0  501 -0.00000000000E+00  0.00000000000E+00  0.16926817702E+04  0.16926817702E+04  0.00000000000E+00 0.  1.
          2   -1    0    0  501    0  0.00000000000E+00 -0.00000000000E+00 -0.26787077637E+03  0.26787077637E+03  0.00000000000E+00 0. -1.
         23    2    1    2    0    0 -0.16068146169E+03  0.82977585933E+02  0.87036999823E+03  0.89306767825E+03  0.85569458475E+02 0.  0.
        254    2    1    2    0    0  0.16068146169E+03 -0.82977585933E+02  0.55444099558E+03  0.10674848683E+04  0.89410028216E+03 0.  0.
         23    2    4    4    0    0 -0.25768959467E+03 -0.31796685936E+03  0.20077552392E+03  0.46444624572E+03  0.88840606187E+02 0.  0.
         23    2    4    4    0    0  0.41837105637E+03  0.23498927343E+03  0.35366547166E+03  0.60303862257E+03  0.91225078952E+02 0.  0.
          4    1    3    3  502    0 -0.13782658468E+03  0.99548219665E+02  0.78316668259E+03  0.80140880217E+03  0.00000000000E+00 0.  1.
         -4    1    3    3    0  502 -0.22854877017E+02 -0.16570633732E+02  0.87203315640E+02  0.91658876081E+02  0.00000000000E+00 0. -1.
         13    1    5    5    0    0 -0.61077460635E+02 -0.14319795210E+03  0.70612810505E+02  0.17094525057E+03  0.00000000000E+00 0.  1.
        -13    1    5    5    0    0 -0.19661213404E+03 -0.17476890726E+03  0.13016271341E+03  0.29350099516E+03  0.00000000000E+00 0. -1.
          3    1    6    6  503    0  0.21622281095E+03  0.69513797655E+02  0.15900057509E+03  0.27724655980E+03  0.00000000000E+00 0. -1.
         -3    1    6    6    0  503  0.20214824542E+03  0.16547547577E+03  0.19466489657E+03  0.32579206277E+03  0.00000000000E+00 0.  1.
<mgrwt>
<rscale>  0 0.13467293E+04</rscale>
<asrwt>0</asrwt>
<pdfrwt beam="1">  1        2 0.41210890E-01 0.13467293E+04</pdfrwt>
<pdfrwt beam="2">  1       -2 0.26041257E+00 0.13467293E+04</pdfrwt>
<totfact> 0.67669026E+00</totfact>
</mgrwt>
</event>
<event>
12    3  0.4688899E-008  0.1934062E+04  0.7818608E-02  0.8638085E-01
          2   -1    0    0  501    0  0.00000000000E+00  0.00000000000E+00  0.23684865321E+04  0.23684865321E+04  0.00000000000E+00 0. -1.
         -2   -1    0    0    0  501 -0.00000000000E+00 -0.00000000000E+00 -0.39482983871E+03  0.39482983871E+03  0.00000000000E+00 0.  1.
         23    2    1    2    0    0 -0.40598042063E+02 -0.24422707879E+03  0.17622352704E+04  0.17818619192E+04  0.90904807548E+02 0.  0.
        254    2    1    2    0    0  0.40598042063E+02  0.24422707879E+03  0.21142142306E+03  0.98145445163E+03  0.92588268990E+03 0.  0.
         23    2    4    4    0    0  0.33882486297E+03 -0.57532324989E+02  0.37616648534E+03  0.51703821274E+03  0.87835258044E+02 0.  0.
         23    2    4    4    0    0 -0.29822682091E+03  0.30175940378E+03 -0.16474506228E+03  0.46441623888E+03  0.92431233448E+02 0.  0.
          1    1    3    3  502    0 -0.56227052414E+02 -0.20126487563E+03  0.15895563973E+04  0.16032337857E+04  0.00000000000E+00 0. -1.
         -1    1    3    3    0  502  0.15629010352E+02 -0.42962203161E+02  0.17267887310E+03  0.17862813351E+03  0.00000000000E+00 0.  1.
         13    1    5    5    0    0  0.27467204865E+03 -0.69004298375E+02  0.34001723562E+03  0.44251333090E+03  0.00000000000E+00 0.  1.
        -13    1    5    5    0    0  0.64152814319E+02  0.11471973386E+02  0.36149249726E+02  0.74524881846E+02  0.00000000000E+00 0. -1.
          1    1    6    6  503    0 -0.23008587155E+03  0.18000481150E+03 -0.87599460941E+02  0.30498345202E+03  0.00000000000E+00 0. -1.
         -1    1    6    6    0  503 -0.68140949353E+02  0.12175459228E+03 -0.77145601340E+02  0.15943278686E+03  0.00000000000E+00 0.  1.
<mgrwt>
<rscale>  0 0.19340622E+04</rscale>
<asrwt>0</asrwt>
<pdfrwt beam="1">  1        2 0.36438254E+00 0.19340622E+04</pdfrwt>
<pdfrwt beam="2">  1       -2 0.60743053E-01 0.19340622E+04</pdfrwt>
<totfact> 0.97704687E+00</totfact>
</mgrwt>
</event>
<event>
12    3  0.4688899E-008  0.1461665E+04  0.7818608E-02  0.8910353E-01
          1   -1    0    0  501    0  0.00000000000E+00  0.00000000000E+00  0.14819989777E+04  0.14819989777E+04  0.00000000000E+00 0. -1.
         -1   -1    0    0    0  501 -0.00000000000E+00 -0.00000000000E+00 -0.36040273177E+03  0.36040273177E+03  0.00000000000E+00 0.  1.
         23    2    1    2    0    0 -0.82169393655E+02 -0.26940678772E+03  0.79399639003E+03  0.84732994298E+03  0.90586634552E+02 0.  0.
        254    2    1    2    0    0  0.82169393655E+02  0.26940678772E+03  0.32759985588E+03  0.99507176648E+03  0.89638960746E+03 0.  0.
         23    2    4    4    0    0  0.44776462540E+03  0.10445554183E+03 -0.11018016806E+01  0.46856369562E+03  0.90258533729E+02 0.  0.
         23    2    4    4    0    0 -0.36559523174E+03  0.16495124589E+03  0.32870165756E+03  0.52650807086E+03  0.91088868737E+02 0.  0.
          1    1    3    3  502    0 -0.18175791705E+02 -0.15926993529E+03  0.34160351200E+03  0.37734630130E+03  0.00000000000E+00 0. -1.
         -1    1    3    3    0  502 -0.63993601949E+02 -0.11013685243E+03  0.45239287803E+03  0.46998364168E+03  0.00000000000E+00 0.  1.
         13    1    5    5    0    0  0.17438130270E+03  0.40417863440E+02  0.43617643113E+02  0.18424152954E+03  0.00000000000E+00 0.  1.
        -13    1    5    5    0    0  0.27338332269E+03  0.64037678388E+02 -0.44719444793E+02  0.28432216608E+03  0.00000000000E+00 0. -1.
          1    1    6    6  503    0 -0.24731979621E+03  0.81017685604E+02  0.16665561853E+03  0.30903890073E+03  0.00000000000E+00 0. -1.
         -1    1    6    6    0  503 -0.11827543554E+03  0.83933560284E+02  0.16204603903E+03  0.21746917013E+03  0.00000000000E+00 0.  1.
<mgrwt>
<rscale>  0 0.14616655E+04</rscale>
<asrwt>0</asrwt>
<pdfrwt beam="1">  1        1 0.22799984E+00 0.14616655E+04</pdfrwt>
<pdfrwt beam="2">  1       -1 0.55446575E-01 0.14616655E+04</pdfrwt>
<totfact> 0.21485198E+01</totfact>
</mgrwt>
</event>
<event>
12    3  0.4688899E-008  0.2689303E+04  0.7818608E-02  0.8338484E-01
          1   -1    0    0  501    0  0.00000000000E+00  0.00000000000E+00  0.13816469743E+04  0.13816469743E+04  0.00000000000E+00 0. -1.
         -1   -1    0    0    0  501 -0.00000000000E+00 -0.00000000000E+00 -0.13086471080E+04  0.13086471080E+04  0.00000000000E+00 0.  1.
         23    2    1    2    0    0  0.28904121615E+03  0.11376678054E+04  0.23498584614E+03  0.12006928804E+04  0.92801859276E+02 0.  0.
        254    2    1    2    0    0 -0.28904121615E+03 -0.11376678054E+04 -0.16198597980E+03  0.14896012019E+04  0.90268456452E+03 0.  0.
         23    2    4    4    0    0 -0.29898106984E+03 -0.69251691185E+03  0.32234054072E+03  0.82540495444E+03  0.91763616487E+02 0.  0.
         23    2    4    4    0    0  0.99398536948E+01 -0.44515089356E+03 -0.48432652052E+03  0.66419624748E+03  0.91248879238E+02 0.  0.
          1    1    3    3  502    0  0.15146794737E+03  0.60297654493E+03  0.77214362392E+02  0.62648648076E+03  0.00000000000E+00 0. -1.
         -1    1    3    3    0  502  0.13757326878E+03  0.53469126048E+03  0.15777148374E+03  0.57420639965E+03  0.00000000000E+00 0.  1.
         13    1    5    5    0    0 -0.25851085407E+03 -0.61718784886E+03  0.25321867319E+03  0.71544978783E+03  0.00000000000E+00 0. -1.
        -13    1    5    5    0    0 -0.40470215773E+02 -0.75329062993E+02  0.69121867522E+02  0.10995516662E+03  0.00000000000E+00 0.  1.
          3    1    6    6  503    0  0.21741029938E+02 -0.23892325734E+03 -0.32163645296E+03  0.40125677957E+03  0.00000000000E+00 0. -1.
         -3    1    6    6    0  503 -0.11801176243E+02 -0.20622763622E+03 -0.16269006756E+03  0.26293946791E+03  0.00000000000E+00 0.  1.
<mgrwt>
<rscale>  0 0.26893035E+04</rscale>
<asrwt>0</asrwt>
<pdfrwt beam="1">  1        1 0.21256107E+00 0.26893035E+04</pdfrwt>
<pdfrwt beam="2">  1       -1 0.20133032E+00 0.26893035E+04</pdfrwt>
<totfact> 0.10193621E+00</totfact>
</mgrwt>
</event>
<event>
12    3  0.4688899E-008  0.1292642E+04  0.7818608E-02  0.9035421E-01
          2   -1    0    0  501    0  0.00000000000E+00  0.00000000000E+00  0.86306451148E+03  0.86306451148E+03  0.00000000000E+00 0. -1.
         -2   -1    0    0    0  501 -0.00000000000E+00 -0.00000000000E+00 -0.48400875683E+03  0.48400875683E+03  0.00000000000E+00 0.  1.
         23    2    1    2    0    0 -0.25778460070E+03 -0.92746201629E+02  0.30073700955E+03  0.41733915855E+03  0.93136813722E+02 0.  0.
        254    2    1    2    0    0  0.25778460070E+03  0.92746201629E+02  0.78318745090E+02  0.92973410976E+03  0.88499544109E+03 0.  0.
         23    2    4    4    0    0  0.55978189224E+03  0.95033975041E+02  0.17141708645E+03  0.60025056686E+03  0.92356386882E+02 0.  0.
         23    2    4    4    0    0 -0.30199729154E+03 -0.22877734122E+01 -0.93098341365E+02  0.32948354290E+03  0.93190696256E+02 0.  0.
          1    1    3    3  502    0 -0.22629337838E+03 -0.10924914347E+03  0.27981847000E+03  0.37608834680E+03  0.00000000000E+00 0. -1.
         -1    1    3    3    0  502 -0.31491222323E+02  0.16502941846E+02  0.20918539558E+02  0.41250811752E+02  0.00000000000E+00 0.  1.
         13    1    5    5    0    0  0.44467635823E+03  0.73942627295E+02  0.17400489554E+03  0.48320004074E+03  0.00000000000E+00 0. -1.
        -13    1    5    5    0    0  0.11510553401E+03  0.21091347746E+02 -0.25878090848E+01  0.11705052612E+03  0.00000000000E+00 0.  1.
          1    1    6    6  503    0 -0.17163920907E+03 -0.30510907520E+02 -0.15123236740E+02  0.17498470178E+03  0.00000000000E+00 0. -1.
         -1    1    6    6    0  503 -0.13035808247E+03  0.28223134108E+02 -0.77975104625E+02  0.15449884112E+03  0.00000000000E+00 0.  1.
<mgrwt>
<rscale>  0 0.12926419E+04</rscale>
<asrwt>0</asrwt>
<pdfrwt beam="1">  1        2 0.13277916E+00 0.12926419E+04</pdfrwt>
<pdfrwt beam="2">  1       -2 0.74462886E-01 0.12926419E+04</pdfrwt>
<totfact> 0.49472045E+01</totfact>
</mgrwt>
</event>
<event>
12    3  0.4688899E-008  0.1658829E+04  0.7818608E-02  0.8785201E-01
         -3   -1    0    0    0  501 -0.00000000000E+00  0.00000000000E+00  0.33045371403E+03  0.33045371403E+03  0.00000000000E+00 0.  1.
          3   -1    0    0  501    0  0.00000000000E+00 -0.00000000000E+00 -0.20817686516E+04  0.20817686516E+04  0.00000000000E+00 0. -1.
         23    2    1    2    0    0  0.52543647774E+02  0.44508616237E+03 -0.11683395256E+04  0.12548204929E+04  0.93245351473E+02 0.  0.
        254    2    1    2    0    0 -0.52543647774E+02 -0.44508616237E+03 -0.58297541202E+03  0.11574018727E+04  0.89378757942E+03 0.  0.
         23    2    4    4    0    0 -0.30622108768E+03 -0.64572517423E+02 -0.60850527327E+03  0.69053893512E+03  0.92867587322E+02 0.  0.
         23    2    4    4    0    0  0.25367743990E+03 -0.38051364495E+03  0.25529861254E+02  0.46686293761E+03  0.90367865907E+02 0.  0.
          2    1    3    3  502    0  0.22065125628E+02  0.40856433912E+03 -0.10705373300E+04  0.11460636386E+04  0.00000000000E+00 0. -1.
         -2    1    3    3    0  502  0.30478522146E+02  0.36521823258E+02 -0.97802195598E+02  0.10875685427E+03  0.00000000000E+00 0.  1.
         13    1    5    5    0    0 -0.40921672925E+02 -0.20239065163E+02 -0.36509568389E+02  0.58456408183E+02  0.00000000000E+00 0.  1.
        -13    1    5    5    0    0 -0.26529941475E+03 -0.44333452259E+02 -0.57199570489E+03  0.63208252694E+03  0.00000000000E+00 0. -1.
          2    1    6    6  503    0  0.24823581859E+03 -0.36345433151E+03  0.42511717446E+02  0.44218471123E+03  0.00000000000E+00 0. -1.
         -2    1    6    6    0  503  0.54416213147E+01 -0.17059313439E+02 -0.16981856192E+02  0.24678226380E+02  0.00000000000E+00 0.  1.
<mgrwt>
<rscale>  0 0.16588287E+04</rscale>
<asrwt>0</asrwt>
<pdfrwt beam="1">  1        3 0.32027209E+00 0.16588287E+04</pdfrwt>
<pdfrwt beam="2">  1       -3 0.50839034E-01 0.16588287E+04</pdfrwt>
<totfact> 0.28798525E-01</totfact>
</mgrwt>
</event>
<event>
12    3  0.4688899E-008  0.1192320E+04  0.7818608E-02  0.9119605E-01
         -1   -1    0    0    0  501 -0.00000000000E+00  0.00000000000E+00  0.23774112135E+03  0.23774112135E+03  0.00000000000E+00 0.  1.
          1   -1    0    0  501    0  0.00000000000E+00 -0.00000000000E+00 -0.14949319311E+04  0.14949319311E+04  0.00000000000E+00 0. -1.
         23    2    1    2    0    0  0.23308789242E+03  0.21252197254E+02 -0.41668619840E+03  0.48639835957E+03  0.90412138460E+02 0.  0.
        254    2    1    2    0    0 -0.23308789242E+03 -0.21252197254E+02 -0.84050461134E+03  0.12462746929E+04  0.88992751777E+03 0.  0.
         23    2    4    4    0    0  0.19248147339E+03 -0.32564781610E+03 -0.35269044930E+03  0.52532541209E+03  0.92090270036E+02 0.  0.
         23    2    4    4    0    0 -0.42556936581E+03  0.30439561885E+03 -0.48781416205E+03  0.72094928076E+03  0.89661758020E+02 0.  0.
          1    1    3    3  502    0  0.14710640329E+03  0.52913450990E+02 -0.29737462620E+03  0.33596397946E+03  0.00000000000E+00 0. -1.
         -1    1    3    3    0  502  0.85981489133E+02 -0.31661253736E+02 -0.11931157219E+03  0.15043438012E+03  0.00000000000E+00 0.  1.
         13    1    5    5    0    0 -0.44587185268E+01 -0.52077796646E+01  0.31562093681E+01  0.75473702382E+01  0.00000000000E+00 0. -1.
        -13    1    5    5    0    0  0.19694019192E+03 -0.32044003644E+03 -0.35584665867E+03  0.51777804186E+03  0.00000000000E+00 0.  1.
          4    1    6    6  503    0 -0.58114386415E+01  0.25791375829E+02 -0.32403361155E+02  0.41820398137E+02  0.00000000000E+00 0. -1.
         -4    1    6    6    0  503 -0.41975792717E+03  0.27860424302E+03 -0.45541080089E+03  0.67912888263E+03  0.00000000000E+00 0.  1.
<mgrwt>
<rscale>  0 0.11923201E+04</rscale>
<asrwt>0</asrwt>
<pdfrwt beam="1">  1        1 0.22998953E+00 0.11923201E+04</pdfrwt>
<pdfrwt beam="2">  1       -1 0.36575558E-01 0.11923201E+04</pdfrwt>
<totfact> 0.46801491E+01</totfact>
</mgrwt>
</event>
<event>
12    3  0.4688899E-008  0.1413914E+04  0.7818608E-02  0.8943808E-01
          2   -1    0    0  501    0  0.00000000000E+00  0.00000000000E+00  0.14824223134E+04  0.14824223134E+04  0.00000000000E+00 0. -1.
         -2   -1    0    0    0  501 -0.00000000000E+00 -0.00000000000E+00 -0.33714294961E+03  0.33714294961E+03  0.00000000000E+00 0.  1.
         23    2    1    2    0    0  0.12571309795E+03  0.27340993598E+03 -0.26168421685E+02  0.31556642709E+03  0.91326926612E+02 0.  0.
        254    2    1    2    0    0 -0.12571309795E+03 -0.27340993598E+03  0.11714477855E+04  0.15039988359E+04  0.89396074201E+03 0.  0.
         23    2    4    4    0    0  0.19365353681E+03  0.23963225848E+03  0.50644990748E+03  0.60027894897E+03  0.94435142620E+02 0.  0.
         23    2    4    4    0    0 -0.31936663476E+03 -0.51304219447E+03  0.66499787801E+03  0.90371988696E+03  0.96333356787E+02 0.  0.
          3    1    3    3  502    0  0.84348380974E+02  0.19453533692E+03 -0.59894405421E+02  0.22033153765E+03  0.00000000000E+00 0. -1.
         -3    1    3    3    0  502  0.41364716977E+02  0.78874599066E+02  0.33725983736E+02  0.95234889444E+02  0.00000000000E+00 0.  1.
         13    1    5    5    0    0  0.16653562158E+02  0.74761821426E+02  0.85595436161E+02  0.11486187256E+03  0.00000000000E+00 0. -1.
        -13    1    5    5    0    0  0.17699997465E+03  0.16487043706E+03  0.42085447132E+03  0.48541707641E+03  0.00000000000E+00 0.  1.
          4    1    6    6  503    0 -0.14014401088E+03 -0.23158409437E+03  0.36927358258E+03  0.45785861938E+03  0.00000000000E+00 0. -1.
         -4    1    6    6    0  503 -0.17922262388E+03 -0.28145810009E+03  0.29572429543E+03  0.44586126758E+03  0.00000000000E+00 0.  1.
<mgrwt>
<rscale>  0 0.14139140E+04</rscale>
<asrwt>0</asrwt>
<pdfrwt beam="1">  1        2 0.22806497E+00 0.14139140E+04</pdfrwt>
<pdfrwt beam="2">  1       -2 0.51868147E-01 0.14139140E+04</pdfrwt>
<totfact> 0.44317679E+01</totfact>
</mgrwt>
</event>
<event>
12    3  0.4688899E-008  0.3415466E+04  0.7818608E-02  0.8134121E-01
          2   -1    0    0  501    0  0.00000000000E+00  0.00000000000E+00  0.17654610797E+04  0.17654610797E+04  0.00000000000E+00 0. -1.
         -2   -1    0    0    0  501 -0.00000000000E+00 -0.00000000000E+00 -0.16518929054E+04  0.16518929054E+04  0.00000000000E+00 0.  1.
         23    2    1    2    0    0 -0.13425183941E+04 -0.20932091741E+03 -0.77456783956E+03  0.15668460387E+04  0.94235268341E+02 0.  0.
        254    2    1    2    0    0  0.13425183941E+04  0.20932091741E+03  0.88813601386E+03  0.18505079464E+04  0.88849490459E+03 0.  0.
         23    2    4    4    0    0  0.12749727586E+04  0.44844858974E+02  0.99790175548E+03  0.16225353778E+04  0.96158941498E+02 0.  0.
         23    2    4    4    0    0  0.67545635508E+02  0.16447605843E+03 -0.10976574162E+03  0.22797256858E+03  0.91149258475E+02 0.  0.
          4    1    3    3  502    0 -0.59052797089E+03 -0.94466425167E+02 -0.28739083015E+03  0.66350635200E+03  0.00000000000E+00 0. -1.
         -4    1    3    3    0  502 -0.75199042321E+03 -0.11485449224E+03 -0.48717700941E+03  0.90333968666E+03  0.00000000000E+00 0.  1.
         13    1    5    5    0    0  0.53388488698E+03  0.65341819885E+02  0.40774113203E+03  0.67494848449E+03  0.00000000000E+00 0. -1.
        -13    1    5    5    0    0  0.74108787162E+03 -0.20496960912E+02  0.59016062345E+03  0.94758689329E+03  0.00000000000E+00 0.  1.
          4    1    6    6  503    0  0.13805662010E+01 -0.88191202376E+01 -0.19991333725E+02  0.21893749539E+02  0.00000000000E+00 0. -1.
         -4    1    6    6    0  503  0.66165069307E+02  0.17329517867E+03 -0.89774407894E+02  0.20607881904E+03  0.00000000000E+00 0.  1.
<mgrwt>
<rscale>  0 0.34154664E+04</rscale>
<asrwt>0</asrwt>
<pdfrwt beam="1">  1        2 0.27160940E+00 0.34154664E+04</pdfrwt>
<pdfrwt beam="2">  1       -2 0.25413737E+00 0.34154664E+04</pdfrwt>
<totfact> 0.45225098E-01</totfact>
</mgrwt>
</event>
<event>
12    3  0.4688899E-008  0.1303535E+04  0.7818608E-02  0.9026767E-01
         -1   -1    0    0    0  501 -0.00000000000E+00  0.00000000000E+00  0.53552823069E+03  0.53552823069E+03  0.00000000000E+00 0.  1.
          1   -1    0    0  501    0  0.00000000000E+00 -0.00000000000E+00 -0.79323704176E+03  0.79323704176E+03  0.00000000000E+00 0. -1.
         23    2    1    2    0    0  0.16850381231E+02  0.33479958490E+03 -0.25166405030E+02  0.34798444937E+03  0.89917360189E+02 0.  0.
        254    2    1    2    0    0 -0.16850381231E+02 -0.33479958490E+03 -0.23254240604E+03  0.98078082308E+03  0.89189705399E+03 0.  0.
         23    2    4    4    0    0  0.32133516934E+03 -0.44740574483E+03 -0.25414739012E+03  0.61355437384E+03  0.91814389909E+02 0.  0.
         23    2    4    4    0    0 -0.33818555057E+03  0.11260615993E+03  0.21604984078E+02  0.36722644924E+03  0.85667238879E+02 0.  0.
          4    1    3    3  502    0  0.13349996440E+02  0.29927981385E+03 -0.51048961510E+02  0.30389574833E+03  0.00000000000E+00 0. -1.
         -4    1    3    3    0  502  0.35003847905E+01  0.35519771048E+02  0.25882556480E+02  0.44088701034E+02  0.00000000000E+00 0.  1.
         13    1    5    5    0    0  0.94521710357E+02 -0.97498419464E+02 -0.10137337071E+03  0.16946048453E+03  0.00000000000E+00 0.  1.
        -13    1    5    5    0    0  0.22681345898E+03 -0.34990732536E+03 -0.15277401941E+03  0.44409388931E+03  0.00000000000E+00 0. -1.
          1    1    6    6  503    0 -0.32269207938E+03  0.11522240619E+03  0.27166374047E+01  0.34265691457E+03  0.00000000000E+00 0. -1.
         -1    1    6    6    0  503 -0.15493471191E+02 -0.26162462604E+01  0.18888346674E+02  0.24569534674E+02  0.00000000000E+00 0.  1.
<mgrwt>
<rscale>  0 0.13035349E+04</rscale>
<asrwt>0</asrwt>
<pdfrwt beam="1">  1        1 0.12203647E+00 0.13035349E+04</pdfrwt>
<pdfrwt beam="2">  1       -1 0.82388959E-01 0.13035349E+04</pdfrwt>
<totfact> 0.32257756E+01</totfact>
</mgrwt>
</event>
<event>
12    3  0.4688899E-008  0.2762562E+04  0.7818608E-02  0.8314986E-01
          2   -1    0    0  501    0  0.00000000000E+00  0.00000000000E+00  0.16160815835E+04  0.16160815835E+04  0.00000000000E+00 0. -1.
         -2   -1    0    0    0  501 -0.00000000000E+00 -0.00000000000E+00 -0.11805949072E+04  0.11805949072E+04  0.00000000000E+00 0.  1.
         23    2    1    2    0    0 -0.40245504381E+03 -0.11142873328E+03  0.13669313255E+04  0.14322283842E+04  0.91599515260E+02 0.  0.
        254    2    1    2    0    0  0.40245504381E+03  0.11142873328E+03 -0.93144464910E+03  0.13644481065E+04  0.90539664015E+03 0.  0.
         23    2    4    4    0    0  0.19210023926E+03  0.27689962733E+03  0.40832032586E+02  0.35177483475E+03  0.92208318159E+02 0.  0.
         23    2    4    4    0    0  0.21035480456E+03 -0.16547089405E+03 -0.97227668169E+03  0.10126732717E+04  0.92495669685E+02 0.  0.
          1    1    3    3  502    0 -0.15284637214E+03 -0.60320824997E+02  0.67989313614E+03  0.69946786344E+03  0.00000000000E+00 0. -1.
         -1    1    3    3    0  502 -0.24960867167E+03 -0.51107908282E+02  0.68703818932E+03  0.73276052080E+03  0.00000000000E+00 0.  1.
         13    1    5    5    0    0  0.12486562391E+02 -0.25177535225E+01  0.13382066569E+02  0.18475200372E+02  0.00000000000E+00 0. -1.
        -13    1    5    5    0    0  0.17961367687E+03  0.27941738085E+03  0.27449966018E+02  0.33329963437E+03  0.00000000000E+00 0.  1.
          2    1    6    6  503    0  0.25761382028E+02  0.79229877546E+01 -0.14556029658E+03  0.14803453137E+03  0.00000000000E+00 0. -1.
         -2    1    6    6    0  503  0.18459342253E+03 -0.17339388180E+03 -0.82671638512E+03  0.86463874035E+03  0.00000000000E+00 0.  1.
<mgrwt>
<rscale>  0 0.27625624E+04</rscale>
<asrwt>0</asrwt>
<pdfrwt beam="1">  1        2 0.24862793E+00 0.27625624E+04</pdfrwt>
<pdfrwt beam="2">  1       -2 0.18162999E+00 0.27625624E+04</pdfrwt>
<totfact> 0.16848503E+00</totfact>
</mgrwt>
</event>
<event>
12    3  0.4688899E-008  0.1844130E+04  0.7818608E-02  0.8683177E-01
         -2   -1    0    0    0  501 -0.00000000000E+00  0.00000000000E+00  0.35361620340E+03  0.35361620340E+03  0.00000000000E+00 0.  1.
          2   -1    0    0  501    0  0.00000000000E+00 -0.00000000000E+00 -0.24043137822E+04  0.24043137822E+04  0.00000000000E+00 0. -1.
         23    2    1    2    0    0 -0.58175753180E+03 -0.14074224728E+03 -0.13248718021E+04  0.14566559158E+04  0.91164462100E+02 0.  0.
        254    2    1    2    0    0  0.58175753180E+03  0.14074224728E+03 -0.72582577671E+03  0.13012740698E+04  0.89902221362E+03 0.  0.
         23    2    4    4    0    0  0.56764680063E+03  0.10610268453E+03 -0.91675028134E+03  0.10872255182E+04  0.90263941300E+02 0.  0.
         23    2    4    4    0    0  0.14110731161E+02  0.34639562751E+02  0.19092450463E+03  0.21404855161E+03  0.89250232138E+02 0.  0.
          4    1    3    3  502    0 -0.33488529818E+03 -0.11502167359E+03 -0.85069692153E+03  0.92144636341E+03  0.00000000000E+00 0. -1.
         -4    1    3    3    0  502 -0.24687223361E+03 -0.25720573690E+02 -0.47417488054E+03  0.53520955240E+03  0.00000000000E+00 0.  1.
         13    1    5    5    0    0  0.24436764227E+03  0.34561779990E+02 -0.31246118709E+03  0.39817339773E+03  0.00000000000E+00 0.  1.
        -13    1    5    5    0    0  0.32327915836E+03  0.71540904540E+02 -0.60428909425E+03  0.68905212044E+03  0.00000000000E+00 0. -1.
          3    1    6    6  503    0  0.11881048622E+02  0.59825065469E+02  0.81818849275E+02  0.10205156477E+03  0.00000000000E+00 0. -1.
         -3    1    6    6    0  503  0.22296825391E+01 -0.25185502718E+02  0.10910565536E+03  0.11199698684E+03  0.00000000000E+00 0.  1.
<mgrwt>
<rscale>  0 0.18441305E+04</rscale>
<asrwt>0</asrwt>
<pdfrwt beam="1">  1        2 0.36989442E+00 0.18441305E+04</pdfrwt>
<pdfrwt beam="2">  1       -2 0.54402494E-01 0.18441305E+04</pdfrwt>
<totfact> 0.11835075E+01</totfact>
</mgrwt>
</event>
<event>
12    3  0.4688899E-008  0.2601867E+04  0.7818608E-02  0.8367567E-01
          2   -1    0    0  501    0  0.00000000000E+00  0.00000000000E+00  0.18640053364E+04  0.18640053364E+04  0.00000000000E+00 0. -1.
         -2   -1    0    0    0  501 -0.00000000000E+00 -0.00000000000E+00 -0.90795209419E+03  0.90795209419E+03  0.00000000000E+00 0.  1.
         23    2    1    2    0    0  0.53195147727E+03 -0.76907861208E+03  0.11190488662E+04  0.14610555197E+04  0.89210878213E+02 0.  0.
        254    2    1    2    0    0 -0.53195147727E+03  0.76907861208E+03 -0.16299562404E+03  0.13109019109E+04  0.90412496970E+03 0.  0.
         23    2    4    4    0    0 -0.66372846160E+03  0.73153048806E+03  0.10311989628E+03  0.99770210942E+03  0.95412055940E+02 0.  0.
         23    2    4    4    0    0  0.13177698433E+03  0.37548124018E+02 -0.26611552033E+03  0.31319980149E+03  0.92204177136E+02 0.  0.
          4    1    3    3  502    0  0.19328791868E+03 -0.21775135896E+03  0.31408417445E+03  0.42828114887E+03  0.00000000000E+00 0. -1.
         -4    1    3    3    0  502  0.33866355859E+03 -0.55132725312E+03  0.80496469180E+03  0.10327743708E+04  0.00000000000E+00 0.  1.
         13    1    5    5    0    0 -0.83339924231E+02  0.13918635236E+03  0.32114627983E+02  0.16537754680E+03  0.00000000000E+00 0. -1.
        -13    1    5    5    0    0 -0.58038853737E+03  0.59234413570E+03  0.71005268299E+02  0.83232456262E+03  0.00000000000E+00 0.  1.
          1    1    6    6  503    0 -0.10754900556E+02  0.18363534456E+00 -0.22630124851E+01  0.10991944024E+02  0.00000000000E+00 0. -1.
         -1    1    6    6    0  503  0.14253188489E+03  0.37364488673E+02 -0.26385250784E+03  0.30220785747E+03  0.00000000000E+00 0.  1.
<mgrwt>
<rscale>  0 0.26018667E+04</rscale>
<asrwt>0</asrwt>
<pdfrwt beam="1">  1        2 0.28677005E+00 0.26018667E+04</pdfrwt>
<pdfrwt beam="2">  1       -2 0.13968494E+00 0.26018667E+04</pdfrwt>
<totfact> 0.25407477E+00</totfact>
</mgrwt>
</event>
<event>
12    3  0.4688899E-008  0.1982405E+04  0.7818608E-02  0.8614892E-01
          1   -1    0    0  501    0  0.00000000000E+00  0.00000000000E+00  0.11171256757E+04  0.11171256757E+04  0.00000000000E+00 0. -1.
         -1   -1    0    0    0  501 -0.00000000000E+00 -0.00000000000E+00 -0.87947314136E+03  0.87947314136E+03  0.00000000000E+00 0.  1.
         23    2    1    2    0    0 -0.18608690724E+03 -0.37634051158E+03  0.75542232719E+03  0.86862128011E+03  0.87060428110E+02 0.  0.
        254    2    1    2    0    0  0.18608690724E+03  0.37634051158E+03 -0.51776979287E+03  0.11279775369E+04  0.90993804608E+03 0.  0.
         23    2    4    4    0    0  0.35539826889E+03 -0.47359513024E+02 -0.54811715454E+03  0.66136335985E+03  0.91750889058E+02 0.  0.
         23    2    4    4    0    0 -0.16931136165E+03  0.42370002460E+03  0.30347361670E+02  0.46661417708E+03  0.92842769593E+02 0.  0.
          4    1    3    3  502    0 -0.10278151562E+03 -0.21610085351E+03  0.34130803312E+03  0.41683904846E+03  0.00000000000E+00 0.  1.
         -4    1    3    3    0  502 -0.83305391618E+02 -0.16023965807E+03  0.41411429407E+03  0.45178223166E+03  0.00000000000E+00 0. -1.
         13    1    5    5    0    0  0.32740372504E+03 -0.27068494219E+02 -0.44872694926E+03  0.55613107946E+03  0.00000000000E+00 0.  1.
        -13    1    5    5    0    0  0.27994543847E+02 -0.20291018805E+02 -0.99390205283E+02  0.10523228039E+03  0.00000000000E+00 0. -1.
          1    1    6    6  503    0 -0.12167162603E+03  0.38602381110E+03  0.30290331925E+02  0.40587667034E+03  0.00000000000E+00 0.  1.
         -1    1    6    6    0  503 -0.47639735614E+02  0.37676213501E+02  0.57029744598E-01  0.60737506745E+02  0.00000000000E+00 0. -1.
<mgrwt>
<rscale>  0 0.19824046E+04</rscale>
<asrwt>0</asrwt>
<pdfrwt beam="1">  1        1 0.17186549E+00 0.19824046E+04</pdfrwt>
<pdfrwt beam="2">  1       -1 0.13530356E+00 0.19824046E+04</pdfrwt>
<totfact> 0.52376876E+00</totfact>
</mgrwt>
</event>
<event>
12    3  0.4688899E-008  0.1645718E+04  0.7818608E-02  0.8792944E-01
          1   -1    0    0  501    0  0.00000000000E+00  0.00000000000E+00  0.31906662333E+04  0.31906662333E+04  0.00000000000E+00 0. -1.
         -1   -1    0    0    0  501 -0.00000000000E+00 -0.00000000000E+00 -0.21221165107E+03  0.21221165107E+03  0.00000000000E+00 0.  1.
         23    2    1    2    0    0  0.70959150547E+02  0.54040723846E+03  0.52900324258E+03  0.76482113420E+03  0.89620043699E+02 0.  0.
        254    2    1    2    0    0 -0.70959150547E+02 -0.54040723846E+03  0.24494513396E+04  0.26380567502E+04  0.81391422608E+03 0.  0.
         23    2    4    4    0    0  0.62842961578E+02 -0.63128132345E+03  0.10777108677E+04  0.12538454217E+04  0.90566439972E+02 0.  0.
         23    2    4    4    0    0 -0.13380211212E+03  0.90874084990E+02  0.13717404720E+04  0.13842113285E+04  0.90597874697E+02 0.  0.
          2    1    3    3  502    0  0.11587741124E+02  0.24606876662E+03  0.18414549221E+03  0.30756084918E+03  0.00000000000E+00 0. -1.
         -2    1    3    3    0  502  0.59371409423E+02  0.29433847184E+03  0.34485775037E+03  0.45726028502E+03  0.00000000000E+00 0.  1.
         13    1    5    5    0    0  0.39762449385E+02 -0.59628943545E+03  0.98528158204E+03  0.11523549536E+04  0.00000000000E+00 0.  1.
        -13    1    5    5    0    0  0.23080512192E+02 -0.34991887996E+02  0.92429285618E+02  0.10149046807E+03  0.00000000000E+00 0. -1.
          3    1    6    6  503    0 -0.14507693511E+03  0.69722836891E+02  0.12242271155E+04  0.12347633868E+04  0.00000000000E+00 0. -1.
         -3    1    6    6    0  503  0.11274822989E+02  0.21151248099E+02  0.14751335651E+03  0.14944794170E+03  0.00000000000E+00 0.  1.
<mgrwt>
<rscale>  0 0.16457175E+04</rscale>
<asrwt>0</asrwt>
<pdfrwt beam="1">  1        1 0.49087169E+00 0.16457175E+04</pdfrwt>
<pdfrwt beam="2">  1       -1 0.32647949E-01 0.16457175E+04</pdfrwt>
<totfact> 0.36501788E+00</totfact>
</mgrwt>
</event>
<event>
12    3  0.4688899E-008  0.1837958E+04  0.7818608E-02  0.8686370E-01
          2   -1    0    0  501    0  0.00000000000E+00  0.00000000000E+00  0.17074161381E+04  0.17074161381E+04  0.00000000000E+00 0. -1.
         -2   -1    0    0    0  501 -0.00000000000E+00 -0.00000000000E+00 -0.49462020366E+03  0.49462020366E+03  0.00000000000E+00 0.  1.
         23    2    1    2    0    0 -0.49917384942E+03  0.25274380794E+03 -0.36349623452E+02  0.56732333783E+03  0.86489942315E+02 0.  0.
        254    2    1    2    0    0  0.49917384942E+03 -0.25274380794E+03  0.12491455579E+04  0.16347130039E+04  0.89379416871E+03 0.  0.
         23    2    4    4    0    0 -0.13702099500E+02  0.18860747988E+03  0.77670368272E+03  0.80461745298E+03  0.91542918297E+02 0.  0.
         23    2    4    4    0    0  0.51287594892E+03 -0.44135128783E+03  0.47244187515E+03  0.83009555093E+03  0.89580131943E+02 0.  0.
          2    1    3    3  502    0 -0.24165976772E+03  0.11997623476E+03  0.25712027266E+02  0.27102554969E+03  0.00000000000E+00 0.  1.
         -2    1    3    3    0  502 -0.25751408170E+03  0.13276757318E+03 -0.62061650719E+02  0.29629778813E+03  0.00000000000E+00 0. -1.
         13    1    5    5    0    0  0.33704927794E+02  0.78680939649E+02  0.24246646107E+03  0.25713167282E+03  0.00000000000E+00 0. -1.
        -13    1    5    5    0    0 -0.47407027294E+02  0.10992654023E+03  0.53423722165E+03  0.54748578016E+03  0.00000000000E+00 0.  1.
          1    1    6    6  503    0  0.10794963075E+03 -0.59623641172E+02  0.11554203867E+03  0.16899131359E+03  0.00000000000E+00 0. -1.
         -1    1    6    6    0  503  0.40492631816E+03 -0.38172764665E+03  0.35689983648E+03  0.66110423735E+03  0.00000000000E+00 0.  1.
<mgrwt>
<rscale>  0 0.18379581E+04</rscale>
<asrwt>0</asrwt>
<pdfrwt beam="1">  1        2 0.26267940E+00 0.18379581E+04</pdfrwt>
<pdfrwt beam="2">  1       -2 0.76095417E-01 0.18379581E+04</pdfrwt>
<totfact> 0.14135304E+01</totfact>
</mgrwt>
</event>
<event>
12    3  0.4688899E-008  0.1668202E+04  0.7818608E-02  0.8779711E-01
          2   -1    0    0  501    0  0.00000000000E+00  0.00000000000E+00  0.18011963062E+04  0.18011963062E+04  0.00000000000E+00 0. -1.
         -2   -1    0    0    0  501 -0.00000000000E+00 -0.00000000000E+00 -0.38625667111E+03  0.38625667111E+03  0.00000000000E+00 0.  1.
         23    2    1    2    0    0  0.15669076928E+03  0.46670141851E+03  0.92135664091E+03  0.10482346181E+04  0.86807509192E+02 0.  0.
        254    2    1    2    0    0 -0.15669076928E+03 -0.46670141851E+03  0.49358299414E+03  0.11392183591E+04  0.90101725094E+03 0.  0.
         23    2    4    4    0    0  0.10844391154E+03  0.12220425635E+03 -0.13712009128E+03  0.23214069182E+03  0.91615605360E+02 0.  0.
         23    2    4    4    0    0 -0.26513468082E+03 -0.58890567486E+03  0.63070308543E+03  0.90707766732E+03  0.88866302576E+02 0.  0.
          3    1    3    3  502    0  0.13913705902E+03  0.37183264768E+03  0.80092157413E+03  0.89392058204E+03  0.00000000000E+00 0. -1.
         -3    1    3    3    0  502  0.17553710266E+02  0.94868770825E+02  0.12043506678E+03  0.15431403608E+03  0.00000000000E+00 0.  1.
         13    1    5    5    0    0 -0.19414577428E+01  0.56881907816E+02 -0.58904274966E+02  0.81908694924E+02  0.00000000000E+00 0. -1.
        -13    1    5    5    0    0  0.11038536928E+03  0.65322348538E+02 -0.78215816318E+02  0.15023199690E+03  0.00000000000E+00 0.  1.
          2    1    6    6  503    0 -0.25940643824E+02 -0.14811488297E+03  0.14099072059E+03  0.20612937406E+03  0.00000000000E+00 0. -1.
         -2    1    6    6    0  503 -0.23919403700E+03 -0.44079079189E+03  0.48971236484E+03  0.70094829326E+03  0.00000000000E+00 0.  1.
<mgrwt>
<rscale>  0 0.16682015E+04</rscale>
<asrwt>0</asrwt>
<pdfrwt beam="1">  1        2 0.27710712E+00 0.16682015E+04</pdfrwt>
<pdfrwt beam="2">  1       -2 0.59424104E-01 0.16682015E+04</pdfrwt>
<totfact> 0.21722464E+01</totfact>
</mgrwt>
</event>
<event>
12    3  0.4688899E-008  0.1669838E+04  0.7818608E-02  0.8778756E-01
          1   -1    0    0  501    0  0.00000000000E+00  0.00000000000E+00  0.12394502613E+04  0.12394502613E+04  0.00000000000E+00 0. -1.
         -1   -1    0    0    0  501 -0.00000000000E+00 -0.00000000000E+00 -0.56241855533E+03  0.56241855533E+03  0.00000000000E+00 0.  1.
         23    2    1    2    0    0  0.20146667834E+03  0.10757321612E+02  0.83414711753E+03  0.86328499060E+03  0.93568257754E+02 0.  0.
        254    2    1    2    0    0 -0.20146667834E+03 -0.10757321612E+02 -0.15711541155E+03  0.93858382604E+03  0.90307796092E+03 0.  0.
         23    2    4    4    0    0 -0.52078554138E+03  0.14349705286E+03 -0.22896473586E+02  0.54854352181E+03  0.92556806999E+02 0.  0.
         23    2    4    4    0    0  0.31931886304E+03 -0.15425437447E+03 -0.13421893796E+03  0.39004030423E+03  0.91420825201E+02 0.  0.
          3    1    3    3  502    0  0.16720825499E+03  0.42974868272E+02  0.70534862457E+03  0.72616948574E+03  0.00000000000E+00 0. -1.
         -3    1    3    3    0  502  0.34258423356E+02 -0.32217546660E+02  0.12879849295E+03  0.13711550485E+03  0.00000000000E+00 0.  1.
         13    1    5    5    0    0 -0.10747325826E+03  0.60818159214E+02  0.19096754121E+02  0.12495613530E+03  0.00000000000E+00 0. -1.
        -13    1    5    5    0    0 -0.41331228312E+03  0.82678893641E+02 -0.41993227708E+02  0.42358738651E+03  0.00000000000E+00 0.  1.
          4    1    6    6  503    0  0.61194877868E+01 -0.14226271443E+02  0.93991949646E+01  0.18115733381E+02  0.00000000000E+00 0. -1.
         -4    1    6    6    0  503  0.31319937525E+03 -0.14002810302E+03 -0.14361813293E+03  0.37192457085E+03  0.00000000000E+00 0.  1.
<mgrwt>
<rscale>  0 0.16698381E+04</rscale>
<asrwt>0</asrwt>
<pdfrwt beam="1">  1        1 0.19068465E+00 0.16698381E+04</pdfrwt>
<pdfrwt beam="2">  1       -1 0.86525932E-01 0.16698381E+04</pdfrwt>
<totfact> 0.12567459E+01</totfact>
</mgrwt>
</event>
<event>
12    3  0.4688899E-008  0.1668759E+04  0.7818608E-02  0.8779386E-01
          1   -1    0    0  501    0  0.00000000000E+00  0.00000000000E+00  0.98945233982E+03  0.98945233982E+03  0.00000000000E+00 0. -1.
         -1   -1    0    0    0  501 -0.00000000000E+00 -0.00000000000E+00 -0.70361055700E+03  0.70361055700E+03  0.00000000000E+00 0.  1.
         23    2    1    2    0    0 -0.39971954221E+03 -0.60034347258E+02  0.53611478893E+03  0.67795535453E+03  0.93939132175E+02 0.  0.
        254    2    1    2    0    0  0.39971954221E+03  0.60034347258E+02 -0.25027300611E+03  0.10151075423E+04  0.89689849457E+03 0.  0.
         23    2    4    4    0    0 -0.12118654426E+03 -0.29710596457E+03 -0.13240857582E+02  0.33457355852E+03  0.93840359440E+02 0.  0.
         23    2    4    4    0    0  0.52090608648E+03  0.35714031183E+03 -0.23703214852E+03  0.68053398377E+03  0.89721292731E+02 0.  0.
          1    1    3    3  502    0 -0.40016854984E+03 -0.68660093097E+02  0.52070465828E+03  0.66028964692E+03  0.00000000000E+00 0. -1.
         -1    1    3    3    0  502  0.44900762687E+00  0.86257458393E+01  0.15410130643E+02  0.17665707616E+02  0.00000000000E+00 0.  1.
         13    1    5    5    0    0 -0.11399004714E+03 -0.27053891072E+03  0.16518132751E+02  0.29403721154E+03  0.00000000000E+00 0.  1.
        -13    1    5    5    0    0 -0.71964971219E+01 -0.26567053851E+02 -0.29758990333E+02  0.40536346984E+02  0.00000000000E+00 0. -1.
          2    1    6    6  503    0  0.23105766899E+03  0.19580002501E+03 -0.78487358646E+02  0.31286668353E+03  0.00000000000E+00 0. -1.
         -2    1    6    6    0  503  0.28984841749E+03  0.16134028681E+03 -0.15854478988E+03  0.36766730024E+03  0.00000000000E+00 0.  1.
<mgrwt>
<rscale>  0 0.16687590E+04</rscale>
<asrwt>0</asrwt>
<pdfrwt beam="1">  1        1 0.15222344E+00 0.16687590E+04</pdfrwt>
<pdfrwt beam="2">  1       -1 0.10824778E+00 0.16687590E+04</pdfrwt>
<totfact> 0.11666250E+01</totfact>
</mgrwt>
</event>
<event>
12    3  0.4688899E-008  0.1636829E+04  0.7818608E-02  0.8798237E-01
          1   -1    0    0  501    0  0.00000000000E+00  0.00000000000E+00  0.97517376739E+03  0.97517376739E+03  0.00000000000E+00 0. -1.
         -1   -1    0    0    0  501 -0.00000000000E+00 -0.00000000000E+00 -0.68685397695E+03  0.68685397695E+03  0.00000000000E+00 0.  1.
         23    2    1    2    0    0 -0.11258434461E+03 -0.42092899861E+03  0.46996962165E+03  0.64731854233E+03  0.91068070391E+02 0.  0.
        254    2    1    2    0    0  0.11258434461E+03  0.42092899861E+03 -0.18164983121E+03  0.10147092020E+04  0.89821024652E+03 0.  0.
         23    2    4    4    0    0  0.44044911615E+03  0.45606785952E+03 -0.33236152516E+02  0.64120768788E+03  0.89718118329E+02 0.  0.
         23    2    4    4    0    0 -0.32786477154E+03 -0.35138860903E+02 -0.14841367870E+03  0.37350151414E+03  0.93523863675E+02 0.  0.
          1    1    3    3  502    0 -0.65124326596E+02 -0.34613001761E+03  0.33640752911E+03  0.48704947659E+03  0.00000000000E+00 0. -1.
         -1    1    3    3    0  502 -0.47460018015E+02 -0.74798981003E+02  0.13356209254E+03  0.16026906574E+03  0.00000000000E+00 0.  1.
         13    1    5    5    0    0  0.59607392640E+02  0.95832068023E+02  0.18781780665E+02  0.11440971027E+03  0.00000000000E+00 0.  1.
        -13    1    5    5    0    0  0.38084172351E+03  0.36023579149E+03 -0.52017933181E+02  0.52679797761E+03  0.00000000000E+00 0. -1.
          3    1    6    6  503    0 -0.13076354202E+03 -0.39174023138E+01 -0.11157394418E+02  0.13129713406E+03  0.00000000000E+00 0. -1.
         -3    1    6    6    0  503 -0.19710122952E+03 -0.31221458589E+02 -0.13725628428E+03  0.24220438008E+03  0.00000000000E+00 0.  1.
<mgrwt>
<rscale>  0 0.16368286E+04</rscale>
<asrwt>0</asrwt>
<pdfrwt beam="1">  1        1 0.15002673E+00 0.16368286E+04</pdfrwt>
<pdfrwt beam="2">  1       -1 0.10566984E+00 0.16368286E+04</pdfrwt>
<totfact> 0.12703352E+01</totfact>
</mgrwt>
</event>
<event>
12    3  0.4688899E-008  0.1531376E+04  0.7818608E-02  0.8863852E-01
          2   -1    0    0  501    0  0.00000000000E+00  0.00000000000E+00  0.34138813595E+03  0.34138813595E+03  0.00000000000E+00 0. -1.
         -2   -1    0    0    0  501 -0.00000000000E+00 -0.00000000000E+00 -0.17173359531E+04  0.17173359531E+04  0.00000000000E+00 0.  1.
         23    2    1    2    0    0  0.37076894464E+03 -0.32238403547E+03 -0.54428177445E+03  0.73863025743E+03  0.89055772209E+02 0.  0.
        254    2    1    2    0    0 -0.37076894464E+03  0.32238403547E+03 -0.83166604268E+03  0.13200938316E+04  0.89976565894E+03 0.  0.
         23    2    4    4    0    0 -0.31744099955E+03  0.49346749085E+03 -0.15270816575E+03  0.61312554098E+03  0.91237012173E+02 0.  0.
         23    2    4    4    0    0 -0.53327945093E+02 -0.17108345538E+03 -0.67895787693E+03  0.70696829061E+03  0.81895951369E+02 0.  0.
          4    1    3    3  502    0  0.36424830000E+03 -0.32835080111E+03 -0.53265154341E+03  0.72402260968E+03  0.00000000000E+00 0. -1.
         -4    1    3    3    0  502  0.65206446421E+01  0.59667656363E+01 -0.11630231044E+02  0.14607647752E+02  0.00000000000E+00 0.  1.
         13    1    5    5    0    0 -0.31344121669E+03  0.44080005723E+03 -0.13580263617E+03  0.55766696403E+03  0.00000000000E+00 0.  1.
        -13    1    5    5    0    0 -0.39997828569E+01  0.52667433617E+02 -0.16905529580E+02  0.55458576948E+02  0.00000000000E+00 0. -1.
          3    1    6    6  503    0 -0.51537800795E+02 -0.40464167770E+02 -0.19643400626E+03  0.20707441319E+03  0.00000000000E+00 0. -1.
         -3    1    6    6    0  503 -0.17901442978E+01 -0.13061928761E+03 -0.48252387067E+03  0.49989387742E+03  0.00000000000E+00 0.  1.
<mgrwt>
<rscale>  0 0.15313760E+04</rscale>
<asrwt>0</asrwt>
<pdfrwt beam="1">  1        2 0.52521253E-01 0.15313760E+04</pdfrwt>
<pdfrwt beam="2">  1       -2 0.26420552E+00 0.15313760E+04</pdfrwt>
<totfact> 0.48224890E+00</totfact>
</mgrwt>
</event>
<event>
12    3  0.4688899E-008  0.1939179E+04  0.7818608E-02  0.8635596E-01
          2   -1    0    0  501    0  0.00000000000E+00  0.00000000000E+00  0.21102749428E+04  0.21102749428E+04  0.00000000000E+00 0. -1.
         -2   -1    0    0    0  501 -0.00000000000E+00 -0.00000000000E+00 -0.44548893886E+03  0.44548893886E+03  0.00000000000E+00 0.  1.
         23    2    1    2    0    0 -0.69894850400E+03 -0.23214929827E+03  0.88165074606E+03  0.11523891462E+04  0.90941729887E+02 0.  0.
        254    2    1    2    0    0  0.69894850400E+03  0.23214929827E+03  0.78313525784E+03  0.14033747355E+04  0.90207400370E+03 0.  0.
         23    2    4    4    0    0 -0.13196329687E+03  0.85921222318E+02 -0.75580902312E+02  0.19570198801E+03  0.88261130474E+02 0.  0.
         23    2    4    4    0    0  0.83091180086E+03  0.14622807596E+03  0.85871616015E+03  0.12076727475E+04  0.96348068093E+02 0.  0.
          3    1    3    3  502    0 -0.12741802425E+03 -0.62629984640E+02  0.21953695782E+03  0.26144663648E+03  0.00000000000E+00 0. -1.
         -3    1    3    3    0  502 -0.57153047974E+03 -0.16951931363E+03  0.66211378824E+03  0.89094250968E+03  0.00000000000E+00 0.  1.
         13    1    5    5    0    0 -0.91358104199E+02  0.81610476398E+02 -0.16101217759E+02  0.12355493626E+03  0.00000000000E+00 0. -1.
        -13    1    5    5    0    0 -0.40605192668E+02  0.43107459203E+01 -0.59479684553E+02  0.72147051752E+02  0.00000000000E+00 0.  1.
          3    1    6    6  503    0  0.70712685866E+03  0.15497607966E+03  0.75456333076E+03  0.10456633300E+04  0.00000000000E+00 0. -1.
         -3    1    6    6    0  503  0.12378494220E+03 -0.87480037037E+01  0.10415282939E+03  0.16200941749E+03  0.00000000000E+00 0.  1.
<mgrwt>
<rscale>  0 0.19391794E+04</rscale>
<asrwt>0</asrwt>
<pdfrwt beam="1">  1        2 0.32465768E+00 0.19391794E+04</pdfrwt>
<pdfrwt beam="2">  1       -2 0.68536761E-01 0.19391794E+04</pdfrwt>
<totfact> 0.10538323E+01</totfact>
</mgrwt>
</event>
<event>
12    3  0.4688899E-008  0.1304635E+04  0.7818608E-02  0.9025897E-01
          2   -1    0    0  501    0  0.00000000000E+00  0.00000000000E+00  0.56874441065E+03  0.56874441065E+03  0.00000000000E+00 0. -1.
         -2   -1    0    0    0  501 -0.00000000000E+00 -0.00000000000E+00 -0.74817133384E+03  0.74817133384E+03  0.00000000000E+00 0.  1.
         23    2    1    2    0    0  0.80420523668E+02 -0.13374986294E+03  0.25688055989E+03  0.31404621952E+03  0.90999557599E+02 0.  0.
        254    2    1    2    0    0 -0.80420523668E+02  0.13374986294E+03 -0.43630748309E+03  0.10028695250E+04  0.88939674941E+03 0.  0.
         23    2    4    4    0    0  0.39136222919E+03 -0.75097005575E+00 -0.16594459934E+03  0.43511349237E+03  0.92850324703E+02 0.  0.
         23    2    4    4    0    0 -0.47178275286E+03  0.13450083299E+03 -0.27036288374E+03  0.56775603260E+03  0.92635758086E+02 0.  0.
          4    1    3    3  502    0  0.17278040480E+02 -0.91222230564E+02  0.84237423832E+02  0.12536335033E+03  0.00000000000E+00 0. -1.
         -4    1    3    3    0  502  0.63142483188E+02 -0.42527632371E+02  0.17264313606E+03  0.18868286919E+03  0.00000000000E+00 0.  1.
         13    1    5    5    0    0  0.25299030072E+03  0.43946269048E+02 -0.10315785206E+03  0.27672533181E+03  0.00000000000E+00 0.  1.
        -13    1    5    5    0    0  0.13837192847E+03 -0.44697239104E+02 -0.62786747281E+02  0.15838816056E+03  0.00000000000E+00 0. -1.
          1    1    6    6  503    0 -0.17613196004E+03  0.93276589653E+02 -0.12946125320E+03  0.23766195658E+03  0.00000000000E+00 0. -1.
         -1    1    6    6    0  503 -0.29565079282E+03  0.41224243338E+02 -0.14090163054E+03  0.33009407602E+03  0.00000000000E+00 0.  1.
<mgrwt>
<rscale>  0 0.13046352E+04</rscale>
<asrwt>0</asrwt>
<pdfrwt beam="1">  1        2 0.87499140E-01 0.13046352E+04</pdfrwt>
<pdfrwt beam="2">  1       -2 0.11510328E+00 0.13046352E+04</pdfrwt>
<totfact> 0.30491724E+01</totfact>
</mgrwt>
</event>
<event>
12    3  0.4688899E-008  0.2621279E+04  0.7818608E-02  0.8361009E-01
         -1   -1    0    0    0  501 -0.00000000000E+00  0.00000000000E+00  0.73877242951E+03  0.73877242951E+03  0.00000000000E+00 0.  1.
          1   -1    0    0  501    0  0.00000000000E+00 -0.00000000000E+00 -0.23251760037E+04  0.23251760037E+04  0.00000000000E+00 0. -1.
         23    2    1    2    0    0 -0.78985640422E+03 -0.42486105813E+03 -0.15444870981E+04  0.17884002099E+04  0.92492468087E+02 0.  0.
        254    2    1    2    0    0  0.78985640422E+03  0.42486105813E+03 -0.41916476089E+02  0.12755482233E+04  0.90602771535E+03 0.  0.
         23    2    4    4    0    0  0.25766674506E+02 -0.14289808048E+03 -0.24753817237E+03  0.29760635302E+03  0.78807434040E+02 0.  0.
         23    2    4    4    0    0  0.76408972971E+03  0.56775913861E+03  0.20562169628E+03  0.97794187027E+03  0.88918305916E+02 0.  0.
          2    1    3    3  502    0 -0.68606317385E+03 -0.34810556214E+03 -0.13717604176E+04  0.15727640650E+04  0.00000000000E+00 0. -1.
         -2    1    3    3    0  502 -0.10379323037E+03 -0.76755495998E+02 -0.17272668054E+03  0.21563614494E+03  0.00000000000E+00 0.  1.
         13    1    5    5    0    0 -0.20941827172E+02 -0.97057034317E+01 -0.24505851208E+02  0.33664484963E+02  0.00000000000E+00 0. -1.
        -13    1    5    5    0    0  0.46708501678E+02 -0.13319237704E+03 -0.22303232116E+03  0.26394186806E+03  0.00000000000E+00 0.  1.
          2    1    6    6  503    0  0.13060473917E+03  0.98625261353E+02  0.15291213412E+01  0.16366697371E+03  0.00000000000E+00 0. -1.
         -2    1    6    6    0  503  0.63348499054E+03  0.46913387726E+03  0.20409257494E+03  0.81427489656E+03  0.00000000000E+00 0.  1.
<mgrwt>
<rscale>  0 0.26212790E+04</rscale>
<asrwt>0</asrwt>
<pdfrwt beam="1">  1        1 0.35771939E+00 0.26212790E+04</pdfrwt>
<pdfrwt beam="2">  1       -1 0.11365730E+00 0.26212790E+04</pdfrwt>
<totfact> 0.11097469E+00</totfact>
</mgrwt>
</event>
<event>
12    3  0.4688899E-008  0.1402616E+04  0.7818608E-02  0.8951927E-01
          4   -1    0    0  501    0  0.00000000000E+00  0.00000000000E+00  0.16124207651E+04  0.16124207651E+04  0.00000000000E+00 0. -1.
         -4   -1    0    0    0  501 -0.00000000000E+00 -0.00000000000E+00 -0.30502752075E+03  0.30502752075E+03  0.00000000000E+00 0.  1.
         23    2    1    2    0    0  0.38760037621E+03  0.10675074677E+03  0.30992234948E+03  0.51659796398E+03  0.95873980370E+02 0.  0.
        254    2    1    2    0    0 -0.38760037621E+03 -0.10675074677E+03  0.99747089489E+03  0.14008503219E+04  0.89766567529E+03 0.  0.
         23    2    4    4    0    0  0.81908895535E+02 -0.38532948687E+03  0.58243038441E+03  0.70923459985E+03  0.92739874479E+02 0.  0.
         23    2    4    4    0    0 -0.46950927174E+03  0.27857874009E+03  0.41504051048E+03  0.69161572203E+03  0.89602516383E+02 0.  0.
          1    1    3    3  502    0  0.41113614394E+02  0.14463960549E+02  0.14592204743E+01  0.43608081449E+02  0.00000000000E+00 0. -1.
         -1    1    3    3    0  502  0.34648676181E+03  0.92286786223E+02  0.30846312901E+03  0.47298988254E+03  0.00000000000E+00 0.  1.
         13    1    5    5    0    0  0.87941995026E+02 -0.27114987758E+03  0.46437900847E+03  0.54488890070E+03  0.00000000000E+00 0. -1.
        -13    1    5    5    0    0 -0.60330994915E+01 -0.11417960928E+03  0.11805137595E+03  0.16434569915E+03  0.00000000000E+00 0.  1.
          4    1    6    6  503    0 -0.30091894699E+03  0.14559044941E+03  0.21039347249E+03  0.39498633506E+03  0.00000000000E+00 0. -1.
         -4    1    6    6    0  503 -0.16859032475E+03  0.13298829068E+03  0.20464703799E+03  0.29662938698E+03  0.00000000000E+00 0.  1.
<mgrwt>
<rscale>  0 0.14026157E+04</rscale>
<asrwt>0</asrwt>
<pdfrwt beam="1">  1        4 0.24806473E+00 0.14026157E+04</pdfrwt>
<pdfrwt beam="2">  1       -4 0.46927312E-01 0.14026157E+04</pdfrwt>
<totfact> 0.55779387E-01</totfact>
</mgrwt>
</event>
<event>
12    3  0.4688899E-008  0.2613537E+04  0.7818608E-02  0.8363618E-01
         -2   -1    0    0    0  501 -0.00000000000E+00  0.00000000000E+00  0.94932040888E+03  0.94932040888E+03  0.00000000000E+00 0.  1.
          2   -1    0    0  501    0  0.00000000000E+00 -0.00000000000E+00 -0.17988066134E+04  0.17988066134E+04  0.00000000000E+00 0. -1.
         23    2    1    2    0    0  0.77930291773E+03  0.29083104280E+03 -0.10817324440E+04  0.13676509706E+04  0.91806120428E+02 0.  0.
        254    2    1    2    0    0 -0.77930291773E+03 -0.29083104280E+03  0.23224623955E+03  0.13804760517E+04  0.10769772887E+04 0.  0.
         23    2    4    4    0    0 -0.71853197270E+03 -0.49920622455E+02 -0.30033450356E+03  0.78580792169E+03  0.92265981929E+02 0.  0.
         23    2    4    4    0    0 -0.60770945026E+02 -0.24091042035E+03  0.53258074311E+03  0.59466813000E+03  0.90868028000E+02 0.  0.
          3    1    3    3  502    0  0.77093971052E+02  0.36283503800E+02 -0.71178619264E+02  0.11102418142E+03  0.00000000000E+00 0. -1.
         -3    1    3    3    0  502  0.70220894667E+03  0.25454753900E+03 -0.10105538248E+04  0.12566267891E+04  0.00000000000E+00 0.  1.
         13    1    5    5    0    0 -0.94556464083E+02  0.22485590778E+02 -0.53012726500E+02  0.11071077573E+03  0.00000000000E+00 0. -1.
        -13    1    5    5    0    0 -0.62397550862E+03 -0.72406213233E+02 -0.24732177706E+03  0.67509714595E+03  0.00000000000E+00 0.  1.
          3    1    6    6  503    0 -0.67300074444E+02 -0.88289168466E+02  0.20191097584E+03  0.23041770647E+03  0.00000000000E+00 0. -1.
         -3    1    6    6    0  503  0.65291294170E+01 -0.15262125188E+03  0.33066976727E+03  0.36425042353E+03  0.00000000000E+00 0.  1.
<mgrwt>
<rscale>  0 0.26135369E+04</rscale>
<asrwt>0</asrwt>
<pdfrwt beam="1">  1        2 0.27673948E+00 0.26135369E+04</pdfrwt>
<pdfrwt beam="2">  1       -2 0.14604929E+00 0.26135369E+04</pdfrwt>
<totfact> 0.24554067E+00</totfact>
</mgrwt>
</event>
<event>
12    3  0.4688899E-008  0.1339246E+04  0.7818608E-02  0.8999009E-01
          1   -1    0    0  501    0  0.00000000000E+00  0.00000000000E+00  0.43131996296E+04  0.43131996296E+04  0.00000000000E+00 0.  1.
         -1   -1    0    0    0  501 -0.00000000000E+00 -0.00000000000E+00 -0.10395880702E+03  0.10395880702E+03  0.00000000000E+00 0. -1.
         23    2    1    2    0    0 -0.94531971215E+02 -0.19448498864E+03  0.21528541232E+04  0.21656402583E+04  0.91957317928E+02 0.  0.
        254    2    1    2    0    0  0.94531971215E+02  0.19448498864E+03  0.20563866993E+04  0.22515181783E+04  0.89098100170E+03 0.  0.
         23    2    4    4    0    0  0.99873151041E+02 -0.68972394200E+02  0.19454872763E+04  0.19513902495E+04  0.90946830404E+02 0.  0.
         23    2    4    4    0    0 -0.53411798256E+01  0.26345738284E+03  0.11089942302E+03  0.30012792877E+03  0.91322345732E+02 0.  0.
          4    1    3    3  502    0  0.13852406525E+02 -0.15277457567E+02  0.98341525318E+02  0.10048057264E+03  0.00000000000E+00 0. -1.
         -4    1    3    3    0  502 -0.10838437774E+03 -0.17920753107E+03  0.20545125979E+04  0.20651596857E+04  0.00000000000E+00 0.  1.
         13    1    5    5    0    0  0.10516279600E+03 -0.77095847261E+02  0.19141882969E+04  0.19186244602E+04  0.00000000000E+00 0. -1.
        -13    1    5    5    0    0 -0.52896449592E+01  0.81234530614E+01  0.31298979438E+02  0.32765789282E+02  0.00000000000E+00 0.  1.
          1    1    6    6  503    0 -0.36947674257E+02  0.14960740732E+03  0.94680135588E+02  0.18086413418E+03  0.00000000000E+00 0. -1.
         -1    1    6    6    0  503  0.31606494431E+02  0.11384997552E+03  0.16219287428E+02  0.11926379459E+03  0.00000000000E+00 0.  1.
<mgrwt>
<rscale>  0 0.13392462E+04</rscale>
<asrwt>0</asrwt>
<pdfrwt beam="1">  1        1 0.66356904E+00 0.13392462E+04</pdfrwt>
<pdfrwt beam="2">  1       -1 0.15993666E-01 0.13392462E+04</pdfrwt>
<totfact> 0.14839037E+00</totfact>
</mgrwt>
</event>
<event>
12    3  0.4688899E-008  0.1372426E+04  0.7818608E-02  0.8974023E-01
          2   -1    0    0  501    0  0.00000000000E+00  0.00000000000E+00  0.33397285351E+03  0.33397285351E+03  0.00000000000E+00 0. -1.
         -2   -1    0    0    0  501 -0.00000000000E+00 -0.00000000000E+00 -0.14099598274E+04  0.14099598274E+04  0.00000000000E+00 0.  1.
         23    2    1    2    0    0 -0.44581780935E+01 -0.57402501915E+00  0.18018754802E+03  0.20167012696E+03  0.90460393477E+02 0.  0.
        254    2    1    2    0    0  0.44581780935E+01  0.57402501915E+00 -0.12561745219E+04  0.15422625539E+04  0.89475088765E+03 0.  0.
         23    2    4    4    0    0 -0.65453338305E+02 -0.35911552134E+03 -0.10420346775E+04  0.11079732629E+04  0.92305930831E+02 0.  0.
         23    2    4    4    0    0  0.69911516399E+02  0.35968954636E+03 -0.21413984433E+03  0.43428929105E+03  0.92125596352E+02 0.  0.
          2    1    3    3  502    0 -0.31649865279E+02 -0.38370467028E+01  0.16917377468E+03  0.17215168584E+03  0.00000000000E+00 0. -1.
         -2    1    3    3    0  502  0.27191687185E+02  0.32630216837E+01  0.11013773343E+02  0.29518441113E+02  0.00000000000E+00 0.  1.
         13    1    5    5    0    0 -0.76480092428E+02 -0.32749459900E+03 -0.99451476883E+03  0.10498388173E+04  0.00000000000E+00 0. -1.
        -13    1    5    5    0    0  0.11026754122E+02 -0.31620922343E+02 -0.47519908713E+02  0.58134445558E+02  0.00000000000E+00 0.  1.
          1    1    6    6  503    0 -0.16155829408E+02  0.14021545052E+03 -0.65548588750E+02  0.15562133811E+03  0.00000000000E+00 0. -1.
         -1    1    6    6    0  503  0.86067345807E+02  0.21947409584E+03 -0.14859125558E+03  0.27866795294E+03  0.00000000000E+00 0.  1.
<mgrwt>
<rscale>  0 0.13724260E+04</rscale>
<asrwt>0</asrwt>
<pdfrwt beam="1">  1        2 0.51380438E-01 0.13724260E+04</pdfrwt>
<pdfrwt beam="2">  1       -2 0.21691690E+00 0.13724260E+04</pdfrwt>
<totfact> 0.98160964E+00</totfact>
</mgrwt>
</event>
<event>
12    3  0.4688899E-008  0.1637354E+04  0.7818608E-02  0.8797923E-01
         -2   -1    0    0    0  501 -0.00000000000E+00  0.00000000000E+00  0.20650408850E+03  0.20650408850E+03  0.00000000000E+00 0.  1.
          2   -1    0    0  501    0  0.00000000000E+00 -0.00000000000E+00 -0.32456111915E+04  0.32456111915E+04  0.00000000000E+00 0. -1.
         23    2    1    2    0    0 -0.29438306755E+03 -0.88334499447E+02 -0.20859231962E+04  0.21104635843E+04  0.92285349710E+02 0.  0.
        254    2    1    2    0    0  0.29438306755E+03  0.88334499447E+02 -0.95318390683E+03  0.13416516958E+04  0.89275155463E+03 0.  0.
         23    2    4    4    0    0  0.35303836978E+03 -0.34177562110E+03 -0.49073336386E+03  0.70056728461E+03  0.92350528601E+02 0.  0.
         23    2    4    4    0    0 -0.58655302234E+02  0.43011012055E+03 -0.46245054297E+03  0.64108441117E+03  0.93239247520E+02 0.  0.
          1    1    3    3  502    0 -0.25187959650E+03 -0.38727576588E+02 -0.15996038097E+04  0.16197763748E+04  0.00000000000E+00 0. -1.
         -1    1    3    3    0  502 -0.42503471044E+02 -0.49606922859E+02 -0.48631938654E+03  0.49068720950E+03  0.00000000000E+00 0.  1.
         13    1    5    5    0    0 -0.35935419691E+01 -0.17795919165E+02 -0.17493267554E+02  0.25211558709E+02  0.00000000000E+00 0.  1.
        -13    1    5    5    0    0  0.35663191175E+03 -0.32397970194E+03 -0.47324009631E+03  0.67535572590E+03  0.00000000000E+00 0. -1.
          4    1    6    6  503    0 -0.51237961778E+02  0.43244338599E+03 -0.45857956293E+03  0.63239847118E+03  0.00000000000E+00 0. -1.
         -4    1    6    6    0  503 -0.74173404563E+01 -0.23332654422E+01 -0.38709800346E+01  0.86859399893E+01  0.00000000000E+00 0.  1.
<mgrwt>
<rscale>  0 0.16373539E+04</rscale>
<asrwt>0</asrwt>
<pdfrwt beam="1">  1        2 0.49932475E+00 0.16373539E+04</pdfrwt>
<pdfrwt beam="2">  1       -2 0.31769863E-01 0.16373539E+04</pdfrwt>
<totfact> 0.10743383E+01</totfact>
</mgrwt>
</event>
<event>
12    3  0.4688899E-008  0.1643158E+04  0.7818608E-02  0.8794464E-01
         -1   -1    0    0    0  501 -0.00000000000E+00  0.00000000000E+00  0.38411549047E+03  0.38411549047E+03  0.00000000000E+00 0.  1.
          1   -1    0    0  501    0  0.00000000000E+00 -0.00000000000E+00 -0.17572638573E+04  0.17572638573E+04  0.00000000000E+00 0. -1.
         23    2    1    2    0    0 -0.16074072070E+03  0.52283359667E+03 -0.67107413198E+03  0.87054662561E+03  0.91205195367E+02 0.  0.
        254    2    1    2    0    0  0.16074072070E+03 -0.52283359667E+03 -0.70207423485E+03  0.12708327222E+04  0.90714664049E+03 0.  0.
         23    2    4    4    0    0  0.51990132631E+03 -0.30235764691E+03 -0.28488280304E+03  0.67088402974E+03  0.84909564542E+02 0.  0.
         23    2    4    4    0    0 -0.35916060561E+03 -0.22047594976E+03 -0.41719143181E+03  0.59994869241E+03  0.91015150912E+02 0.  0.
          4    1    3    3  502    0 -0.13388130907E+03  0.38929814233E+03 -0.55854767163E+03  0.69386796297E+03  0.00000000000E+00 0. -1.
         -4    1    3    3    0  502 -0.26859411623E+02  0.13353545434E+03 -0.11252646034E+03  0.17667866265E+03  0.00000000000E+00 0.  1.
         13    1    5    5    0    0  0.59266765085E+02 -0.32787446498E+02 -0.41982743643E+01  0.67861562015E+02  0.00000000000E+00 0. -1.
        -13    1    5    5    0    0  0.46063456123E+03 -0.26957020041E+03 -0.28068452868E+03  0.60302246773E+03  0.00000000000E+00 0.  1.
          4    1    6    6  503    0 -0.24195204505E+03 -0.15148508864E+03 -0.33857431524E+03  0.44285560979E+03  0.00000000000E+00 0. -1.
         -4    1    6    6    0  503 -0.11720856057E+03 -0.68990861118E+02 -0.78617116577E+02  0.15709308262E+03  0.00000000000E+00 0.  1.
<mgrwt>
<rscale>  0 0.16431583E+04</rscale>
<asrwt>0</asrwt>
<pdfrwt beam="1">  1        1 0.27034829E+00 0.16431583E+04</pdfrwt>
<pdfrwt beam="2">  1       -1 0.59094691E-01 0.16431583E+04</pdfrwt>
<totfact> 0.12089890E+01</totfact>
</mgrwt>
</event>
<event>
12    3  0.4688899E-008  0.1636587E+04  0.7818608E-02  0.8798381E-01
         -2   -1    0    0    0  501 -0.00000000000E+00  0.00000000000E+00  0.10392397203E+04  0.10392397203E+04  0.00000000000E+00 0.  1.
          2   -1    0    0  501    0  0.00000000000E+00 -0.00000000000E+00 -0.64432088752E+03  0.64432088752E+03  0.00000000000E+00 0. -1.
         23    2    1    2    0    0  0.12262820894E+03 -0.31894475338E+03  0.63747079997E+03  0.72904929922E+03  0.91544669676E+02 0.  0.
        254    2    1    2    0    0 -0.12262820894E+03  0.31894475338E+03 -0.24255196720E+03  0.95451130858E+03  0.85761118701E+03 0.  0.
         23    2    4    4    0    0  0.25204478603E+03 -0.11532137886E+03  0.62448224270E+02  0.29839433269E+03  0.91180055308E+02 0.  0.
         23    2    4    4    0    0 -0.37467299497E+03  0.43426613224E+03 -0.30500019147E+03  0.65611697589E+03  0.92181573472E+02 0.  0.
          3    1    3    3  502    0  0.64591653578E+02 -0.24865045357E+03  0.40810485499E+03  0.48223303748E+03  0.00000000000E+00 0. -1.
         -3    1    3    3    0  502  0.58036555363E+02 -0.70294299819E+02  0.22936594498E+03  0.24681626174E+03  0.00000000000E+00 0.  1.
         13    1    5    5    0    0  0.14490667825E+03 -0.11335611752E+03  0.49053164733E+02  0.19040422199E+03  0.00000000000E+00 0. -1.
        -13    1    5    5    0    0  0.10713810777E+03 -0.19652613312E+01  0.13395059538E+02  0.10799011070E+03  0.00000000000E+00 0.  1.
          4    1    6    6  503    0 -0.16738472997E+03  0.13544243908E+03 -0.87937804717E+02  0.23258409152E+03  0.00000000000E+00 0.  1.
         -4    1    6    6    0  503 -0.20728826500E+03  0.29882369316E+03 -0.21706238675E+03  0.42353288437E+03  0.00000000000E+00 0. -1.
<mgrwt>
<rscale>  0 0.16365865E+04</rscale>
<asrwt>0</asrwt>
<pdfrwt beam="1">  1        2 0.99126291E-01 0.16365865E+04</pdfrwt>
<pdfrwt beam="2">  1       -2 0.15988303E+00 0.16365865E+04</pdfrwt>
<totfact> 0.10962047E+01</totfact>
</mgrwt>
</event>
<event>
12    3  0.4688899E-008  0.2661656E+04  0.7818608E-02  0.8347554E-01
          1   -1    0    0  501    0  0.00000000000E+00  0.00000000000E+00  0.52959025683E+03  0.52959025683E+03  0.00000000000E+00 0. -1.
         -1   -1    0    0    0  501 -0.00000000000E+00 -0.00000000000E+00 -0.33442900370E+04  0.33442900370E+04  0.00000000000E+00 0.  1.
         23    2    1    2    0    0 -0.57361668110E+03 -0.84788952973E+03 -0.20947945530E+04  0.23331984323E+04  0.87737982831E+02 0.  0.
        254    2    1    2    0    0  0.57361668110E+03  0.84788952973E+03 -0.71990522716E+03  0.15406818615E+04  0.89860130809E+03 0.  0.
         23    2    4    4    0    0  0.65676513931E+03  0.29806847140E+03 -0.64595895111E+03  0.97273336805E+03  0.93605432224E+02 0.  0.
         23    2    4    4    0    0 -0.83148458206E+02  0.54982105833E+03 -0.73946276054E+02  0.56794849349E+03  0.88772615272E+02 0.  0.
          1    1    3    3  502    0 -0.10501958262E+02 -0.33469846057E+02 -0.47583900441E+02  0.59116404691E+02  0.00000000000E+00 0. -1.
         -1    1    3    3    0  502 -0.56311472284E+03 -0.81441968367E+03 -0.20472106525E+04  0.22740820276E+04  0.00000000000E+00 0.  1.
         13    1    5    5    0    0  0.47739523071E+02  0.17143434853E+02 -0.17641475536E+02  0.53704572251E+02  0.00000000000E+00 0. -1.
        -13    1    5    5    0    0  0.60902561624E+03  0.28092503654E+03 -0.62831747557E+03  0.91902879580E+03  0.00000000000E+00 0.  1.
          2    1    6    6  503    0 -0.76658986758E+01  0.47962643983E+01 -0.10836997101E+02  0.14114200681E+02  0.00000000000E+00 0. -1.
         -2    1    6    6    0  503 -0.75482559530E+02  0.54502479394E+03 -0.63109278952E+02  0.55383429281E+03  0.00000000000E+00 0.  1.
<mgrwt>
<rscale>  0 0.26616562E+04</rscale>
<asrwt>0</asrwt>
<pdfrwt beam="1">  1        1 0.81475423E-01 0.26616562E+04</pdfrwt>
<pdfrwt beam="2">  1       -1 0.51450617E+00 0.26616562E+04</pdfrwt>
<totfact> 0.42994276E-02</totfact>
</mgrwt>
</event>
<event>
12    3  0.4688899E-008  0.1823573E+04  0.7818608E-02  0.8693863E-01
          2   -1    0    0  501    0  0.00000000000E+00  0.00000000000E+00  0.12480995232E+04  0.12480995232E+04  0.00000000000E+00 0.  1.
         -2   -1    0    0    0  501 -0.00000000000E+00 -0.00000000000E+00 -0.66609661350E+03  0.66609661350E+03  0.00000000000E+00 0. -1.
         23    2    1    2    0    0  0.30566321606E+03 -0.36425860159E+03 -0.29040701216E+03  0.56622196567E+03  0.10078070856E+03 0.  0.
        254    2    1    2    0    0 -0.30566321606E+03  0.36425860159E+03  0.87240992185E+03  0.13479741710E+04  0.91094509357E+03 0.  0.
         23    2    4    4    0    0 -0.20125324839E+03 -0.11834491080E+03 -0.87086707417E+02  0.26443812183E+03  0.88515748721E+02 0.  0.
         23    2    4    4    0    0 -0.10440996767E+03  0.48260351239E+03  0.95949662927E+03  0.10835360492E+04  0.98025490428E+02 0.  0.
          1    1    3    3  502    0  0.24895000167E+03 -0.27501726862E+03 -0.26928899728E+03  0.45839629735E+03  0.00000000000E+00 0. -1.
         -1    1    3    3    0  502  0.56713214392E+02 -0.89241332969E+02 -0.21118014879E+02  0.10782566832E+03  0.00000000000E+00 0.  1.
         13    1    5    5    0    0  0.65658987728E+01 -0.57971672060E+01 -0.14965839544E+02  0.17340545769E+02  0.00000000000E+00 0.  1.
        -13    1    5    5    0    0 -0.20781914716E+03 -0.11254774359E+03 -0.72120867873E+02  0.24709757607E+03  0.00000000000E+00 0. -1.
          4    1    6    6  503    0 -0.88143740232E+01  0.26169799666E+03  0.53141613405E+03  0.59242437676E+03  0.00000000000E+00 0. -1.
         -4    1    6    6    0  503 -0.95595593646E+02  0.22090551573E+03  0.42808049521E+03  0.49111167242E+03  0.00000000000E+00 0.  1.
<mgrwt>
<rscale>  0 0.18235733E+04</rscale>
<asrwt>0</asrwt>
<pdfrwt beam="1">  1        2 0.19201531E+00 0.18235733E+04</pdfrwt>
<pdfrwt beam="2">  1       -2 0.10247640E+00 0.18235733E+04</pdfrwt>
<totfact> 0.13023109E+01</totfact>
</mgrwt>
</event>
<event>
12    3  0.4688899E-008  0.2881455E+04  0.7818608E-02  0.8278417E-01
          2   -1    0    0  501    0  0.00000000000E+00  0.00000000000E+00  0.26782944062E+04  0.26782944062E+04  0.00000000000E+00 0. -1.
         -2   -1    0    0    0  501 -0.00000000000E+00 -0.00000000000E+00 -0.77500632767E+03  0.77500632767E+03  0.00000000000E+00 0.  1.
         23    2    1    2    0    0  0.45114181267E+03  0.77678886040E+03  0.19856021892E+04  0.21813286692E+04  0.92999141887E+02 0.  0.
        254    2    1    2    0    0 -0.45114181267E+03 -0.77678886040E+03 -0.82314110703E+02  0.12719720647E+04  0.89677614359E+03 0.  0.
         23    2    4    4    0    0  0.58168483230E+02 -0.26312331407E+03  0.32874029272E+03  0.43506231380E+03  0.92690808513E+02 0.  0.
         23    2    4    4    0    0 -0.50931029590E+03 -0.51366554633E+03 -0.41105440342E+03  0.83690975087E+03  0.90570069792E+02 0.  0.
          3    1    3    3  502    0  0.30579438379E+03  0.59274401046E+03  0.15243718451E+04  0.16639005947E+04  0.00000000000E+00 0. -1.
         -3    1    3    3    0  502  0.14534742888E+03  0.18404484994E+03  0.46123034415E+03  0.51742807446E+03  0.00000000000E+00 0.  1.
         13    1    5    5    0    0 -0.22685774410E+02 -0.10445678915E+03  0.12354638526E+03  0.16336944166E+03  0.00000000000E+00 0.  1.
        -13    1    5    5    0    0  0.80854257640E+02 -0.15866652493E+03  0.20519390746E+03  0.27169287214E+03  0.00000000000E+00 0. -1.
          3    1    6    6  503    0 -0.28415826389E+03 -0.29662201356E+03 -0.28383039425E+03  0.49928972608E+03  0.00000000000E+00 0. -1.
         -3    1    6    6    0  503 -0.22515203201E+03 -0.21704353277E+03 -0.12722400917E+03  0.33762002480E+03  0.00000000000E+00 0.  1.
<mgrwt>
<rscale>  0 0.28814546E+04</rscale>
<asrwt>0</asrwt>
<pdfrwt beam="1">  1        2 0.41204529E+00 0.28814546E+04</pdfrwt>
<pdfrwt beam="2">  1       -2 0.11923174E+00 0.28814546E+04</pdfrwt>
<totfact> 0.12754256E+00</totfact>
</mgrwt>
</event>
<event>
12    3  0.4688899E-008  0.1285699E+04  0.7818608E-02  0.9040983E-01
          1   -1    0    0  501    0  0.00000000000E+00  0.00000000000E+00  0.59191092723E+03  0.59191092723E+03  0.00000000000E+00 0. -1.
         -1   -1    0    0    0  501 -0.00000000000E+00 -0.00000000000E+00 -0.69817184278E+03  0.69817184278E+03  0.00000000000E+00 0.  1.
         23    2    1    2    0    0  0.27550081209E+03  0.10003051980E+03  0.10183806688E+03  0.32604679682E+03  0.10014349450E+03 0.  0.
        254    2    1    2    0    0 -0.27550081209E+03 -0.10003051980E+03 -0.20809898244E+03  0.96403597320E+03  0.89451292264E+03 0.  0.
         23    2    4    4    0    0 -0.11721054361E+03 -0.42715691753E+03 -0.34062104768E+03  0.56717168209E+03  0.97260861174E+02 0.  0.
         23    2    4    4    0    0 -0.15829026848E+03  0.32712639772E+03  0.13252206524E+03  0.39686429111E+03  0.88722480775E+02 0.  0.
          3    1    3    3  502    0  0.17691053756E+03  0.10786642034E+03  0.45193857256E+02  0.21207307154E+03  0.00000000000E+00 0. -1.
         -3    1    3    3    0  502  0.98590274534E+02 -0.78359005380E+01  0.56644209627E+02  0.11397372528E+03  0.00000000000E+00 0.  1.
         13    1    5    5    0    0 -0.11395113940E+03 -0.26009960796E+03 -0.24237316320E+03  0.37333820923E+03  0.00000000000E+00 0.  1.
        -13    1    5    5    0    0 -0.32594042105E+01 -0.16705730957E+03 -0.98247884481E+02  0.19383347286E+03  0.00000000000E+00 0. -1.
          1    1    6    6  503    0 -0.74011219712E+02  0.22785792332E+03  0.56758664412E+02  0.24620812304E+03  0.00000000000E+00 0.  1.
         -1    1    6    6    0  503 -0.84279048773E+02  0.99268474403E+02  0.75763400829E+02  0.15065616807E+03  0.00000000000E+00 0. -1.
<mgrwt>
<rscale>  0 0.12856991E+04</rscale>
<asrwt>0</asrwt>
<pdfrwt beam="1">  1        1 0.91063220E-01 0.12856991E+04</pdfrwt>
<pdfrwt beam="2">  1       -1 0.10741105E+00 0.12856991E+04</pdfrwt>
<totfact> 0.27746773E+01</totfact>
</mgrwt>
</event>
<event>
12    3  0.4688899E-008  0.1546347E+04  0.7818608E-02  0.8854205E-01
          2   -1    0    0  501    0  0.00000000000E+00  0.00000000000E+00  0.32577813824E+04  0.32577813824E+04  0.00000000000E+00 0. -1.
         -2   -1    0    0    0  501 -0.00000000000E+00 -0.00000000000E+00 -0.18349817021E+03  0.18349817021E+03  0.00000000000E+00 0.  1.
         23    2    1    2    0    0  0.23137646242E+03 -0.44836913907E+03  0.11034360170E+04  0.12171585606E+04  0.96612451930E+02 0.  0.
        254    2    1    2    0    0 -0.23137646242E+03  0.44836913907E+03  0.19708471952E+04  0.22241209920E+04  0.89883567351E+03 0.  0.
         23    2    4    4    0    0 -0.37291885893E+03  0.13078879130E+02  0.15461904191E+04  0.15932285220E+04  0.91830161980E+02 0.  0.
         23    2    4    4    0    0  0.14154239651E+03  0.43529025994E+03  0.42465677607E+03  0.63089247001E+03  0.90443744049E+02 0.  0.
          3    1    3    3  502    0  0.19488888142E+03 -0.32966028362E+03  0.90986949751E+03  0.98717783666E+03  0.00000000000E+00 0. -1.
         -3    1    3    3    0  502  0.36487580997E+02 -0.11870885545E+03  0.19356651950E+03  0.22998072397E+03  0.00000000000E+00 0.  1.
         13    1    5    5    0    0 -0.29268687489E+03  0.46617124321E+02  0.12401948384E+04  0.12751164654E+04  0.00000000000E+00 0.  1.
        -13    1    5    5    0    0 -0.80231984037E+02 -0.33538245191E+02  0.30599558071E+03  0.31811205662E+03  0.00000000000E+00 0. -1.
          1    1    6    6  503    0  0.47393104606E+02  0.47730405905E+02  0.51528546071E+02  0.84731865743E+02  0.00000000000E+00 0. -1.
         -1    1    6    6    0  503  0.94149291907E+02  0.38755985403E+03  0.37312823000E+03  0.54616060426E+03  0.00000000000E+00 0.  1.
<mgrwt>
<rscale>  0 0.15463466E+04</rscale>
<asrwt>0</asrwt>
<pdfrwt beam="1">  1        2 0.50119709E+00 0.15463466E+04</pdfrwt>
<pdfrwt beam="2">  1       -2 0.28230490E-01 0.15463466E+04</pdfrwt>
<totfact> 0.13262830E+01</totfact>
</mgrwt>
</event>
<event>
12    3  0.4688899E-008  0.1267879E+04  0.7818608E-02  0.9055432E-01
          1   -1    0    0  501    0  0.00000000000E+00  0.00000000000E+00  0.16415584176E+04  0.16415584176E+04  0.00000000000E+00 0. -1.
         -1   -1    0    0    0  501 -0.00000000000E+00 -0.00000000000E+00 -0.24481577527E+03  0.24481577527E+03  0.00000000000E+00 0.  1.
         23    2    1    2    0    0  0.24606896679E+02  0.30371030636E+03  0.39042982276E+03  0.50336079941E+03  0.89951088570E+02 0.  0.
        254    2    1    2    0    0 -0.24606896679E+02 -0.30371030636E+03  0.10063128195E+04  0.13830133934E+04  0.89845150458E+03 0.  0.
         23    2    4    4    0    0  0.94937202083E+02 -0.22629785293E+03  0.11382610440E+04  0.11684867064E+04  0.97463779733E+02 0.  0.
         23    2    4    4    0    0 -0.11954409876E+03 -0.77412453423E+02 -0.13194822442E+03  0.21452668699E+03  0.91257251811E+02 0.  0.
          1    1    3    3  502    0  0.42762879552E+01  0.44443183130E+02  0.15901402424E+02  0.47395545830E+02  0.00000000000E+00 0. -1.
         -1    1    3    3    0  502  0.20330608724E+02  0.25926712323E+03  0.37452842034E+03  0.45596525358E+03  0.00000000000E+00 0.  1.
         13    1    5    5    0    0  0.63399358026E+01 -0.45392306813E+02  0.89467551283E+02  0.10052412166E+03  0.00000000000E+00 0.  1.
        -13    1    5    5    0    0  0.88597266281E+02 -0.18090554612E+03  0.10487934927E+04  0.10679625848E+04  0.00000000000E+00 0. -1.
          2    1    6    6  503    0 -0.32623582555E+02  0.11135153253E+01 -0.79966019636E+02  0.86371884033E+02  0.00000000000E+00 0.  1.
         -2    1    6    6    0  503 -0.86920516208E+02 -0.78525968749E+02 -0.51982204781E+02  0.12815480295E+03  0.00000000000E+00 0. -1.
<mgrwt>
<rscale>  0 0.12678792E+04</rscale>
<asrwt>0</asrwt>
<pdfrwt beam="1">  1        1 0.25254744E+00 0.12678792E+04</pdfrwt>
<pdfrwt beam="2">  1       -1 0.37663966E-01 0.12678792E+04</pdfrwt>
<totfact> 0.34984543E+01</totfact>
</mgrwt>
</event>
<event>
12    3  0.4688899E-008  0.2500824E+04  0.7818608E-02  0.8402692E-01
         -1   -1    0    0    0  501 -0.00000000000E+00  0.00000000000E+00  0.55842592626E+03  0.55842592626E+03  0.00000000000E+00 0.  1.
          1   -1    0    0  501    0  0.00000000000E+00 -0.00000000000E+00 -0.27998879655E+04  0.27998879655E+04  0.00000000000E+00 0. -1.
         23    2    1    2    0    0 -0.53049042301E+03  0.51725526133E+03  0.91468097390E+02  0.75199054599E+03  0.90278868722E+02 0.  0.
        254    2    1    2    0    0  0.53049042301E+03 -0.51725526133E+03 -0.23329301367E+04  0.26063233458E+04  0.89520124331E+03 0.  0.
         23    2    4    4    0    0 -0.78607432090E+02 -0.17851410462E+03 -0.15034125498E+04  0.15188294757E+04  0.92451433694E+02 0.  0.
         23    2    4    4    0    0  0.60909785510E+03 -0.33874115671E+03 -0.82951758688E+03  0.10874938701E+04  0.93796173369E+02 0.  0.
          3    1    3    3  502    0 -0.54086246469E+02  0.66743938270E+02 -0.16497841432E+02  0.87477163447E+02  0.00000000000E+00 0. -1.
         -3    1    3    3    0  502 -0.47640417654E+03  0.45051132306E+03  0.10796593882E+03  0.66451338254E+03  0.00000000000E+00 0.  1.
         13    1    5    5    0    0 -0.40402489065E+02 -0.17229459621E+03 -0.12565683154E+04  0.12689687626E+04  0.00000000000E+00 0.  1.
        -13    1    5    5    0    0 -0.38204943025E+02 -0.62195084074E+01 -0.24684423434E+03  0.24986071317E+03  0.00000000000E+00 0. -1.
          1    1    6    6  503    0  0.19246965098E+03 -0.60632125508E+02 -0.25740729065E+03  0.32707695497E+03  0.00000000000E+00 0. -1.
         -1    1    6    6    0  503  0.41662820412E+03 -0.27810903120E+03 -0.57211029623E+03  0.76041691509E+03  0.00000000000E+00 0.  1.
<mgrwt>
<rscale>  0 0.25008239E+04</rscale>
<asrwt>0</asrwt>
<pdfrwt beam="1">  1        1 0.43075199E+00 0.25008239E+04</pdfrwt>
<pdfrwt beam="2">  1       -1 0.85911681E-01 0.25008239E+04</pdfrwt>
<totfact> 0.99031482E-01</totfact>
</mgrwt>
</event>
<event>
12    3  0.4688899E-008  0.1171600E+04  0.7818608E-02  0.9138084E-01
          1   -1    0    0  501    0  0.00000000000E+00  0.00000000000E+00  0.17248660869E+04  0.17248660869E+04  0.00000000000E+00 0. -1.
         -1   -1    0    0    0  501 -0.00000000000E+00 -0.00000000000E+00 -0.19894981924E+03  0.19894981924E+03  0.00000000000E+00 0.  1.
         23    2    1    2    0    0  0.10380950555E+03 -0.10456979274E+03  0.59536674742E+03  0.62004824991E+03  0.91033034092E+02 0.  0.
        254    2    1    2    0    0 -0.10380950555E+03  0.10456979274E+03  0.93054952025E+03  0.13037676562E+04  0.90120832042E+03 0.  0.
         23    2    4    4    0    0 -0.15635773485E+03 -0.37749503162E+03  0.41375913353E+03  0.58914119783E+03  0.94554165678E+02 0.  0.
         23    2    4    4    0    0  0.52548229304E+02  0.48206482436E+03  0.51679038671E+03  0.71462645840E+03  0.92037274823E+02 0.  0.
          1    1    3    3  502    0  0.35412245824E+02 -0.97169173637E+02  0.32454204625E+03  0.34062210035E+03  0.00000000000E+00 0. -1.
         -1    1    3    3    0  502  0.68397259726E+02 -0.74006191066E+01  0.27082470116E+03  0.27942614957E+03  0.00000000000E+00 0.  1.
         13    1    5    5    0    0 -0.72273340795E+01 -0.91572052153E+02  0.56391387115E+02  0.10778526631E+03  0.00000000000E+00 0. -1.
        -13    1    5    5    0    0 -0.14913040078E+03 -0.28592297947E+03  0.35736774642E+03  0.48135593151E+03  0.00000000000E+00 0.  1.
          3    1    6    6  503    0  0.36133620529E+02  0.87356904149E+02  0.13832792005E+03  0.16754545861E+03  0.00000000000E+00 0. -1.
         -3    1    6    6    0  503  0.16414608775E+02  0.39470792021E+03  0.37846246666E+03  0.54708099979E+03  0.00000000000E+00 0.  1.
<mgrwt>
<rscale>  0 0.11716003E+04</rscale>
<asrwt>0</asrwt>
<pdfrwt beam="1">  1        1 0.26536400E+00 0.11716003E+04</pdfrwt>
<pdfrwt beam="2">  1       -1 0.30607666E-01 0.11716003E+04</pdfrwt>
<totfact> 0.44794277E+01</totfact>
</mgrwt>
</event>
<event>
12    3  0.4688899E-008  0.1474959E+04  0.7818608E-02  0.8901277E-01
         -1   -1    0    0    0  501 -0.00000000000E+00  0.00000000000E+00  0.50772408996E+03  0.50772408996E+03  0.00000000000E+00 0.  1.
          1   -1    0    0  501    0  0.00000000000E+00 -0.00000000000E+00 -0.10712044424E+04  0.10712044424E+04  0.00000000000E+00 0. -1.
         23    2    1    2    0    0  0.39578423425E+03 -0.38797478189E+02 -0.42293154956E+03  0.58569723847E+03  0.77587081048E+02 0.  0.
        254    2    1    2    0    0 -0.39578423425E+03  0.38797478189E+02 -0.14054880287E+03  0.99323129389E+03  0.89922412823E+03 0.  0.
         23    2    4    4    0    0 -0.49617925344E+03 -0.14744698333E+03  0.21611459051E+03  0.56849301296E+03  0.92435518735E+02 0.  0.
         23    2    4    4    0    0  0.10039501919E+03  0.18624446151E+03 -0.35666339339E+03  0.42473828093E+03  0.91802351714E+02 0.  0.
          1    1    3    3  502    0  0.26820944065E+03  0.10425255299E+02 -0.28330715670E+03  0.39026649233E+03  0.00000000000E+00 0. -1.
         -1    1    3    3    0  502  0.12757479360E+03 -0.49222733488E+02 -0.13962439286E+03  0.19543074614E+03  0.00000000000E+00 0.  1.
         13    1    5    5    0    0 -0.25558593329E+03 -0.12255377794E+03  0.12876459682E+03  0.31132606569E+03  0.00000000000E+00 0. -1.
        -13    1    5    5    0    0 -0.24059332015E+03 -0.24893205390E+02  0.87349993696E+02  0.25716694728E+03  0.00000000000E+00 0.  1.
          1    1    6    6  503    0  0.92062902294E+02  0.13272256152E+03 -0.32252287334E+03  0.36071021630E+03  0.00000000000E+00 0. -1.
         -1    1    6    6    0  503  0.83321168965E+01  0.53521899996E+02 -0.34140520048E+02  0.64028064630E+02  0.00000000000E+00 0.  1.
<mgrwt>
<rscale>  0 0.14749594E+04</rscale>
<asrwt>0</asrwt>
<pdfrwt beam="1">  1        1 0.16480068E+00 0.14749594E+04</pdfrwt>
<pdfrwt beam="2">  1       -1 0.78111400E-01 0.14749594E+04</pdfrwt>
<totfact> 0.21212153E+01</totfact>
</mgrwt>
</event>
<event>
12    3  0.4688899E-008  0.1856725E+04  0.7818608E-02  0.8676702E-01
         -2   -1    0    0    0  501 -0.00000000000E+00  0.00000000000E+00  0.64171933628E+03  0.64171933628E+03  0.00000000000E+00 0.  1.
          2   -1    0    0  501    0  0.00000000000E+00 -0.00000000000E+00 -0.13430435849E+04  0.13430435849E+04  0.00000000000E+00 0. -1.
         23    2    1    2    0    0 -0.52591603266E+03  0.16470475500E+03 -0.73958641611E+03  0.92740891456E+03  0.96870522759E+02 0.  0.
        254    2    1    2    0    0  0.52591603266E+03 -0.16470475500E+03  0.38262167482E+02  0.10573540066E+04  0.90156429174E+03 0.  0.
         23    2    4    4    0    0  0.53045921225E+03 -0.98639682180E+02  0.40091077053E+03  0.67839139303E+03  0.91480453914E+02 0.  0.
         23    2    4    4    0    0 -0.45431795857E+01 -0.66065072820E+02 -0.36264860305E+03  0.37896261360E+03  0.87826071749E+02 0.  0.
          2    1    3    3  502    0 -0.19593210804E+03  0.13323295441E+02 -0.25059904072E+03  0.31838150130E+03  0.00000000000E+00 0.  1.
         -2    1    3    3    0  502 -0.32998392463E+03  0.15138145956E+03 -0.48898737539E+03  0.60902741326E+03  0.00000000000E+00 0. -1.
         13    1    5    5    0    0  0.44356464768E+03 -0.58730456277E+02  0.36044539666E+03  0.57456048170E+03  0.00000000000E+00 0.  1.
        -13    1    5    5    0    0  0.86894564572E+02 -0.39909225903E+02  0.40465373878E+02  0.10383091133E+03  0.00000000000E+00 0. -1.
          1    1    6    6  503    0  0.12629833546E+02 -0.16756079684E+02 -0.11449543324E+02  0.23903366794E+02  0.00000000000E+00 0. -1.
         -1    1    6    6    0  503 -0.17173013132E+02 -0.49308993137E+02 -0.35119905973E+03  0.35505924680E+03  0.00000000000E+00 0.  1.
<mgrwt>
<rscale>  0 0.18567251E+04</rscale>
<asrwt>0</asrwt>
<pdfrwt beam="1">  1        2 0.20662209E+00 0.18567251E+04</pdfrwt>
<pdfrwt beam="2">  1       -2 0.98726052E-01 0.18567251E+04</pdfrwt>
<totfact> 0.12489442E+01</totfact>
</mgrwt>
</event>
<event>
12    3  0.4688899E-008  0.1399138E+04  0.7818608E-02  0.8954443E-01
         -2   -1    0    0    0  501 -0.00000000000E+00  0.00000000000E+00  0.37626805142E+03  0.37626805142E+03  0.00000000000E+00 0.  1.
          2   -1    0    0  501    0  0.00000000000E+00 -0.00000000000E+00 -0.13006595123E+04  0.13006595123E+04  0.00000000000E+00 0. -1.
         23    2    1    2    0    0 -0.59172481315E+02  0.10814490350E+03 -0.72289012599E+03  0.73974749158E+03  0.97260034711E+02 0.  0.
        254    2    1    2    0    0  0.59172481315E+02 -0.10814490350E+03 -0.20150133493E+03  0.93718007217E+03  0.90692171492E+03 0.  0.
         23    2    4    4    0    0  0.31667711343E+02  0.28088214379E+03 -0.39365008188E+03  0.49302705644E+03  0.90651358376E+02 0.  0.
         23    2    4    4    0    0  0.27504769973E+02 -0.38902704729E+03  0.19214874695E+03  0.44415301573E+03  0.90841645358E+02 0.  0.
          3    1    3    3  502    0 -0.35633676260E+02  0.78943761061E+02 -0.23560656809E+03  0.25102257114E+03  0.00000000000E+00 0. -1.
         -3    1    3    3    0  502 -0.23538805056E+02  0.29201142440E+02 -0.48728355790E+03  0.48872492045E+03  0.00000000000E+00 0.  1.
         13    1    5    5    0    0  0.25644662404E+02  0.31815199467E+02 -0.24420899559E+02  0.47604999340E+02  0.00000000000E+00 0. -1.
        -13    1    5    5    0    0  0.60230489389E+01  0.24906694432E+03 -0.36922918232E+03  0.44542205710E+03  0.00000000000E+00 0.  1.
          1    1    6    6  503    0  0.16062308875E+02 -0.82582028624E+02  0.36829106492E+01  0.84210171885E+02  0.00000000000E+00 0. -1.
         -1    1    6    6    0  503  0.11442461098E+02 -0.30644501867E+03  0.18846583630E+03  0.35994284385E+03  0.00000000000E+00 0.  1.
<mgrwt>
<rscale>  0 0.13991378E+04</rscale>
<asrwt>0</asrwt>
<pdfrwt beam="1">  1        2 0.20010146E+00 0.13991378E+04</pdfrwt>
<pdfrwt beam="2">  1       -2 0.57887394E-01 0.13991378E+04</pdfrwt>
<totfact> 0.44904521E+01</totfact>
</mgrwt>
</event>
<event>
12    3  0.4688899E-008  0.2165131E+04  0.7818608E-02  0.8533083E-01
         -2   -1    0    0    0  501 -0.00000000000E+00  0.00000000000E+00  0.11599039667E+04  0.11599039667E+04  0.00000000000E+00 0.  1.
          2   -1    0    0  501    0  0.00000000000E+00 -0.00000000000E+00 -0.10103840840E+04  0.10103840840E+04  0.00000000000E+00 0. -1.
         23    2    1    2    0    0  0.24154037569E+03 -0.27802265430E+03  0.87775832603E+03  0.95602652527E+03  0.88818290405E+02 0.  0.
        254    2    1    2    0    0 -0.24154037569E+03  0.27802265430E+03 -0.72823844330E+03  0.12142615254E+04  0.89914485620E+03 0.  0.
         23    2    4    4    0    0  0.28102325350E+03  0.21145148249E+03 -0.76489301166E+02  0.37108042824E+03  0.90356364324E+02 0.  0.
         23    2    4    4    0    0 -0.52256362919E+03  0.66571171811E+02 -0.65174914214E+03  0.84318109718E+03  0.93128679272E+02 0.  0.
          3    1    3    3  502    0  0.18907877939E+02 -0.34610409341E+02  0.17934766493E+03  0.18363271277E+03  0.00000000000E+00 0. -1.
         -3    1    3    3    0  502  0.22263249775E+03 -0.24341224496E+03  0.69841066110E+03  0.77239381250E+03  0.00000000000E+00 0.  1.
         13    1    5    5    0    0  0.96338855629E+02  0.34917614037E+02 -0.50609940234E+02  0.11428814866E+03  0.00000000000E+00 0. -1.
        -13    1    5    5    0    0  0.18468439787E+03  0.17653386846E+03 -0.25879360931E+02  0.25679227958E+03  0.00000000000E+00 0.  1.
          2    1    6    6  503    0 -0.28073234176E+03  0.35413964340E+02 -0.42254009486E+03  0.50853213108E+03  0.00000000000E+00 0.  1.
         -2    1    6    6    0  503 -0.24183128743E+03  0.31157207471E+02 -0.22920904727E+03  0.33464896610E+03  0.00000000000E+00 0. -1.
<mgrwt>
<rscale>  0 0.21651314E+04</rscale>
<asrwt>0</asrwt>
<pdfrwt beam="1">  1        2 0.15544371E+00 0.21651314E+04</pdfrwt>
<pdfrwt beam="2">  1       -2 0.17844676E+00 0.21651314E+04</pdfrwt>
<totfact> 0.42256108E+00</totfact>
</mgrwt>
</event>
<event>
12    3  0.4688899E-008  0.1949289E+04  0.7818608E-02  0.8630704E-01
          1   -1    0    0  501    0  0.00000000000E+00  0.00000000000E+00  0.35312019300E+04  0.35312019300E+04  0.00000000000E+00 0. -1.
         -1   -1    0    0    0  501 -0.00000000000E+00 -0.00000000000E+00 -0.26901095954E+03  0.26901095954E+03  0.00000000000E+00 0.  1.
         23    2    1    2    0    0  0.85468536006E+02 -0.42692354443E+03  0.62252751622E+02  0.44893465236E+03  0.89990741561E+02 0.  0.
        254    2    1    2    0    0 -0.85468536006E+02  0.42692354443E+03  0.31999382188E+04  0.33512782371E+04  0.89548458122E+03 0.  0.
         23    2    4    4    0    0 -0.35110819757E+03  0.30561889147E+03  0.78524812224E+03  0.91719152167E+03  0.89139220951E+02 0.  0.
         23    2    4    4    0    0  0.26563966156E+03  0.12130465296E+03  0.24146900965E+04  0.24340867155E+04  0.93651628001E+02 0.  0.
          4    1    3    3  502    0  0.83326674557E+02 -0.20483079234E+03  0.48623081966E+02  0.22641376346E+03  0.00000000000E+00 0. -1.
         -4    1    3    3    0  502  0.21418614495E+01 -0.22209275209E+03  0.13629669656E+02  0.22252088890E+03  0.00000000000E+00 0.  1.
         13    1    5    5    0    0 -0.14072812297E+03  0.16597046389E+03  0.42200019151E+03  0.47479970631E+03  0.00000000000E+00 0.  1.
        -13    1    5    5    0    0 -0.21038007460E+03  0.13964842759E+03  0.36324793073E+03  0.44239181536E+03  0.00000000000E+00 0. -1.
          1    1    6    6  503    0  0.22622644607E+02  0.46531970471E+02  0.47243142554E+03  0.47525620476E+03  0.00000000000E+00 0.  1.
         -1    1    6    6    0  503  0.24301701696E+03  0.74772682488E+02  0.19422586710E+04  0.19588305107E+04  0.00000000000E+00 0. -1.
<mgrwt>
<rscale>  0 0.19492891E+04</rscale>
<asrwt>0</asrwt>
<pdfrwt beam="1">  1        1 0.54326180E+00 0.19492891E+04</pdfrwt>
<pdfrwt beam="2">  1       -1 0.41386304E-01 0.19492891E+04</pdfrwt>
<totfact> 0.12648613E+00</totfact>
</mgrwt>
</event>
<event>
12    3  0.4688899E-008  0.1390632E+04  0.7818608E-02  0.8960628E-01
          1   -1    0    0  501    0  0.00000000000E+00  0.00000000000E+00  0.28414330482E+04  0.28414330482E+04  0.00000000000E+00 0. -1.
         -1   -1    0    0    0  501 -0.00000000000E+00 -0.00000000000E+00 -0.17014796157E+03  0.17014796157E+03  0.00000000000E+00 0.  1.
         23    2    1    2    0    0 -0.13324644833E+03 -0.36304383617E+03  0.94855992166E+03  0.10292276082E+04  0.99940489401E+02 0.  0.
        254    2    1    2    0    0  0.13324644833E+03  0.36304383617E+03  0.17227251650E+04  0.19823534016E+04  0.90132545284E+03 0.  0.
         23    2    4    4    0    0  0.21843595674E+03  0.27727915513E+03  0.17820189735E+04  0.18189816333E+04  0.92220190004E+02 0.  0.
         23    2    4    4    0    0 -0.85189508411E+02  0.85764681038E+02 -0.59293808533E+02  0.16337176828E+03  0.92529703800E+02 0.  0.
          3    1    3    3  502    0 -0.10138155379E+03 -0.33826686594E+03  0.89510254664E+03  0.96224282852E+03  0.00000000000E+00 0. -1.
         -3    1    3    3    0  502 -0.31864894535E+02 -0.24776970227E+02  0.53457375024E+02  0.66984779628E+02  0.00000000000E+00 0.  1.
         13    1    5    5    0    0  0.33772211380E+02  0.89700458985E+02  0.63174588464E+03  0.63897542782E+03  0.00000000000E+00 0.  1.
        -13    1    5    5    0    0  0.18466374536E+03  0.18757869615E+03  0.11502730889E+04  0.11800062055E+04  0.00000000000E+00 0. -1.
          4    1    6    6  503    0 -0.65327360675E+02  0.15659544544E+02 -0.60633742801E+02  0.90494950987E+02  0.00000000000E+00 0. -1.
         -4    1    6    6    0  503 -0.19862147736E+02  0.70105136495E+02  0.13399342683E+01  0.72876817298E+02  0.00000000000E+00 0.  1.
<mgrwt>
<rscale>  0 0.13906316E+04</rscale>
<asrwt>0</asrwt>
<pdfrwt beam="1">  1        1 0.43714351E+00 0.13906316E+04</pdfrwt>
<pdfrwt beam="2">  1       -1 0.26176612E-01 0.13906316E+04</pdfrwt>
<totfact> 0.98927977E+00</totfact>
</mgrwt>
</event>
<event>
12    3  0.4688899E-008  0.1938221E+04  0.7818608E-02  0.8636062E-01
          1   -1    0    0  501    0  0.00000000000E+00  0.00000000000E+00  0.23431165660E+04  0.23431165660E+04  0.00000000000E+00 0. -1.
         -1   -1    0    0    0  501 -0.00000000000E+00 -0.00000000000E+00 -0.40082322725E+03  0.40082322725E+03  0.00000000000E+00 0.  1.
         23    2    1    2    0    0 -0.37761479744E+03  0.35031632131E+03  0.15477692215E+04  0.16337942690E+04  0.91540647141E+02 0.  0.
        254    2    1    2    0    0  0.37761479744E+03 -0.35031632131E+03  0.39452411727E+03  0.11101455243E+04  0.90081038282E+03 0.  0.
         23    2    4    4    0    0  0.78489776827E+02 -0.60327927515E+03  0.34297255324E+03  0.70424122971E+03  0.90658747307E+02 0.  0.
         23    2    4    4    0    0  0.29912502061E+03  0.25296295384E+03  0.51551564032E+02  0.40590429459E+03  0.92923079133E+02 0.  0.
          2    1    3    3  502    0 -0.10540430535E+03  0.11331838513E+03  0.59970888401E+03  0.61935601196E+03  0.00000000000E+00 0. -1.
         -2    1    3    3    0  502 -0.27221049210E+03  0.23699793619E+03  0.94806033747E+03  0.10144382570E+04  0.00000000000E+00 0.  1.
         13    1    5    5    0    0 -0.68981760830E+01 -0.29811697377E+03  0.16705149314E+03  0.34180040410E+03  0.00000000000E+00 0.  1.
        -13    1    5    5    0    0  0.85387952910E+02 -0.30516230138E+03  0.17592106009E+03  0.36244082561E+03  0.00000000000E+00 0. -1.
          3    1    6    6  503    0  0.79676440802E+02  0.11986714094E+03  0.38133391291E+02  0.14889802627E+03  0.00000000000E+00 0. -1.
         -3    1    6    6    0  503  0.21944857981E+03  0.13309581290E+03  0.13418172741E+02  0.25700626832E+03  0.00000000000E+00 0.  1.
<mgrwt>
<rscale>  0 0.19382214E+04</rscale>
<asrwt>0</asrwt>
<pdfrwt beam="1">  1        1 0.36047946E+00 0.19382214E+04</pdfrwt>
<pdfrwt beam="2">  1       -1 0.61665113E-01 0.19382214E+04</pdfrwt>
<totfact> 0.43261173E+00</totfact>
</mgrwt>
</event>
<event>
12    3  0.4688899E-008  0.1278735E+04  0.7818608E-02  0.9046601E-01
          1   -1    0    0  501    0  0.00000000000E+00  0.00000000000E+00  0.23448986830E+04  0.23448986830E+04  0.00000000000E+00 0. -1.
         -1   -1    0    0    0  501 -0.00000000000E+00 -0.00000000000E+00 -0.17433194085E+03  0.17433194085E+03  0.00000000000E+00 0.  1.
         23    2    1    2    0    0 -0.36518141441E+02  0.15620063647E+03  0.10989746911E+04  0.11142858811E+04  0.90307473016E+02 0.  0.
        254    2    1    2    0    0  0.36518141441E+02 -0.15620063647E+03  0.10715920511E+04  0.14049447428E+04  0.89433103087E+03 0.  0.
         23    2    4    4    0    0 -0.14556852070E+03 -0.24299894080E+03 -0.13538274895E+02  0.29723818372E+03  0.89042537722E+02 0.  0.
         23    2    4    4    0    0  0.18208666214E+03  0.86798304327E+02  0.10851303260E+04  0.11077065590E+04  0.93896210952E+02 0.  0.
          2    1    3    3  502    0 -0.28138848111E+02  0.16211347860E+03  0.10821108425E+04  0.10945485143E+04  0.00000000000E+00 0. -1.
         -2    1    3    3    0  502 -0.83792933309E+01 -0.59128421240E+01  0.16863848570E+02  0.19737366777E+02  0.00000000000E+00 0.  1.
         13    1    5    5    0    0 -0.25948418506E+02 -0.10045810947E+03  0.26083764450E+02  0.10698371348E+03  0.00000000000E+00 0. -1.
        -13    1    5    5    0    0 -0.11962010219E+03 -0.14254083133E+03 -0.39622039344E+02  0.19025447024E+03  0.00000000000E+00 0.  1.
          3    1    6    6  503    0  0.74714196699E+02 -0.11855761589E+02  0.32157466129E+03  0.33035289170E+03  0.00000000000E+00 0. -1.
         -3    1    6    6    0  503  0.10737246544E+03  0.98654065916E+02  0.76355566468E+03  0.77735366734E+03  0.00000000000E+00 0.  1.
<mgrwt>
<rscale>  0 0.12787349E+04</rscale>
<asrwt>0</asrwt>
<pdfrwt beam="1">  1        1 0.36075362E+00 0.12787349E+04</pdfrwt>
<pdfrwt beam="2">  1       -1 0.26820300E-01 0.12787349E+04</pdfrwt>
<totfact> 0.21245199E+01</totfact>
</mgrwt>
</event>
<event>
12    3  0.4688899E-008  0.1647779E+04  0.7818608E-02  0.8791721E-01
         -1   -1    0    0    0  501 -0.00000000000E+00  0.00000000000E+00  0.42846130936E+03  0.42846130936E+03  0.00000000000E+00 0.  1.
          1   -1    0    0  501    0  0.00000000000E+00 -0.00000000000E+00 -0.15842603578E+04  0.15842603578E+04  0.00000000000E+00 0. -1.
         23    2    1    2    0    0  0.30806626180E+03  0.26523785406E+03  0.83205147389E+02  0.42497703033E+03  0.91795636450E+02 0.  0.
        254    2    1    2    0    0 -0.30806626180E+03 -0.26523785406E+03 -0.12390041958E+04  0.15877446368E+04  0.90583977258E+03 0.  0.
         23    2    4    4    0    0  0.46234276362E+02 -0.39110029641E+03 -0.14837151594E+03  0.43050314597E+03  0.90674151656E+02 0.  0.
         23    2    4    4    0    0 -0.35430053816E+03  0.12586244235E+03 -0.10906326799E+04  0.11572414908E+04  0.91422097907E+02 0.  0.
          3    1    3    3  502    0  0.20386967703E+03  0.22666201052E+03  0.49359722989E+02  0.30882826049E+03  0.00000000000E+00 0.  1.
         -3    1    3    3    0  502  0.10419658477E+03  0.38575843544E+02  0.33845424400E+02  0.11614876984E+03  0.00000000000E+00 0. -1.
         13    1    5    5    0    0  0.17626235962E+02 -0.95057592827E+02  0.31084864087E+01  0.96727932036E+02  0.00000000000E+00 0. -1.
        -13    1    5    5    0    0  0.28608040400E+02 -0.29604270359E+03 -0.15148000235E+03  0.33377521393E+03  0.00000000000E+00 0.  1.
          1    1    6    6  503    0 -0.71091152294E+02  0.26291389116E+02 -0.12668193737E+03  0.14762622508E+03  0.00000000000E+00 0. -1.
         -1    1    6    6    0  503 -0.28320938587E+03  0.99571053237E+02 -0.96395074251E+03  0.10096152658E+04  0.00000000000E+00 0.  1.
<mgrwt>
<rscale>  0 0.16477794E+04</rscale>
<asrwt>0</asrwt>
<pdfrwt beam="1">  1        1 0.24373236E+00 0.16477794E+04</pdfrwt>
<pdfrwt beam="2">  1       -1 0.65917124E-01 0.16477794E+04</pdfrwt>
<totfact> 0.12753872E+01</totfact>
</mgrwt>
</event>
<event>
12    3  0.4688899E-008  0.1301281E+04  0.7818608E-02  0.9028550E-01
         -1   -1    0    0    0  501 -0.00000000000E+00  0.00000000000E+00  0.47558440940E+03  0.47558440940E+03  0.00000000000E+00 0.  1.
          1   -1    0    0  501    0  0.00000000000E+00 -0.00000000000E+00 -0.89013254052E+03  0.89013254052E+03  0.00000000000E+00 0. -1.
         23    2    1    2    0    0 -0.10903315305E+03 -0.28392931069E+03  0.33815716820E+02  0.31876276655E+03  0.89230693703E+02 0.  0.
        254    2    1    2    0    0  0.10903315305E+03  0.28392931069E+03 -0.44836384794E+03  0.10469541834E+04  0.89586764648E+03 0.  0.
         23    2    4    4    0    0 -0.20388785180E+03  0.28121172243E+03 -0.59031326167E+03  0.69090326013E+03  0.90704349489E+02 0.  0.
         23    2    4    4    0    0  0.31292100485E+03  0.27175882680E+01  0.14194941373E+03  0.35605092324E+03  0.93250647815E+02 0.  0.
          2    1    3    3  502    0 -0.95656999566E+02 -0.22071618185E+03 -0.98895967086E+01  0.24075651314E+03  0.00000000000E+00 0. -1.
         -2    1    3    3    0  502 -0.13376153482E+02 -0.63213128849E+02  0.43705313528E+02  0.78006253412E+02  0.00000000000E+00 0.  1.
         13    1    5    5    0    0 -0.46118987491E+02  0.62493233360E+02 -0.68670820969E+02  0.10367278754E+03  0.00000000000E+00 0.  1.
        -13    1    5    5    0    0 -0.15776886431E+03  0.21871848907E+03 -0.52164244070E+03  0.58723047260E+03  0.00000000000E+00 0. -1.
          4    1    6    6  503    0  0.72803636350E+02  0.39904344267E+02  0.45092815962E+02  0.94477977373E+02  0.00000000000E+00 0. -1.
         -4    1    6    6    0  503  0.24011736850E+03 -0.37186755999E+02  0.96856597770E+02  0.26157294587E+03  0.00000000000E+00 0.  1.
<mgrwt>
<rscale>  0 0.13012812E+04</rscale>
<asrwt>0</asrwt>
<pdfrwt beam="1">  1        1 0.13694347E+00 0.13012812E+04</pdfrwt>
<pdfrwt beam="2">  1       -1 0.73166833E-01 0.13012812E+04</pdfrwt>
<totfact> 0.34302683E+01</totfact>
</mgrwt>
</event>
<event>
12    3  0.4688899E-008  0.1879147E+04  0.7818608E-02  0.8665307E-01
         -2   -1    0    0    0  501 -0.00000000000E+00  0.00000000000E+00  0.23874188558E+04  0.23874188558E+04  0.00000000000E+00 0.  1.
          2   -1    0    0  501    0  0.00000000000E+00 -0.00000000000E+00 -0.36977091999E+03  0.36977091999E+03  0.00000000000E+00 0. -1.
         23    2    1    2    0    0 -0.39677538676E+03 -0.30078971694E+03  0.16085580887E+02  0.50628900830E+03  0.90358467554E+02 0.  0.
        254    2    1    2    0    0  0.39677538676E+03  0.30078971694E+03  0.20015623549E+04  0.22509007675E+04  0.90133081776E+03 0.  0.
         23    2    4    4    0    0  0.21109131989E+02  0.55498407276E+03  0.11986133718E+04  0.13242495326E+04  0.92249081989E+02 0.  0.
         23    2    4    4    0    0  0.37566625477E+03 -0.25419435581E+03  0.80294898312E+03  0.92665123486E+03  0.90639594367E+02 0.  0.
          3    1    3    3  502    0 -0.29585432448E+03 -0.22049609678E+03 -0.27881526010E+02  0.37003471391E+03  0.00000000000E+00 0. -1.
         -3    1    3    3    0  502 -0.10092106228E+03 -0.80293620161E+02  0.43967106897E+02  0.13625429439E+03  0.00000000000E+00 0.  1.
         13    1    5    5    0    0  0.55428177403E+01  0.11725643094E+03  0.35176319659E+03  0.37083303507E+03  0.00000000000E+00 0. -1.
        -13    1    5    5    0    0  0.15566314249E+02  0.43772764182E+03  0.84685017523E+03  0.95341649757E+03  0.00000000000E+00 0.  1.
          4    1    6    6  503    0  0.12094503907E+02 -0.78503834870E+01  0.75899001884E+02  0.77256482140E+02  0.00000000000E+00 0. -1.
         -4    1    6    6    0  503  0.36357175086E+03 -0.24634397233E+03  0.72704998124E+03  0.84939475272E+03  0.00000000000E+00 0.  1.
<mgrwt>
<rscale>  0 0.18791467E+04</rscale>
<asrwt>0</asrwt>
<pdfrwt beam="1">  1        2 0.56887835E-01 0.18791467E+04</pdfrwt>
<pdfrwt beam="2">  1       -2 0.36729520E+00 0.18791467E+04</pdfrwt>
<totfact> 0.98824433E-01</totfact>
</mgrwt>
</event>
<event>
12    3  0.4688899E-008  0.1525277E+04  0.7818608E-02  0.8867816E-01
         -2   -1    0    0    0  501 -0.00000000000E+00  0.00000000000E+00  0.68397151365E+03  0.68397151365E+03  0.00000000000E+00 0.  1.
          2   -1    0    0  501    0  0.00000000000E+00 -0.00000000000E+00 -0.85035380236E+03  0.85035380236E+03  0.00000000000E+00 0. -1.
         23    2    1    2    0    0  0.31906348916E+03 -0.10930680196E+03  0.23240168391E+03  0.41953067217E+03  0.90807241670E+02 0.  0.
        254    2    1    2    0    0 -0.31906348916E+03  0.10930680196E+03 -0.39878397263E+03  0.11147946438E+04  0.98488017243E+03 0.  0.
         23    2    4    4    0    0 -0.21007928930E+03 -0.42701730318E+03 -0.15353332019E+03  0.50821229436E+03  0.90720288332E+02 0.  0.
         23    2    4    4    0    0 -0.10898419985E+03  0.53632410514E+03 -0.24525065244E+03  0.60658234949E+03  0.90956927247E+02 0.  0.
          2    1    3    3  502    0  0.13089933819E+03 -0.11672322435E+02  0.12712101452E+03  0.18284045554E+03  0.00000000000E+00 0. -1.
         -2    1    3    3    0  502  0.18816415096E+03 -0.97634479525E+02  0.10528066939E+03  0.23669021663E+03  0.00000000000E+00 0.  1.
         13    1    5    5    0    0 -0.67851563989E+02 -0.95912815786E+02 -0.25848599004E+01  0.11751503933E+03  0.00000000000E+00 0.  1.
        -13    1    5    5    0    0 -0.14222772531E+03 -0.33110448740E+03 -0.15094846029E+03  0.39069725503E+03  0.00000000000E+00 0. -1.
          3    1    6    6  503    0 -0.10666465139E+03  0.31768299523E+03 -0.13028365469E+03  0.35954646987E+03  0.00000000000E+00 0. -1.
         -3    1    6    6    0  503 -0.23195484646E+01  0.21864110991E+03 -0.11496699775E+03  0.24703587962E+03  0.00000000000E+00 0.  1.
<mgrwt>
<rscale>  0 0.15252774E+04</rscale>
<asrwt>0</asrwt>
<pdfrwt beam="1">  1        2 0.13082366E+00 0.15252774E+04</pdfrwt>
<pdfrwt beam="2">  1       -2 0.10522639E+00 0.15252774E+04</pdfrwt>
<totfact> 0.22373894E+01</totfact>
</mgrwt>
</event>
<event>
12    3  0.4688899E-008  0.2626810E+04  0.7818608E-02  0.8359151E-01
         -2   -1    0    0    0  501 -0.00000000000E+00  0.00000000000E+00  0.50988523545E+03  0.50988523545E+03  0.00000000000E+00 0.  1.
          2   -1    0    0  501    0  0.00000000000E+00 -0.00000000000E+00 -0.33831782644E+04  0.33831782644E+04  0.00000000000E+00 0. -1.
         23    2    1    2    0    0  0.35116194516E+03 -0.91349972813E+03 -0.21635868736E+04  0.23763777648E+04  0.90921155097E+02 0.  0.
        254    2    1    2    0    0 -0.35116194516E+03  0.91349972813E+03 -0.70970615533E+03  0.15166857350E+04  0.91589100164E+03 0.  0.
         23    2    4    4    0    0 -0.52232739805E+03  0.93943298454E+03 -0.40065610297E+03  0.11509049348E+04  0.93255631941E+02 0.  0.
         23    2    4    4    0    0  0.17116545290E+03 -0.25933256403E+02 -0.30905005236E+03  0.36578080023E+03  0.91178467330E+02 0.  0.
          2    1    3    3  502    0 -0.19588199385E+01 -0.29868199377E+02 -0.46987370644E+02  0.55711392997E+02  0.00000000000E+00 0.  1.
         -2    1    3    3    0  502  0.35312076510E+03 -0.88363152876E+03 -0.21165995029E+04  0.23206663718E+04  0.00000000000E+00 0. -1.
         13    1    5    5    0    0 -0.30029316136E+02  0.10561990608E+03 -0.27539278283E+02  0.11320660863E+03  0.00000000000E+00 0. -1.
        -13    1    5    5    0    0 -0.49229808192E+03  0.83381307845E+03 -0.37311682469E+03  0.10376983262E+04  0.00000000000E+00 0.  1.
          2    1    6    6  503    0  0.11751563651E+02 -0.31596419410E+02 -0.34371001128E+02  0.48143521748E+02  0.00000000000E+00 0. -1.
         -2    1    6    6    0  503  0.15941388924E+03  0.56631630067E+01 -0.27467905123E+03  0.31763727848E+03  0.00000000000E+00 0.  1.
<mgrwt>
<rscale>  0 0.26268100E+04</rscale>
<asrwt>0</asrwt>
<pdfrwt beam="1">  1        2 0.52048897E+00 0.26268100E+04</pdfrwt>
<pdfrwt beam="2">  1       -2 0.78443882E-01 0.26268100E+04</pdfrwt>
<totfact> 0.12486109E+00</totfact>
</mgrwt>
</event>
<event>
12    3  0.4688899E-008  0.1493991E+04  0.7818608E-02  0.8888459E-01
          1   -1    0    0  501    0  0.00000000000E+00  0.00000000000E+00  0.20227197967E+04  0.20227197967E+04  0.00000000000E+00 0. -1.
         -1   -1    0    0    0  501 -0.00000000000E+00 -0.00000000000E+00 -0.27586735621E+03  0.27586735621E+03  0.00000000000E+00 0.  1.
         23    2    1    2    0    0  0.17578893401E+03 -0.39896109077E+03  0.82708382313E+03  0.93944967247E+03  0.91795072642E+02 0.  0.
        254    2    1    2    0    0 -0.17578893401E+03  0.39896109077E+03  0.91976861740E+03  0.13591374805E+04  0.90067123858E+03 0.  0.
         23    2    4    4    0    0 -0.66811527223E+02  0.19248981301E+03  0.10522970503E+04  0.10758191064E+04  0.92420556111E+02 0.  0.
         23    2    4    4    0    0 -0.10897740679E+03  0.20647127776E+03 -0.13252843294E+03  0.28331837411E+03  0.90548615887E+02 0.  0.
          4    1    3    3  502    0  0.14325227399E+02 -0.35102189295E+02  0.14332289766E+03  0.14825258455E+03  0.00000000000E+00 0.  1.
         -4    1    3    3    0  502  0.16146370661E+03 -0.36385890147E+03  0.68376092547E+03  0.79119708792E+03  0.00000000000E+00 0. -1.
         13    1    5    5    0    0 -0.43640879896E+02  0.86055058099E+02  0.28644439876E+03  0.30225881790E+03  0.00000000000E+00 0.  1.
        -13    1    5    5    0    0 -0.23170647327E+02  0.10643475491E+03  0.76585265158E+03  0.77356028846E+03  0.00000000000E+00 0. -1.
          3    1    6    6  503    0 -0.50403759660E+02  0.15914628060E+03 -0.56320038117E+02  0.17618179335E+03  0.00000000000E+00 0. -1.
         -3    1    6    6    0  503 -0.58573647126E+02  0.47324997166E+02 -0.76208394823E+02  0.10713658075E+03  0.00000000000E+00 0.  1.
<mgrwt>
<rscale>  0 0.14939911E+04</rscale>
<asrwt>0</asrwt>
<pdfrwt beam="1">  1        1 0.31118765E+00 0.14939911E+04</pdfrwt>
<pdfrwt beam="2">  1       -1 0.42441133E-01 0.14939911E+04</pdfrwt>
<totfact> 0.15211555E+01</totfact>
</mgrwt>
</event>
<event>
12    3  0.4688899E-008  0.1525561E+04  0.7818608E-02  0.8867631E-01
          2   -1    0    0  501    0  0.00000000000E+00  0.00000000000E+00  0.44792307000E+03  0.44792307000E+03  0.00000000000E+00 0. -1.
         -2   -1    0    0    0  501 -0.00000000000E+00 -0.00000000000E+00 -0.12989598260E+04  0.12989598260E+04  0.00000000000E+00 0.  1.
         23    2    1    2    0    0 -0.43141517004E+03  0.21312458034E+03 -0.18572705770E+03  0.52366008347E+03  0.90466609155E+02 0.  0.
        254    2    1    2    0    0  0.43141517004E+03 -0.21312458034E+03 -0.66530969827E+03  0.12232228125E+04  0.90669505278E+03 0.  0.
         23    2    4    4    0    0  0.59080993424E+03 -0.43501523785E+03 -0.47611423657E+03  0.87932732180E+03  0.90758674781E+02 0.  0.
         23    2    4    4    0    0 -0.15939476420E+03  0.22189065750E+03 -0.18919546170E+03  0.34389549070E+03  0.88470509536E+02 0.  0.
          4    1    3    3  502    0 -0.36502939169E+03  0.20585769656E+03 -0.18166012792E+03  0.45675403677E+03  0.00000000000E+00 0.  1.
         -4    1    3    3    0  502 -0.66385778350E+02  0.72668837811E+01 -0.40669297777E+01  0.66906046699E+02  0.00000000000E+00 0. -1.
         13    1    5    5    0    0  0.25835095160E+03 -0.24467381420E+03 -0.21551328618E+03  0.41600056018E+03  0.00000000000E+00 0.  1.
        -13    1    5    5    0    0  0.33245898264E+03 -0.19034142365E+03 -0.26060095039E+03  0.46332676163E+03  0.00000000000E+00 0. -1.
          2    1    6    6  503    0 -0.10131807403E+03  0.69318692664E+02 -0.66021401819E+02  0.13938887608E+03  0.00000000000E+00 0. -1.
         -2    1    6    6    0  503 -0.58076690169E+02  0.15257196484E+03 -0.12317405988E+03  0.20450661462E+03  0.00000000000E+00 0.  1.
<mgrwt>
<rscale>  0 0.15255610E+04</rscale>
<asrwt>0</asrwt>
<pdfrwt beam="1">  1        2 0.68911241E-01 0.15255610E+04</pdfrwt>
<pdfrwt beam="2">  1       -2 0.19983997E+00 0.15255610E+04</pdfrwt>
<totfact> 0.89800825E+00</totfact>
</mgrwt>
</event>
<event>
12    3  0.1324713E-007  0.2567276E+04  0.7818608E-02  0.8379402E-01
         -1   -1    0    0    0  501 -0.00000000000E+00  0.00000000000E+00  0.98301625054E+03  0.98301625054E+03  0.00000000000E+00 0.  1.
          1   -1    0    0  501    0  0.00000000000E+00 -0.00000000000E+00 -0.16761949016E+04  0.16761949016E+04  0.00000000000E+00 0. -1.
         23    2    1    2    0    0  0.10538953346E+04  0.11229399192E+03  0.80404419976E+02  0.10670666980E+04  0.94133682170E+02 0.  0.
        254    2    1    2    0    0 -0.10538953346E+04 -0.11229399192E+03 -0.77358307106E+03  0.15921444542E+04  0.90176930433E+03 0.  0.
         23    2    4    4    0    0 -0.10299220455E+04  0.18340972383E+03 -0.44638908959E+03  0.11410217256E+04  0.91042914810E+02 0.  0.
         23    2    4    4    0    0 -0.23973289134E+02 -0.29570371574E+03 -0.32719398147E+03  0.45112272862E+03  0.91871696802E+02 0.  0.
          1    1    3    3  502    0  0.72160805648E+01 -0.70750664501E+01  0.38864397721E+01  0.10827409574E+02  0.00000000000E+00 0. -1.
         -1    1    3    3    0  502  0.10466792541E+04  0.11936905837E+03  0.76517980204E+02  0.10562392884E+04  0.00000000000E+00 0.  1.
         13    1    5    5    0    0 -0.10075470946E+04  0.17529097239E+03 -0.44932930988E+03  0.11170384513E+04  0.00000000000E+00 0.  1.
        -13    1    5    5    0    0 -0.22374950878E+02  0.81187514396E+01  0.29402202842E+01  0.23983274319E+02  0.00000000000E+00 0. -1.
          1    1    6    6  503    0 -0.42121823941E+02 -0.56719664394E+02 -0.82250330572E+02  0.10842732709E+03  0.00000000000E+00 0. -1.
         -1    1    6    6    0  503  0.18148534807E+02 -0.23898405135E+03 -0.24494365089E+03  0.34269540153E+03  0.00000000000E+00 0.  1.
<mgrwt>
<rscale>  0 0.25672762E+04</rscale>
<asrwt>0</asrwt>
<pdfrwt beam="1">  1        1 0.25787614E+00 0.25672762E+04</pdfrwt>
<pdfrwt beam="2">  1       -1 0.15123327E+00 0.25672762E+04</pdfrwt>
<totfact> 0.14913582E+00</totfact>
</mgrwt>
</event>
<event>
12    3  0.4688899E-008  0.1308323E+04  0.7818608E-02  0.9022991E-01
          2   -1    0    0  501    0  0.00000000000E+00  0.00000000000E+00  0.23848476377E+04  0.23848476377E+04  0.00000000000E+00 0. -1.
         -2   -1    0    0    0  501 -0.00000000000E+00 -0.00000000000E+00 -0.17943591356E+03  0.17943591356E+03  0.00000000000E+00 0.  1.
         23    2    1    2    0    0 -0.47599812309E+02 -0.12733473844E+03 -0.22007018611E+02  0.16553114027E+03  0.91849723927E+02 0.  0.
        254    2    1    2    0    0  0.47599812309E+02  0.12733473844E+03  0.22274187427E+04  0.23987524110E+04  0.87985168974E+03 0.  0.
         23    2    4    4    0    0 -0.37200076105E+02 -0.84670486644E+02 -0.25897130318E+02  0.13207022673E+03  0.90658405348E+02 0.  0.
         23    2    4    4    0    0  0.84799888414E+02  0.21200522508E+03  0.22533158731E+04  0.22666821843E+04  0.90986065266E+02 0.  0.
          2    1    3    3  502    0 -0.55496552393E+02 -0.24955255405E+02 -0.17858742904E+01  0.60875458493E+02  0.00000000000E+00 0. -1.
         -2    1    3    3    0  502  0.78967400838E+01 -0.10237948304E+03 -0.20221144320E+02  0.10465568178E+03  0.00000000000E+00 0.  1.
         13    1    5    5    0    0  0.87684029956E+01 -0.28678565021E+01 -0.36492147567E+02  0.37640222184E+02  0.00000000000E+00 0.  1.
        -13    1    5    5    0    0 -0.45968479100E+02 -0.81802630142E+02  0.10595017249E+02  0.94430004551E+02  0.00000000000E+00 0. -1.
          4    1    6    6  503    0  0.40469724891E+02  0.14507993450E+03  0.18019074033E+04  0.18081914379E+04  0.00000000000E+00 0.  1.
         -4    1    6    6    0  503  0.44330163523E+02  0.66925290582E+02  0.45140846979E+03  0.45849074638E+03  0.00000000000E+00 0. -1.
<mgrwt>
<rscale>  0 0.13083231E+04</rscale>
<asrwt>0</asrwt>
<pdfrwt beam="1">  1        2 0.36689961E+00 0.13083231E+04</pdfrwt>
<pdfrwt beam="2">  1       -2 0.27605527E-01 0.13083231E+04</pdfrwt>
<totfact> 0.47713116E+01</totfact>
</mgrwt>
</event>
<event>
12    3  0.4688899E-008  0.1634338E+04  0.7818608E-02  0.8799726E-01
         -2   -1    0    0    0  501 -0.00000000000E+00  0.00000000000E+00  0.66450517774E+03  0.66450517774E+03  0.00000000000E+00 0.  1.
          2   -1    0    0  501    0  0.00000000000E+00 -0.00000000000E+00 -0.10049059944E+04  0.10049059944E+04  0.00000000000E+00 0. -1.
         23    2    1    2    0    0  0.51671915153E+03 -0.27855471394E+03 -0.24213751196E+03  0.64149909531E+03  0.91099420240E+02 0.  0.
        254    2    1    2    0    0 -0.51671915153E+03  0.27855471394E+03 -0.98263304662E+02  0.10279120768E+04  0.83806691281E+03 0.  0.
         23    2    4    4    0    0 -0.28424999911E+03  0.50293353890E+03 -0.27664279695E+03  0.64764855221E+03  0.95797721969E+02 0.  0.
         23    2    4    4    0    0 -0.23246915242E+03 -0.22437882495E+03  0.17837949228E+03  0.38026352458E+03  0.91615178565E+02 0.  0.
          3    1    3    3  502    0  0.62052815006E+02 -0.80015616884E+01 -0.44224984706E+02  0.76618706018E+02  0.00000000000E+00 0. -1.
         -3    1    3    3    0  502  0.45466633652E+03 -0.27055315226E+03 -0.19791252726E+03  0.56488038929E+03  0.00000000000E+00 0.  1.
         13    1    5    5    0    0 -0.23778849471E+03  0.47520910979E+03 -0.25458441301E+03  0.58922006890E+03  0.00000000000E+00 0. -1.
        -13    1    5    5    0    0 -0.46461504396E+02  0.27724429109E+02 -0.22058383937E+02  0.58428483311E+02  0.00000000000E+00 0.  1.
          3    1    6    6  503    0 -0.11464141640E+03 -0.59726182310E+02  0.98867462316E+02  0.16274104065E+03  0.00000000000E+00 0. -1.
         -3    1    6    6    0  503 -0.11782773603E+03 -0.16465264264E+03  0.79512029969E+02  0.21752248393E+03  0.00000000000E+00 0.  1.
<mgrwt>
<rscale>  0 0.16343381E+04</rscale>
<asrwt>0</asrwt>
<pdfrwt beam="1">  1        2 0.15460092E+00 0.16343381E+04</pdfrwt>
<pdfrwt beam="2">  1       -2 0.10223157E+00 0.16343381E+04</pdfrwt>
<totfact> 0.18746140E+01</totfact>
</mgrwt>
</event>
<event>
12    3  0.4688899E-008  0.2635013E+04  0.7818608E-02  0.8356404E-01
          1   -1    0    0  501    0  0.00000000000E+00  0.00000000000E+00  0.20940889221E+04  0.20940889221E+04  0.00000000000E+00 0. -1.
         -1   -1    0    0    0  501 -0.00000000000E+00 -0.00000000000E+00 -0.82891599519E+03  0.82891599519E+03  0.00000000000E+00 0.  1.
         23    2    1    2    0    0  0.42731212778E+03 -0.83939874048E+03  0.13123087319E+04  0.16177162854E+04  0.87554966913E+02 0.  0.
        254    2    1    2    0    0 -0.42731212778E+03  0.83939874048E+03 -0.47135805010E+02  0.13052886319E+04  0.90242491558E+03 0.  0.
         23    2    4    4    0    0 -0.19903338372E+03  0.74641172513E+03  0.33062290596E+03  0.84517360999E+03  0.90896500601E+02 0.  0.
         23    2    4    4    0    0 -0.22827874405E+03  0.92987015344E+02 -0.37775871097E+03  0.46011502186E+03  0.90809799161E+02 0.  0.
          3    1    3    3  502    0  0.32885352351E+03 -0.67882635685E+03  0.99304307854E+03  0.12470302396E+04  0.00000000000E+00 0. -1.
         -3    1    3    3    0  502  0.98458604267E+02 -0.16057238363E+03  0.31926565338E+03  0.37068604583E+03  0.00000000000E+00 0.  1.
         13    1    5    5    0    0 -0.11869418404E+03  0.36236242202E+03  0.11936944181E+03  0.39955462437E+03  0.00000000000E+00 0. -1.
        -13    1    5    5    0    0 -0.80339199681E+02  0.38404930311E+03  0.21125346415E+03  0.44561898562E+03  0.00000000000E+00 0.  1.
          1    1    6    6  503    0 -0.20620973829E+03  0.58547307246E+02 -0.35085552725E+03  0.41115671508E+03  0.00000000000E+00 0. -1.
         -1    1    6    6    0  503 -0.22069005765E+02  0.34439708098E+02 -0.26903183719E+02  0.48958306788E+02  0.00000000000E+00 0.  1.
<mgrwt>
<rscale>  0 0.26350133E+04</rscale>
<asrwt>0</asrwt>
<pdfrwt beam="1">  1        1 0.32216752E+00 0.26350133E+04</pdfrwt>
<pdfrwt beam="2">  1       -1 0.12752554E+00 0.26350133E+04</pdfrwt>
<totfact> 0.12019943E+00</totfact>
</mgrwt>
</event>
<event>
12    3  0.4688899E-008  0.2007591E+04  0.7818608E-02  0.8603080E-01
         -2   -1    0    0    0  501 -0.00000000000E+00  0.00000000000E+00  0.97217990771E+03  0.97217990771E+03  0.00000000000E+00 0.  1.
          2   -1    0    0  501    0  0.00000000000E+00 -0.00000000000E+00 -0.10364389578E+04  0.10364389578E+04  0.00000000000E+00 0. -1.
         23    2    1    2    0    0 -0.54425701458E+03 -0.46520410069E+03 -0.36288938728E+03  0.80784597076E+03  0.91081567057E+02 0.  0.
        254    2    1    2    0    0  0.54425701458E+03  0.46520410069E+03  0.29863033716E+03  0.12007728948E+04  0.91653964091E+03 0.  0.
         23    2    4    4    0    0  0.52696864856E+03 -0.74007471803E+02  0.35918287747E+03  0.64974497812E+03  0.99915637792E+02 0.  0.
         23    2    4    4    0    0  0.17288366021E+02  0.53921157250E+03 -0.60552540312E+02  0.55102791667E+03  0.94430648098E+02 0.  0.
          3    1    3    3  502    0 -0.51367572937E+03 -0.45082151391E+03 -0.36338296548E+03  0.77404778403E+03  0.00000000000E+00 0. -1.
         -3    1    3    3    0  502 -0.30581285206E+02 -0.14382586779E+02  0.49357819833E+00  0.33798186738E+02  0.00000000000E+00 0.  1.
         13    1    5    5    0    0  0.24063222956E+03 -0.74254656448E+02  0.13261494731E+03  0.28461262825E+03  0.00000000000E+00 0. -1.
        -13    1    5    5    0    0  0.28633641900E+03  0.24718464555E+00  0.22656793016E+03  0.36513234987E+03  0.00000000000E+00 0.  1.
          2    1    6    6  503    0  0.35949527395E+01  0.28241595120E+03  0.15480660877E+02  0.28286276538E+03  0.00000000000E+00 0. -1.
         -2    1    6    6    0  503  0.13693413281E+02  0.25679562129E+03 -0.76033201189E+02  0.26816515129E+03  0.00000000000E+00 0.  1.
<mgrwt>
<rscale>  0 0.20075907E+04</rscale>
<asrwt>0</asrwt>
<pdfrwt beam="1">  1        2 0.15945215E+00 0.20075907E+04</pdfrwt>
<pdfrwt beam="2">  1       -2 0.14956614E+00 0.20075907E+04</pdfrwt>
<totfact> 0.66925616E+00</totfact>
</mgrwt>
</event>
<event>
12    3  0.4688899E-008  0.1758228E+04  0.7818608E-02  0.8728834E-01
         -1   -1    0    0    0  501 -0.00000000000E+00  0.00000000000E+00  0.58648217162E+03  0.58648217162E+03  0.00000000000E+00 0.  1.
          1   -1    0    0  501    0  0.00000000000E+00 -0.00000000000E+00 -0.13177572977E+04  0.13177572977E+04  0.00000000000E+00 0. -1.
         23    2    1    2    0    0  0.88137541843E+02 -0.61116067944E+03 -0.47051078053E+03  0.78162884281E+03  0.90981596705E+02 0.  0.
        254    2    1    2    0    0 -0.88137541843E+02  0.61116067944E+03 -0.26076434553E+03  0.11226106265E+04  0.90053926756E+03 0.  0.
         23    2    4    4    0    0 -0.27647519375E+03  0.68614144229E+03  0.42252997953E+02  0.74652616006E+03  0.91035049404E+02 0.  0.
         23    2    4    4    0    0  0.18833765191E+03 -0.74980762852E+02 -0.30301734348E+03  0.37608446643E+03  0.92340833396E+02 0.  0.
          4    1    3    3  502    0  0.77398708482E+02 -0.38552881224E+03 -0.34557512055E+03  0.52349325601E+03  0.00000000000E+00 0. -1.
         -4    1    3    3    0  502  0.10738833361E+02 -0.22563186720E+03 -0.12493565998E+03  0.25813558680E+03  0.00000000000E+00 0.  1.
         13    1    5    5    0    0 -0.22499685652E+03  0.63044702907E+03  0.34340194160E+02  0.67027329564E+03  0.00000000000E+00 0.  1.
        -13    1    5    5    0    0 -0.51478337234E+02  0.55694413224E+02  0.79128037933E+01  0.76252864423E+02  0.00000000000E+00 0. -1.
          4    1    6    6  503    0  0.76644392559E+02  0.16045376539E+02 -0.96597260202E+02  0.12434969923E+03  0.00000000000E+00 0. -1.
         -4    1    6    6    0  503  0.11169325935E+03 -0.91026139390E+02 -0.20642008328E+03  0.25173476720E+03  0.00000000000E+00 0.  1.
<mgrwt>
<rscale>  0 0.17582277E+04</rscale>
<asrwt>0</asrwt>
<pdfrwt beam="1">  1        1 0.20273189E+00 0.17582277E+04</pdfrwt>
<pdfrwt beam="2">  1       -1 0.90228027E-01 0.17582277E+04</pdfrwt>
<totfact> 0.99934987E+00</totfact>
</mgrwt>
</event>
<event>
12    3  0.4688899E-008  0.1960654E+04  0.7818608E-02  0.8625241E-01
          2   -1    0    0  501    0  0.00000000000E+00  0.00000000000E+00  0.14629514704E+04  0.14629514704E+04  0.00000000000E+00 0. -1.
         -2   -1    0    0    0  501 -0.00000000000E+00 -0.00000000000E+00 -0.65691904232E+03  0.65691904232E+03  0.00000000000E+00 0.  1.
         23    2    1    2    0    0  0.27007928286E+03  0.20894233148E+03  0.10646373919E+04  0.11214444223E+04  0.87092474328E+02 0.  0.
        254    2    1    2    0    0 -0.27007928286E+03 -0.20894233148E+03 -0.25860496391E+03  0.99842609037E+03  0.90187494347E+03 0.  0.
         23    2    4    4    0    0 -0.32403408277E+03  0.29370365574E+03 -0.16898801748E+03  0.47703175034E+03  0.87991002859E+02 0.  0.
         23    2    4    4    0    0  0.53954799911E+02 -0.50264598723E+03 -0.89616946426E+02  0.52139434003E+03  0.90866670581E+02 0.  0.
          4    1    3    3  502    0  0.10760015550E+03  0.13744703989E+03  0.55211595978E+03  0.57905225609E+03  0.00000000000E+00 0.  1.
         -4    1    3    3    0  502  0.16247912736E+03  0.71495291591E+02  0.51252143217E+03  0.54239216622E+03  0.00000000000E+00 0. -1.
         13    1    5    5    0    0 -0.24281866243E+03  0.25109851743E+03 -0.10341347255E+03  0.36428795558E+03  0.00000000000E+00 0. -1.
        -13    1    5    5    0    0 -0.81215420348E+02  0.42605138312E+02 -0.65574544936E+02  0.11274379476E+03  0.00000000000E+00 0.  1.
          3    1    6    6  503    0  0.13369762106E+02 -0.42465564238E+03 -0.85473078973E+02  0.43337837091E+03  0.00000000000E+00 0. -1.
         -3    1    6    6    0  503  0.40585037805E+02 -0.77990344847E+02 -0.41438674524E+01  0.88015969122E+02  0.00000000000E+00 0.  1.
<mgrwt>
<rscale>  0 0.19606536E+04</rscale>
<asrwt>0</asrwt>
<pdfrwt beam="1">  1        2 0.22506946E+00 0.19606536E+04</pdfrwt>
<pdfrwt beam="2">  1       -2 0.10106447E+00 0.19606536E+04</pdfrwt>
<totfact> 0.10002313E+01</totfact>
</mgrwt>
</event>
<event>
12    3  0.4688899E-008  0.1619948E+04  0.7818608E-02  0.8808386E-01
         -1   -1    0    0    0  501 -0.00000000000E+00  0.00000000000E+00  0.26032983758E+03  0.26032983758E+03  0.00000000000E+00 0.  1.
          1   -1    0    0  501    0  0.00000000000E+00 -0.00000000000E+00 -0.25201029595E+04  0.25201029595E+04  0.00000000000E+00 0. -1.
         23    2    1    2    0    0  0.22766794024E+03  0.37402320589E+03 -0.12183685751E+04  0.12985774015E+04  0.10077317772E+03 0.  0.
        254    2    1    2    0    0 -0.22766794024E+03 -0.37402320589E+03 -0.10414045468E+04  0.14818553956E+04  0.95898171706E+03 0.  0.
         23    2    4    4    0    0 -0.45036890585E+03 -0.35868911165E+03 -0.21286013562E+03  0.61901950629E+03  0.79910460231E+02 0.  0.
         23    2    4    4    0    0  0.22270096561E+03 -0.15334094239E+02 -0.82854441119E+03  0.86283588927E+03  0.90382940664E+02 0.  0.
          1    1    3    3  502    0  0.20550771819E+03  0.36385117370E+03 -0.11896283298E+04  0.12608872518E+04  0.00000000000E+00 0. -1.
         -1    1    3    3    0  502  0.22160222052E+02  0.10172032188E+02 -0.28740245294E+02  0.37690149639E+02  0.00000000000E+00 0.  1.
         13    1    5    5    0    0 -0.40065893466E+03 -0.31727856547E+03 -0.21459838260E+03  0.55429751564E+03  0.00000000000E+00 0.  1.
        -13    1    5    5    0    0 -0.49709971189E+02 -0.41410546186E+02  0.17382469815E+01  0.64721990649E+02  0.00000000000E+00 0. -1.
          1    1    6    6  503    0  0.46162879484E+02 -0.23471412257E+02 -0.32679954147E+03  0.33087740773E+03  0.00000000000E+00 0. -1.
         -1    1    6    6    0  503  0.17653808612E+03  0.81373180180E+01 -0.50174486972E+03  0.53195848154E+03  0.00000000000E+00 0.  1.
<mgrwt>
<rscale>  0 0.16199481E+04</rscale>
<asrwt>0</asrwt>
<pdfrwt beam="1">  1        1 0.38770813E+00 0.16199481E+04</pdfrwt>
<pdfrwt beam="2">  1       -1 0.40050746E-01 0.16199481E+04</pdfrwt>
<totfact> 0.76521088E+00</totfact>
</mgrwt>
</event>
<event>
12    3  0.4688899E-008  0.1550937E+04  0.7818608E-02  0.8851269E-01
         -1   -1    0    0    0  501 -0.00000000000E+00  0.00000000000E+00  0.38728708421E+03  0.38728708421E+03  0.00000000000E+00 0.  1.
          1   -1    0    0  501    0  0.00000000000E+00 -0.00000000000E+00 -0.15527285932E+04  0.15527285932E+04  0.00000000000E+00 0. -1.
         23    2    1    2    0    0 -0.37734773018E+02  0.22250343683E+03  0.18206058476E+03  0.30526502564E+03  0.95441012485E+02 0.  0.
        254    2    1    2    0    0  0.37734773018E+02 -0.22250343683E+03 -0.13475020937E+04  0.16347506517E+04  0.89761690509E+03 0.  0.
         23    2    4    4    0    0  0.28590562881E+03 -0.46957958573E+03 -0.72329466006E+03  0.91301667926E+03  0.90538806148E+02 0.  0.
         23    2    4    4    0    0 -0.24817085579E+03  0.24707614890E+03 -0.62420743367E+03  0.72173397249E+03  0.92895692989E+02 0.  0.
          4    1    3    3  502    0 -0.92327115129E+01  0.14211189252E+01  0.39673072045E+02  0.40758007635E+02  0.00000000000E+00 0. -1.
         -4    1    3    3    0  502 -0.28502061505E+02  0.22108231790E+03  0.14238751271E+03  0.26450701801E+03  0.00000000000E+00 0.  1.
         13    1    5    5    0    0  0.10111834187E+03 -0.13452721286E+03 -0.16114225428E+03  0.23300067849E+03  0.00000000000E+00 0.  1.
        -13    1    5    5    0    0  0.18478728694E+03 -0.33505237287E+03 -0.56215240578E+03  0.68001600077E+03  0.00000000000E+00 0. -1.
          1    1    6    6  503    0 -0.15064559062E+03  0.19762074359E+03 -0.37833885322E+03  0.45264593241E+03  0.00000000000E+00 0. -1.
         -1    1    6    6    0  503 -0.97525265170E+02  0.49455405308E+02 -0.24586858045E+03  0.26908804008E+03  0.00000000000E+00 0.  1.
<mgrwt>
<rscale>  0 0.15509374E+04</rscale>
<asrwt>0</asrwt>
<pdfrwt beam="1">  1        1 0.23888132E+00 0.15509374E+04</pdfrwt>
<pdfrwt beam="2">  1       -1 0.59582628E-01 0.15509374E+04</pdfrwt>
<totfact> 0.16546048E+01</totfact>
</mgrwt>
</event>
<event>
12    3  0.4688899E-008  0.1202052E+04  0.7818608E-02  0.9111062E-01
          2   -1    0    0  501    0  0.00000000000E+00  0.00000000000E+00  0.13755918525E+04  0.13755918525E+04  0.00000000000E+00 0. -1.
         -2   -1    0    0    0  501 -0.00000000000E+00 -0.00000000000E+00 -0.26260152231E+03  0.26260152231E+03  0.00000000000E+00 0.  1.
         23    2    1    2    0    0 -0.19166066895E+03  0.16072053233E+03  0.40993816171E+03  0.48815394614E+03  0.87636049534E+02 0.  0.
        254    2    1    2    0    0  0.19166066895E+03 -0.16072053233E+03  0.70305216846E+03  0.11500394286E+04  0.87506767414E+03 0.  0.
         23    2    4    4    0    0  0.16889068121E+03  0.33486553274E+03  0.18811705673E+03  0.42924704548E+03  0.90587039917E+02 0.  0.
         23    2    4    4    0    0  0.22769987737E+02 -0.49558606507E+03  0.51493511173E+03  0.72079238317E+03  0.90881626900E+02 0.  0.
          3    1    3    3  502    0 -0.12985307278E+03  0.10612647412E+03  0.19087401741E+03  0.25408175759E+03  0.00000000000E+00 0. -1.
         -3    1    3    3    0  502 -0.61807596167E+02  0.54594058209E+02  0.21906414430E+03  0.23407218855E+03  0.00000000000E+00 0.  1.
         13    1    5    5    0    0  0.17912900858E+03  0.32056540024E+03  0.18567568115E+03  0.41149099154E+03  0.00000000000E+00 0.  1.
        -13    1    5    5    0    0 -0.10238327370E+02  0.14300132496E+02  0.24413755876E+01  0.17756053940E+02  0.00000000000E+00 0. -1.
          4    1    6    6  503    0  0.30772062431E+02 -0.59150261640E+02  0.52368488146E+02  0.84782851031E+02  0.00000000000E+00 0. -1.
         -4    1    6    6    0  503 -0.80020746935E+01 -0.43643580343E+03  0.46256662358E+03  0.63600953213E+03  0.00000000000E+00 0.  1.
<mgrwt>
<rscale>  0 0.12020524E+04</rscale>
<asrwt>0</asrwt>
<pdfrwt beam="1">  1        2 0.21162951E+00 0.12020524E+04</pdfrwt>
<pdfrwt beam="2">  1       -2 0.40400235E-01 0.12020524E+04</pdfrwt>
<totfact> 0.85468293E+01</totfact>
</mgrwt>
</event>
<event>
12    3  0.4688899E-008  0.1637787E+04  0.7818608E-02  0.8797664E-01
         -2   -1    0    0    0  501 -0.00000000000E+00  0.00000000000E+00  0.21222808725E+04  0.21222808725E+04  0.00000000000E+00 0.  1.
          2   -1    0    0  501    0  0.00000000000E+00 -0.00000000000E+00 -0.31597463559E+03  0.31597463559E+03  0.00000000000E+00 0. -1.
         23    2    1    2    0    0 -0.29786626031E+03  0.40035099554E+03  0.10292618289E+04  0.11475228348E+04  0.91779710300E+02 0.  0.
        254    2    1    2    0    0  0.29786626031E+03 -0.40035099554E+03  0.77704440801E+03  0.12907326733E+04  0.90176914634E+03 0.  0.
         23    2    4    4    0    0  0.33597077487E+03 -0.14457218099E+03 -0.84955682348E+02  0.38613168992E+03  0.90015203773E+02 0.  0.
         23    2    4    4    0    0 -0.38104514565E+02 -0.25577881455E+03  0.86200009036E+03  0.90460098340E+03  0.91564334722E+02 0.  0.
          4    1    3    3  502    0 -0.12788175122E+02  0.49597479218E+01  0.72060094324E+02  0.73353893669E+02  0.00000000000E+00 0. -1.
         -4    1    3    3    0  502 -0.28507808519E+03  0.39539124762E+03  0.95720173462E+03  0.10741689411E+04  0.00000000000E+00 0.  1.
         13    1    5    5    0    0  0.27232216623E+03 -0.11551793228E+03 -0.10410072858E+03  0.31359323428E+03  0.00000000000E+00 0. -1.
        -13    1    5    5    0    0  0.63648608647E+02 -0.29054248708E+02  0.19145046232E+02  0.72538455635E+02  0.00000000000E+00 0.  1.
          4    1    6    6  503    0  0.20954236820E+00 -0.19261279313E+03  0.70900820406E+03  0.73470563180E+03  0.00000000000E+00 0. -1.
         -4    1    6    6    0  503 -0.38314056934E+02 -0.63166021420E+02  0.15299188630E+03  0.16989535160E+03  0.00000000000E+00 0.  1.
<mgrwt>
<rscale>  0 0.16377874E+04</rscale>
<asrwt>0</asrwt>
<pdfrwt beam="1">  1        2 0.48611484E-01 0.16377874E+04</pdfrwt>
<pdfrwt beam="2">  1       -2 0.32650474E+00 0.16377874E+04</pdfrwt>
<totfact> 0.21708510E+00</totfact>
</mgrwt>
</event>
<event>
12    3  0.4688899E-008  0.1388736E+04  0.7818608E-02  0.8962013E-01
         -1   -1    0    0    0  501 -0.00000000000E+00  0.00000000000E+00  0.13524183934E+04  0.13524183934E+04  0.00000000000E+00 0.  1.
          1   -1    0    0  501    0  0.00000000000E+00 -0.00000000000E+00 -0.35650697158E+03  0.35650697158E+03  0.00000000000E+00 0. -1.
         23    2    1    2    0    0  0.41137144748E+00  0.21184410221E+02  0.76241816326E+03  0.76836459479E+03  0.93025514799E+02 0.  0.
        254    2    1    2    0    0 -0.41137144748E+00 -0.21184410221E+02  0.23349325854E+03  0.94056077017E+03  0.91087129285E+03 0.  0.
         23    2    4    4    0    0 -0.95348110040E+02 -0.36099928411E+03 -0.14857779861E+03  0.41423982297E+03  0.10053617993E+03 0.  0.
         23    2    4    4    0    0  0.94936738592E+02  0.33981487389E+03  0.38207105714E+03  0.52632094720E+03  0.80921652867E+02 0.  0.
          3    1    3    3  502    0 -0.36994808873E+00 -0.26233158368E+02  0.77773837873E+02  0.82079749738E+02  0.00000000000E+00 0. -1.
         -3    1    3    3    0  502  0.78131953621E+00  0.47417568589E+02  0.68464432539E+03  0.68628484506E+03  0.00000000000E+00 0.  1.
         13    1    5    5    0    0 -0.67684103515E+02 -0.24177883012E+03 -0.14879266283E+03  0.29185166964E+03  0.00000000000E+00 0.  1.
        -13    1    5    5    0    0 -0.27664006525E+02 -0.11922045399E+03  0.21486422156E+00  0.12238815332E+03  0.00000000000E+00 0. -1.
          4    1    6    6  503    0  0.14707286879E+01 -0.21041753101E+01 -0.23079795464E+01  0.34521538488E+01  0.00000000000E+00 0. -1.
         -4    1    6    6    0  503  0.93466009904E+02  0.34191904920E+03  0.38437903669E+03  0.52286879335E+03  0.00000000000E+00 0.  1.
<mgrwt>
<rscale>  0 0.13887355E+04</rscale>
<asrwt>0</asrwt>
<pdfrwt beam="1">  1        1 0.54847227E-01 0.13887355E+04</pdfrwt>
<pdfrwt beam="2">  1       -1 0.20806437E+00 0.13887355E+04</pdfrwt>
<totfact> 0.90397766E+00</totfact>
</mgrwt>
</event>
<event>
12    3  0.4688899E-008  0.2573919E+04  0.7818608E-02  0.8377115E-01
          2   -1    0    0  501    0  0.00000000000E+00  0.00000000000E+00  0.38390583714E+04  0.38390583714E+04  0.00000000000E+00 0. -1.
         -2   -1    0    0    0  501 -0.00000000000E+00 -0.00000000000E+00 -0.43142460796E+03  0.43142460796E+03  0.00000000000E+00 0.  1.
         23    2    1    2    0    0  0.68006026559E+03 -0.58008893138E+03  0.35916276870E+03  0.96751512868E+03  0.90013869260E+02 0.  0.
        254    2    1    2    0    0 -0.68006026559E+03  0.58008893138E+03  0.30484709947E+04  0.33029678507E+04  0.90412171952E+03 0.  0.
         23    2    4    4    0    0 -0.29870085730E+03 -0.12223781914E+03  0.34001958024E+03  0.47766212383E+03  0.91561471230E+02 0.  0.
         23    2    4    4    0    0 -0.38135940829E+03  0.70232675052E+03  0.27084514145E+04  0.28253057268E+04  0.89137661406E+02 0.  0.
          2    1    3    3  502    0  0.13483379135E+02  0.13305051763E+01  0.24098104383E+01  0.13761502217E+02  0.00000000000E+00 0. -1.
         -2    1    3    3    0  502  0.66657688645E+03 -0.58141943655E+03  0.35675295826E+03  0.95375362646E+03  0.00000000000E+00 0.  1.
         13    1    5    5    0    0 -0.50487501767E+01 -0.24308061509E+02  0.36433678041E+02  0.44088372938E+02  0.00000000000E+00 0. -1.
        -13    1    5    5    0    0 -0.29365210712E+03 -0.97929757631E+02  0.30358590220E+03  0.43357375089E+03  0.00000000000E+00 0.  1.
          3    1    6    6  503    0 -0.18889824009E+03  0.26151012252E+03  0.11385302218E+04  0.11833516617E+04  0.00000000000E+00 0. -1.
         -3    1    6    6    0  503 -0.19246116819E+03  0.44081662799E+03  0.15699211927E+04  0.16419540652E+04  0.00000000000E+00 0.  1.
<mgrwt>
<rscale>  0 0.25739186E+04</rscale>
<asrwt>0</asrwt>
<pdfrwt beam="1">  1        2 0.59062434E+00 0.25739186E+04</pdfrwt>
<pdfrwt beam="2">  1       -2 0.66373019E-01 0.25739186E+04</pdfrwt>
<totfact> 0.84979620E-01</totfact>
</mgrwt>
</event>
<event>
12    3  0.4688899E-008  0.1372041E+04  0.7818608E-02  0.8974309E-01
         -1   -1    0    0    0  501 -0.00000000000E+00  0.00000000000E+00  0.68643883598E+03  0.68643883598E+03  0.00000000000E+00 0.  1.
          1   -1    0    0  501    0  0.00000000000E+00 -0.00000000000E+00 -0.68560225479E+03  0.68560225479E+03  0.00000000000E+00 0. -1.
         23    2    1    2    0    0 -0.68457432503E+02 -0.52542143453E+02 -0.40235184010E+03  0.42157707833E+03  0.91614042775E+02 0.  0.
        254    2    1    2    0    0  0.68457432503E+02  0.52542143453E+02  0.40318842130E+03  0.95046401244E+03  0.85637248845E+03 0.  0.
         23    2    4    4    0    0  0.12789775088E+03  0.36325616782E+03 -0.40958138023E+02  0.39778243331E+03  0.90776742853E+02 0.  0.
         23    2    4    4    0    0 -0.59440318376E+02 -0.31071402437E+03  0.44414655932E+03  0.55268157913E+03  0.90079994262E+02 0.  0.
          1    1    3    3  502    0 -0.70220824391E+02 -0.65551065159E+02 -0.39503651099E+03  0.40654858423E+03  0.00000000000E+00 0. -1.
         -1    1    3    3    0  502  0.17633918886E+01  0.13008921706E+02 -0.73153291130E+01  0.15028494101E+02  0.00000000000E+00 0.  1.
         13    1    5    5    0    0  0.53267619080E+02  0.16971238370E+03 -0.64074922453E+02  0.18906434913E+03  0.00000000000E+00 0. -1.
        -13    1    5    5    0    0  0.74630131799E+02  0.19354378412E+03  0.23116784430E+02  0.20871808418E+03  0.00000000000E+00 0.  1.
          2    1    6    6  503    0 -0.60106240292E+02 -0.22276514927E+03  0.37710604725E+03  0.44209279877E+03  0.00000000000E+00 0. -1.
         -2    1    6    6    0  503  0.66592191622E+00 -0.87948875100E+02  0.67040512073E+02  0.11058878036E+03  0.00000000000E+00 0.  1.
<mgrwt>
<rscale>  0 0.13720408E+04</rscale>
<asrwt>0</asrwt>
<pdfrwt beam="1">  1        1 0.10547727E+00 0.13720408E+04</pdfrwt>
<pdfrwt beam="2">  1       -1 0.10560597E+00 0.13720408E+04</pdfrwt>
<totfact> 0.23089799E+01</totfact>
</mgrwt>
</event>
<event>
12    3  0.4688899E-008  0.2000920E+04  0.7818608E-02  0.8606191E-01
         -2   -1    0    0    0  501 -0.00000000000E+00  0.00000000000E+00  0.11591658840E+04  0.11591658840E+04  0.00000000000E+00 0.  1.
          2   -1    0    0  501    0  0.00000000000E+00 -0.00000000000E+00 -0.86348321776E+03  0.86348321776E+03  0.00000000000E+00 0. -1.
         23    2    1    2    0    0  0.18833334817E+03  0.34579980279E+03 -0.58089586725E+03  0.70800090084E+03  0.93692653683E+02 0.  0.
        254    2    1    2    0    0 -0.18833334817E+03 -0.34579980279E+03  0.87657853350E+03  0.13146482009E+04  0.89714157923E+03 0.  0.
         23    2    4    4    0    0  0.34932905456E+03 -0.14353856677E+03  0.44345555813E+03  0.58954320170E+03  0.90962883238E+02 0.  0.
         23    2    4    4    0    0 -0.53766240273E+03 -0.20226123602E+03  0.43312297537E+03  0.72510499923E+03  0.90505697111E+02 0.  0.
          2    1    3    3  502    0  0.17636983413E+03  0.33238284490E+03 -0.50363001177E+03  0.62867150622E+03  0.00000000000E+00 0. -1.
         -2    1    3    3    0  502  0.11963514046E+02  0.13416957885E+02 -0.77265855483E+02  0.79329394619E+02  0.00000000000E+00 0.  1.
         13    1    5    5    0    0  0.21677042261E+02 -0.34956501877E+02  0.29823837739E+02  0.50806618488E+02  0.00000000000E+00 0. -1.
        -13    1    5    5    0    0  0.32765201230E+03 -0.10858206489E+03  0.41363172039E+03  0.53873658321E+03  0.00000000000E+00 0.  1.
          2    1    6    6  503    0 -0.14194462676E+03 -0.94990496137E+02  0.14423830719E+03  0.22355348506E+03  0.00000000000E+00 0. -1.
         -2    1    6    6    0  503 -0.39571777598E+03 -0.10727073988E+03  0.28888466818E+03  0.50155151417E+03  0.00000000000E+00 0.  1.
<mgrwt>
<rscale>  0 0.20009201E+04</rscale>
<asrwt>0</asrwt>
<pdfrwt beam="1">  1        2 0.13284357E+00 0.20009201E+04</pdfrwt>
<pdfrwt beam="2">  1       -2 0.17833321E+00 0.20009201E+04</pdfrwt>
<totfact> 0.53710807E+00</totfact>
</mgrwt>
</event>
<event>
12    3  0.4688899E-008  0.1698335E+04  0.7818608E-02  0.8762314E-01
          1   -1    0    0  501    0  0.00000000000E+00  0.00000000000E+00  0.10976812211E+04  0.10976812211E+04  0.00000000000E+00 0. -1.
         -1   -1    0    0    0  501 -0.00000000000E+00 -0.00000000000E+00 -0.65691723528E+03  0.65691723528E+03  0.00000000000E+00 0.  1.
         23    2    1    2    0    0 -0.19805724762E+03 -0.48343610493E+03 -0.16991074736E+03  0.55750063892E+03  0.94869170145E+02 0.  0.
        254    2    1    2    0    0  0.19805724762E+03  0.48343610493E+03  0.61067473320E+03  0.11970978175E+04  0.88723300997E+03 0.  0.
         23    2    4    4    0    0 -0.95922143014E+02 -0.18902410990E+03  0.33833463811E+03  0.40931639590E+03  0.90213152952E+02 0.  0.
         23    2    4    4    0    0  0.29397939064E+03  0.67246021482E+03  0.27234009509E+03  0.78778142159E+03  0.88339222158E+02 0.  0.
          1    1    3    3  502    0 -0.95347458423E+02 -0.15103596473E+03 -0.23936827164E+02  0.18021091023E+03  0.00000000000E+00 0. -1.
         -1    1    3    3    0  502 -0.10270978920E+03 -0.33240014020E+03 -0.14597392020E+03  0.37728972869E+03  0.00000000000E+00 0.  1.
         13    1    5    5    0    0 -0.79662675217E+00 -0.10117240880E+02  0.81726577238E+02  0.82354274961E+02  0.00000000000E+00 0.  1.
        -13    1    5    5    0    0 -0.95125516262E+02 -0.17890686902E+03  0.25660806087E+03  0.32696212094E+03  0.00000000000E+00 0. -1.
          1    1    6    6  503    0  0.25684541400E+03  0.62004826434E+03  0.27026599584E+03  0.72351442647E+03  0.00000000000E+00 0. -1.
         -1    1    6    6    0  503  0.37133976639E+02  0.52411950486E+02  0.20740992561E+01  0.64266995126E+02  0.00000000000E+00 0.  1.
<mgrwt>
<rscale>  0 0.16983353E+04</rscale>
<asrwt>0</asrwt>
<pdfrwt beam="1">  1        1 0.16887403E+00 0.16983353E+04</pdfrwt>
<pdfrwt beam="2">  1       -1 0.10106419E+00 0.16983353E+04</pdfrwt>
<totfact> 0.11271930E+01</totfact>
</mgrwt>
</event>
<event>
12    3  0.4688899E-008  0.1475645E+04  0.7818608E-02  0.8900812E-01
          2   -1    0    0  501    0  0.00000000000E+00  0.00000000000E+00  0.11398458150E+04  0.11398458150E+04  0.00000000000E+00 0. -1.
         -2   -1    0    0    0  501 -0.00000000000E+00 -0.00000000000E+00 -0.47759283808E+03  0.47759283808E+03  0.00000000000E+00 0.  1.
         23    2    1    2    0    0 -0.11701318930E+03  0.14732107961E+03  0.66359688905E+03  0.69566002851E+03  0.90479042580E+02 0.  0.
        254    2    1    2    0    0  0.11701318930E+03 -0.14732107961E+03 -0.13439121578E+01  0.92177862453E+03  0.90237378041E+03 0.  0.
         23    2    4    4    0    0 -0.33524217984E+03  0.12801197662E+03  0.79133057466E+02  0.37866810844E+03  0.91395351425E+02 0.  0.
         23    2    4    4    0    0  0.45225536914E+03 -0.27533305623E+03 -0.80476969624E+02  0.54311051610E+03  0.90273358693E+02 0.  0.
          3    1    3    3  502    0 -0.10391375489E+03  0.15525676609E+03  0.64529668555E+03  0.67179650509E+03  0.00000000000E+00 0. -1.
         -3    1    3    3    0  502 -0.13099434413E+02 -0.79356864827E+01  0.18300203498E+02  0.23863523419E+02  0.00000000000E+00 0.  1.
         13    1    5    5    0    0 -0.21689367506E+03  0.86360446896E+02  0.61808256994E+01  0.23353628343E+03  0.00000000000E+00 0. -1.
        -13    1    5    5    0    0 -0.11834850477E+03  0.41651529727E+02  0.72952231767E+02  0.14513182501E+03  0.00000000000E+00 0.  1.
          2    1    6    6  503    0  0.17917349084E+03 -0.83276507133E+02  0.79581358131E+01  0.19774086170E+03  0.00000000000E+00 0. -1.
         -2    1    6    6    0  503  0.27308187830E+03 -0.19205654910E+03 -0.88435105437E+02  0.34536965440E+03  0.00000000000E+00 0.  1.
<mgrwt>
<rscale>  0 0.14756452E+04</rscale>
<asrwt>0</asrwt>
<pdfrwt beam="1">  1        2 0.17536089E+00 0.14756452E+04</pdfrwt>
<pdfrwt beam="2">  1       -2 0.73475822E-01 0.14756452E+04</pdfrwt>
<totfact> 0.33315077E+01</totfact>
</mgrwt>
</event>
<event>
12    3  0.4688899E-008  0.2401004E+04  0.7818608E-02  0.8439128E-01
         -2   -1    0    0    0  501 -0.00000000000E+00  0.00000000000E+00  0.35608626144E+03  0.35608626144E+03  0.00000000000E+00 0.  1.
          2   -1    0    0  501    0  0.00000000000E+00 -0.00000000000E+00 -0.40473490431E+04  0.40473490431E+04  0.00000000000E+00 0. -1.
         23    2    1    2    0    0  0.85129001095E+03 -0.34809592816E+03 -0.24494801024E+04  0.26195406694E+04  0.12718132145E+03 0.  0.
        254    2    1    2    0    0 -0.85129001095E+03  0.34809592816E+03 -0.12417826793E+04  0.17838946352E+04  0.89128580650E+03 0.  0.
         23    2    4    4    0    0  0.17177916734E+02  0.13696689150E+03  0.82624899499E+02  0.18351138713E+03  0.88286720407E+02 0.  0.
         23    2    4    4    0    0 -0.86846792769E+03  0.21112903666E+03 -0.13244075788E+04  0.16003832480E+04  0.91428082811E+02 0.  0.
          4    1    3    3  502    0  0.70199719304E+03 -0.29527325158E+03 -0.18784575294E+04  0.20269654763E+04  0.00000000000E+00 0.  1.
         -4    1    3    3    0  502  0.14929281791E+03 -0.52822676574E+02 -0.57102257296E+03  0.59257519309E+03  0.00000000000E+00 0. -1.
         13    1    5    5    0    0  0.67073885129E+00 -0.12701391543E+02  0.25656525542E+01  0.12975276905E+02  0.00000000000E+00 0. -1.
        -13    1    5    5    0    0  0.16507177882E+02  0.14966828304E+03  0.80059246945E+02  0.17053611023E+03  0.00000000000E+00 0.  1.
          1    1    6    6  503    0 -0.29856815932E+03  0.35774429653E+02 -0.48770423955E+03  0.57295565348E+03  0.00000000000E+00 0. -1.
         -1    1    6    6    0  503 -0.56989976837E+03  0.17535460701E+03 -0.83670333921E+03  0.10274275945E+04  0.00000000000E+00 0.  1.
<mgrwt>
<rscale>  0 0.24010043E+04</rscale>
<asrwt>0</asrwt>
<pdfrwt beam="1">  1        2 0.62266910E+00 0.24010043E+04</pdfrwt>
<pdfrwt beam="2">  1       -2 0.54782500E-01 0.24010043E+04</pdfrwt>
<totfact> 0.88645473E-01</totfact>
</mgrwt>
</event>
<event>
12    3  0.4688899E-008  0.1059771E+04  0.7818608E-02  0.9245313E-01
          1   -1    0    0  501    0  0.00000000000E+00  0.00000000000E+00  0.86557106030E+03  0.86557106030E+03  0.00000000000E+00 0. -1.
         -1   -1    0    0    0  501 -0.00000000000E+00 -0.00000000000E+00 -0.32438572030E+03  0.32438572030E+03  0.00000000000E+00 0.  1.
         23    2    1    2    0    0  0.37030542609E+02 -0.45540205187E+02  0.19531399563E+03  0.22407153396E+03  0.92818770012E+02 0.  0.
        254    2    1    2    0    0 -0.37030542609E+02  0.45540205187E+02  0.34587134437E+03  0.96588524664E+03  0.89992341421E+03 0.  0.
         23    2    4    4    0    0 -0.12877399834E+03 -0.30959996364E+03  0.45506684457E+03  0.57254773037E+03  0.91050482659E+02 0.  0.
         23    2    4    4    0    0  0.91743455726E+02  0.35514016883E+03 -0.10919550020E+03  0.39333751627E+03  0.90825895285E+02 0.  0.
          4    1    3    3  502    0  0.22538487935E+02  0.22532080106E+02  0.10690825833E+03  0.11155740124E+03  0.00000000000E+00 0. -1.
         -4    1    3    3    0  502  0.14492054674E+02 -0.68072285292E+02  0.88405737306E+02  0.11251413272E+03  0.00000000000E+00 0.  1.
         13    1    5    5    0    0  0.62165022706E+01 -0.45698097045E+01 -0.71032057121E+00  0.77480717943E+01  0.00000000000E+00 0. -1.
        -13    1    5    5    0    0 -0.13499050061E+03 -0.30503015394E+03  0.45577716514E+03  0.56479965858E+03  0.00000000000E+00 0.  1.
          1    1    6    6  503    0  0.21557968613E+02  0.71170598511E+01 -0.91884264981E+01  0.24491339962E+02  0.00000000000E+00 0. -1.
         -1    1    6    6    0  503  0.70185487114E+02  0.34802310898E+03 -0.10000707370E+03  0.36884617630E+03  0.00000000000E+00 0.  1.
<mgrwt>
<rscale>  0 0.10597715E+04</rscale>
<asrwt>0</asrwt>
<pdfrwt beam="1">  1        1 0.13316478E+00 0.10597715E+04</pdfrwt>
<pdfrwt beam="2">  1       -1 0.49905496E-01 0.10597715E+04</pdfrwt>
<totfact> 0.78179261E+01</totfact>
</mgrwt>
</event>
<event>
12    3  0.4688899E-008  0.1630266E+04  0.7818608E-02  0.8802167E-01
          1   -1    0    0  501    0  0.00000000000E+00  0.00000000000E+00  0.14902341866E+04  0.14902341866E+04  0.00000000000E+00 0. -1.
         -1   -1    0    0    0  501 -0.00000000000E+00 -0.00000000000E+00 -0.44586422904E+03  0.44586422904E+03  0.00000000000E+00 0.  1.
         23    2    1    2    0    0 -0.34722460643E+03  0.31561205423E+03 -0.82595351510E+01  0.47837868729E+03  0.92747250328E+02 0.  0.
        254    2    1    2    0    0  0.34722460643E+03 -0.31561205423E+03  0.10526294927E+04  0.14577197283E+04  0.89260408996E+03 0.  0.
         23    2    4    4    0    0  0.22954492915E+03 -0.56226967337E+03  0.99242493859E+03  0.11669342387E+04  0.89387910334E+02 0.  0.
         23    2    4    4    0    0  0.11767967728E+03  0.24665761914E+03  0.60204554084E+02  0.29078548967E+03  0.79013449162E+02 0.  0.
          1    1    3    3  502    0 -0.10721771313E+03  0.14175271962E+03  0.27565989735E+02  0.17985926531E+03  0.00000000000E+00 0. -1.
         -1    1    3    3    0  502 -0.24000689330E+03  0.17385933461E+03 -0.35825524886E+02  0.29851942198E+03  0.00000000000E+00 0.  1.
         13    1    5    5    0    0  0.91134703564E+02 -0.20364641106E+03  0.44793432400E+03  0.50042237514E+03  0.00000000000E+00 0. -1.
        -13    1    5    5    0    0  0.13841022559E+03 -0.35862326231E+03  0.54449061460E+03  0.66651186351E+03  0.00000000000E+00 0.  1.
          4    1    6    6  503    0  0.95635633002E+02  0.11841568848E+03  0.14633709399E+02  0.15291368490E+03  0.00000000000E+00 0. -1.
         -4    1    6    6    0  503  0.22044044274E+02  0.12824193065E+03  0.45570844685E+02  0.13787180477E+03  0.00000000000E+00 0.  1.
<mgrwt>
<rscale>  0 0.16302664E+04</rscale>
<asrwt>0</asrwt>
<pdfrwt beam="1">  1        1 0.22926680E+00 0.16302664E+04</pdfrwt>
<pdfrwt beam="2">  1       -1 0.68594497E-01 0.16302664E+04</pdfrwt>
<totfact> 0.13678972E+01</totfact>
</mgrwt>
</event>
<event>
12    3  0.4688899E-008  0.3484865E+04  0.7818608E-02  0.8117386E-01
          1   -1    0    0  501    0  0.00000000000E+00  0.00000000000E+00  0.27395936433E+04  0.27395936433E+04  0.00000000000E+00 0. -1.
         -1   -1    0    0    0  501 -0.00000000000E+00 -0.00000000000E+00 -0.11082197664E+04  0.11082197664E+04  0.00000000000E+00 0.  1.
         23    2    1    2    0    0  0.10838279506E+04 -0.33167385295E+03 -0.51887520924E+03  0.12497730041E+04  0.89501440138E+02 0.  0.
        254    2    1    2    0    0 -0.10838279506E+04  0.33167385295E+03  0.21502490861E+04  0.25980404056E+04  0.91736156735E+03 0.  0.
         23    2    4    4    0    0 -0.11271231385E+04  0.38833070210E+02  0.15142971496E+04  0.18904002838E+04  0.92751276030E+02 0.  0.
         23    2    4    4    0    0  0.43295187887E+02  0.29284078274E+03  0.63595193657E+03  0.70764012174E+03  0.93217374658E+02 0.  0.
          4    1    3    3  502    0  0.74494137666E+03 -0.26119335062E+03 -0.33163118160E+03  0.85623528406E+03  0.00000000000E+00 0. -1.
         -4    1    3    3    0  502  0.33888657397E+03 -0.70480502330E+02 -0.18724402764E+03  0.39353772006E+03  0.00000000000E+00 0.  1.
         13    1    5    5    0    0 -0.60189496574E+03  0.66963351357E+02  0.81440070793E+03  0.10148941587E+04  0.00000000000E+00 0. -1.
        -13    1    5    5    0    0 -0.52522817278E+03 -0.28130281147E+02  0.69989644164E+03  0.87550612517E+03  0.00000000000E+00 0.  1.
          3    1    6    6  503    0  0.47031601328E+02  0.54969520495E+02  0.15637145111E+03  0.17229524204E+03  0.00000000000E+00 0. -1.
         -3    1    6    6    0  503 -0.37364134411E+01  0.23787126225E+03  0.47958048546E+03  0.53534487970E+03  0.00000000000E+00 0.  1.
<mgrwt>
<rscale>  0 0.34848655E+04</rscale>
<asrwt>0</asrwt>
<pdfrwt beam="1">  1        1 0.42147594E+00 0.34848655E+04</pdfrwt>
<pdfrwt beam="2">  1       -1 0.17049535E+00 0.34848655E+04</pdfrwt>
<totfact> 0.18331195E-01</totfact>
</mgrwt>
</event>
<event>
12    3  0.4688899E-008  0.1828708E+04  0.7818608E-02  0.8691180E-01
          2   -1    0    0  501    0  0.00000000000E+00  0.00000000000E+00  0.66136748170E+03  0.66136748170E+03  0.00000000000E+00 0. -1.
         -2   -1    0    0    0  501 -0.00000000000E+00 -0.00000000000E+00 -0.12641131118E+04  0.12641131118E+04  0.00000000000E+00 0.  1.
         23    2    1    2    0    0  0.57803977003E+02 -0.18322915851E+03 -0.92749483039E+03  0.95137250499E+03  0.89155810526E+02 0.  0.
        254    2    1    2    0    0 -0.57803977003E+02  0.18322915851E+03  0.32474920030E+03  0.97410808851E+03  0.89805918553E+03 0.  0.
         23    2    4    4    0    0  0.32522705177E+03  0.14646960450E+03 -0.11241647988E+03  0.38476680577E+03  0.90454682738E+02 0.  0.
         23    2    4    4    0    0 -0.38303102877E+03  0.36759554015E+02  0.43716568018E+03  0.58934128274E+03  0.90251214922E+02 0.  0.
          4    1    3    3  502    0 -0.73177912203E+01 -0.81979250951E+02 -0.24813780993E+03  0.26143167438E+03  0.00000000000E+00 0. -1.
         -4    1    3    3    0  502  0.65121768223E+02 -0.10124990756E+03 -0.67935702046E+03  0.68994083060E+03  0.00000000000E+00 0.  1.
         13    1    5    5    0    0  0.16556369193E+03  0.12246247493E+03 -0.52206689270E+02  0.21244748117E+03  0.00000000000E+00 0. -1.
        -13    1    5    5    0    0  0.15966335983E+03  0.24007129571E+02 -0.60209790612E+02  0.17231932460E+03  0.00000000000E+00 0.  1.
          1    1    6    6  503    0 -0.24126676569E+03  0.14184034123E+02  0.33528315539E+03  0.41331057733E+03  0.00000000000E+00 0. -1.
         -1    1    6    6    0  503 -0.14176426308E+03  0.22575519892E+02  0.10188252480E+03  0.17603070541E+03  0.00000000000E+00 0.  1.
<mgrwt>
<rscale>  0 0.18287081E+04</rscale>
<asrwt>0</asrwt>
<pdfrwt beam="1">  1        2 0.10174884E+00 0.18287081E+04</pdfrwt>
<pdfrwt beam="2">  1       -2 0.19447894E+00 0.18287081E+04</pdfrwt>
<totfact> 0.59915490E+00</totfact>
</mgrwt>
</event>
<event>
12    3  0.4688899E-008  0.1988689E+04  0.7818608E-02  0.8611927E-01
          2   -1    0    0  501    0  0.00000000000E+00  0.00000000000E+00  0.57812229123E+03  0.57812229123E+03  0.00000000000E+00 0. -1.
         -2   -1    0    0    0  501 -0.00000000000E+00 -0.00000000000E+00 -0.17102284416E+04  0.17102284416E+04  0.00000000000E+00 0.  1.
         23    2    1    2    0    0  0.59412601886E+03 -0.30369365100E+03 -0.93645807065E+03  0.11534713091E+04  0.91251208037E+02 0.  0.
        254    2    1    2    0    0 -0.59412601886E+03  0.30369365100E+03 -0.19564807976E+03  0.11348794237E+04  0.89691558987E+03 0.  0.
         23    2    4    4    0    0 -0.27310467233E+03 -0.30429966724E+03 -0.29850499260E+02  0.42035392617E+03  0.92854302076E+02 0.  0.
         23    2    4    4    0    0 -0.32102134653E+03  0.60799331823E+03 -0.16579758050E+03  0.71452549756E+03  0.10172152680E+03 0.  0.
          2    1    3    3  502    0  0.32792032423E+02  0.42893216415E+01 -0.41599216750E+02  0.53143301598E+02  0.00000000000E+00 0. -1.
         -2    1    3    3    0  502  0.56133398644E+03 -0.30798297264E+03 -0.89485885390E+03  0.11003280075E+04  0.00000000000E+00 0.  1.
         13    1    5    5    0    0 -0.83460937280E+02 -0.55905863680E+02 -0.38865185929E+02  0.10771117084E+03  0.00000000000E+00 0. -1.
        -13    1    5    5    0    0 -0.18964373505E+03 -0.24839380356E+03  0.90146866694E+01  0.31264275534E+03  0.00000000000E+00 0.  1.
          1    1    6    6  503    0 -0.47404891172E+01  0.26302513056E+02  0.11480092816E+02  0.29087574000E+02  0.00000000000E+00 0. -1.
         -1    1    6    6    0  503 -0.31628085741E+03  0.58169080518E+03 -0.17727767332E+03  0.68543792356E+03  0.00000000000E+00 0.  1.
<mgrwt>
<rscale>  0 0.19886892E+04</rscale>
<asrwt>0</asrwt>
<pdfrwt beam="1">  1        2 0.88941892E-01 0.19886892E+04</pdfrwt>
<pdfrwt beam="2">  1       -2 0.26311207E+00 0.19886892E+04</pdfrwt>
<totfact> 0.25759167E+00</totfact>
</mgrwt>
</event>
<event>
12    3  0.4688899E-008  0.1836539E+04  0.7818608E-02  0.8687106E-01
         -2   -1    0    0    0  501 -0.00000000000E+00  0.00000000000E+00  0.16235924974E+04  0.16235924974E+04  0.00000000000E+00 0.  1.
          2   -1    0    0  501    0  0.00000000000E+00 -0.00000000000E+00 -0.51935398495E+03  0.51935398495E+03  0.00000000000E+00 0. -1.
         23    2    1    2    0    0 -0.24381854749E+03  0.53047483865E+03  0.85270115378E+03  0.10374606334E+04  0.91511035737E+02 0.  0.
        254    2    1    2    0    0  0.24381854749E+03 -0.53047483865E+03  0.25153735867E+03  0.11054858489E+04  0.90442074328E+03 0.  0.
         23    2    4    4    0    0 -0.12991966918E+03 -0.47594694324E+03  0.44557051417E+03  0.67118781653E+03  0.92495344454E+02 0.  0.
         23    2    4    4    0    0  0.37373821667E+03 -0.54527895406E+02 -0.19403315550E+03  0.43429803242E+03  0.91172197267E+02 0.  0.
          3    1    3    3  502    0 -0.17463900559E+02  0.17102918768E+02  0.72214002564E+02  0.76238834064E+02  0.00000000000E+00 0. -1.
         -3    1    3    3    0  502 -0.22635464693E+03  0.51337191988E+03  0.78048715121E+03  0.96122179934E+03  0.00000000000E+00 0.  1.
         13    1    5    5    0    0 -0.89037418322E+02 -0.41632477079E+03  0.40817067939E+03  0.58979426934E+03  0.00000000000E+00 0.  1.
        -13    1    5    5    0    0 -0.40882250854E+02 -0.59622172454E+02  0.37399834777E+02  0.81393547191E+02  0.00000000000E+00 0. -1.
          1    1    6    6  503    0  0.21635138751E+03 -0.65193550888E+02 -0.80216563925E+02  0.23977660246E+03  0.00000000000E+00 0. -1.
         -1    1    6    6    0  503  0.15738682915E+03  0.10665655483E+02 -0.11381659157E+03  0.19452142996E+03  0.00000000000E+00 0.  1.
<mgrwt>
<rscale>  0 0.18365394E+04</rscale>
<asrwt>0</asrwt>
<pdfrwt beam="1">  1        2 0.79900614E-01 0.18365394E+04</pdfrwt>
<pdfrwt beam="2">  1       -2 0.24978346E+00 0.18365394E+04</pdfrwt>
<totfact> 0.35737665E+00</totfact>
</mgrwt>
</event>
<event>
12    3  0.4688899E-008  0.1229107E+04  0.7818608E-02  0.9087754E-01
          1   -1    0    0  501    0  0.00000000000E+00  0.00000000000E+00  0.15119965796E+04  0.15119965796E+04  0.00000000000E+00 0. -1.
         -1   -1    0    0    0  501 -0.00000000000E+00 -0.00000000000E+00 -0.24978625236E+03  0.24978625236E+03  0.00000000000E+00 0.  1.
         23    2    1    2    0    0 -0.35612291210E+02  0.16911746630E+02  0.62285173144E+03  0.62893748384E+03  0.77870641274E+02 0.  0.
        254    2    1    2    0    0  0.35612291210E+02 -0.16911746630E+02  0.63935859582E+03  0.11328453481E+04  0.93434732636E+03 0.  0.
         23    2    4    4    0    0 -0.33648451547E+03 -0.29049623912E+03  0.40009407961E+03  0.60495514114E+03  0.91025030352E+02 0.  0.
         23    2    4    4    0    0  0.37209680669E+03  0.27358449249E+03  0.23926451621E+03  0.52789020699E+03  0.90089143881E+02 0.  0.
          3    1    3    3  502    0 -0.15268758676E+02 -0.15310398710E+02  0.49635138135E+03  0.49682213826E+03  0.00000000000E+00 0. -1.
         -3    1    3    3    0  502 -0.20343532535E+02  0.32222145340E+02  0.12650035009E+03  0.13211534559E+03  0.00000000000E+00 0.  1.
         13    1    5    5    0    0 -0.94143083240E+02 -0.88673671983E+02  0.17449428060E+03  0.21719621126E+03  0.00000000000E+00 0. -1.
        -13    1    5    5    0    0 -0.24234143223E+03 -0.20182256714E+03  0.22559979902E+03  0.38775892988E+03  0.00000000000E+00 0.  1.
          3    1    6    6  503    0  0.87029561233E+01  0.33125323158E+02  0.10983754101E+02  0.35967642872E+02  0.00000000000E+00 0. -1.
         -3    1    6    6    0  503  0.36339385056E+03  0.24045916933E+03  0.22828076211E+03  0.49192256412E+03  0.00000000000E+00 0.  1.
<mgrwt>
<rscale>  0 0.12291069E+04</rscale>
<asrwt>0</asrwt>
<pdfrwt beam="1">  1        1 0.23261485E+00 0.12291069E+04</pdfrwt>
<pdfrwt beam="2">  1       -1 0.38428655E-01 0.12291069E+04</pdfrwt>
<totfact> 0.41531095E+01</totfact>
</mgrwt>
</event>
<event>
12    3  0.4688899E-008  0.2887025E+04  0.7818608E-02  0.8276748E-01
          2   -1    0    0  501    0  0.00000000000E+00  0.00000000000E+00  0.18084719689E+04  0.18084719689E+04  0.00000000000E+00 0. -1.
         -2   -1    0    0    0  501 -0.00000000000E+00 -0.00000000000E+00 -0.11522042234E+04  0.11522042234E+04  0.00000000000E+00 0.  1.
         23    2    1    2    0    0 -0.53995245738E+03 -0.84597280996E+03  0.11471039498E+04  0.15268754424E+04  0.91008205299E+02 0.  0.
        254    2    1    2    0    0  0.53995245738E+03  0.84597280996E+03 -0.49083620431E+03  0.14338007499E+04  0.89869113695E+03 0.  0.
         23    2    4    4    0    0  0.16819457680E+03  0.34958141733E+03 -0.67189209783E+03  0.78084675335E+03  0.88238756166E+02 0.  0.
         23    2    4    4    0    0  0.37175788058E+03  0.49639139263E+03  0.18105589352E+03  0.65295399659E+03  0.94653835791E+02 0.  0.
          3    1    3    3  502    0 -0.12216639422E+03 -0.19322077580E+03  0.20592056755E+03  0.30767218954E+03  0.00000000000E+00 0. -1.
         -3    1    3    3    0  502 -0.41778606315E+03 -0.65275203416E+03  0.94118338227E+03  0.12192032528E+04  0.00000000000E+00 0.  1.
         13    1    5    5    0    0  0.70939152846E+02  0.17125094662E+03 -0.40539848900E+03  0.44576584101E+03  0.00000000000E+00 0.  1.
        -13    1    5    5    0    0  0.97255423955E+02  0.17833047071E+03 -0.26649360882E+03  0.33508091234E+03  0.00000000000E+00 0. -1.
          3    1    6    6  503    0  0.68270189680E+02  0.16043794656E+03  0.58713348392E+02  0.18397937595E+03  0.00000000000E+00 0. -1.
         -3    1    6    6    0  503  0.30348769090E+03  0.33595344607E+03  0.12234254512E+03  0.46897462064E+03  0.00000000000E+00 0.  1.
<mgrwt>
<rscale>  0 0.28870255E+04</rscale>
<asrwt>0</asrwt>
<pdfrwt beam="1">  1        2 0.27822646E+00 0.28870255E+04</pdfrwt>
<pdfrwt beam="2">  1       -2 0.17726219E+00 0.28870255E+04</pdfrwt>
<totfact> 0.13972952E+00</totfact>
</mgrwt>
</event>
<event>
12    3  0.4688899E-008  0.1585526E+04  0.7818608E-02  0.8829490E-01
         -1   -1    0    0    0  501 -0.00000000000E+00  0.00000000000E+00  0.29684750181E+03  0.29684750181E+03  0.00000000000E+00 0.  1.
          1   -1    0    0  501    0  0.00000000000E+00 -0.00000000000E+00 -0.21171576274E+04  0.21171576274E+04  0.00000000000E+00 0. -1.
         23    2    1    2    0    0 -0.21636247681E+03  0.22101962582E+03  0.40686495469E+02  0.32413389757E+03  0.88005660455E+02 0.  0.
        254    2    1    2    0    0  0.21636247681E+03 -0.22101962582E+03 -0.18609966211E+04  0.20898712317E+04  0.89921685085E+03 0.  0.
         23    2    4    4    0    0  0.35453182194E+03 -0.84487626202E+01 -0.21878717461E+03  0.42570437743E+03  0.87133201638E+02 0.  0.
         23    2    4    4    0    0 -0.13816934513E+03 -0.21257086320E+03 -0.16422094465E+04  0.16641668542E+04  0.91226711108E+02 0.  0.
          3    1    3    3  502    0 -0.51016669841E+00  0.25331398999E+02  0.19575600913E+02  0.32017873078E+02  0.00000000000E+00 0. -1.
         -3    1    3    3    0  502 -0.21585231011E+03  0.19568822682E+03  0.21110894556E+02  0.29211602449E+03  0.00000000000E+00 0.  1.
         13    1    5    5    0    0  0.19338879186E+03  0.28047347465E+02 -0.84966326430E+02  0.21308485433E+03  0.00000000000E+00 0. -1.
        -13    1    5    5    0    0  0.16114303008E+03 -0.36496110085E+02 -0.13382084818E+03  0.21261952310E+03  0.00000000000E+00 0.  1.
          2    1    6    6  503    0 -0.57792546872E+01 -0.77245593939E+02 -0.37737612419E+03  0.38524410532E+03  0.00000000000E+00 0. -1.
         -2    1    6    6    0  503 -0.13239009045E+03 -0.13532526926E+03 -0.12648333223E+04  0.12789227489E+04  0.00000000000E+00 0.  1.
<mgrwt>
<rscale>  0 0.15855257E+04</rscale>
<asrwt>0</asrwt>
<pdfrwt beam="1">  1        1 0.32571655E+00 0.15855257E+04</pdfrwt>
<pdfrwt beam="2">  1       -1 0.45668848E-01 0.15855257E+04</pdfrwt>
<totfact> 0.11362260E+01</totfact>
</mgrwt>
</event>
<event>
12    3  0.4688899E-008  0.1991524E+04  0.7818608E-02  0.8610594E-01
          2   -1    0    0  501    0  0.00000000000E+00  0.00000000000E+00  0.22629067334E+04  0.22629067334E+04  0.00000000000E+00 0. -1.
         -2   -1    0    0    0  501 -0.00000000000E+00 -0.00000000000E+00 -0.43817174008E+03  0.43817174008E+03  0.00000000000E+00 0.  1.
         23    2    1    2    0    0 -0.78793563238E+03  0.47434669705E+02  0.73950553239E+03  0.10853861211E+04  0.90011059722E+02 0.  0.
        254    2    1    2    0    0  0.78793563238E+03 -0.47434669705E+02  0.10852294609E+04  0.16156923523E+04  0.89980341509E+03 0.  0.
         23    2    4    4    0    0  0.67050870868E+03  0.99385387438E+02  0.11952653183E+04  0.13767092888E+04  0.84911135867E+02 0.  0.
         23    2    4    4    0    0  0.11742692370E+03 -0.14682005714E+03 -0.11003585740E+03  0.23898306353E+03  0.98284297581E+02 0.  0.
          1    1    3    3  502    0 -0.72637214869E+03  0.48718261029E+02  0.64524779031E+03  0.97279734696E+03  0.00000000000E+00 0. -1.
         -1    1    3    3    0  502 -0.61563483690E+02 -0.12835913236E+01  0.94257742073E+02  0.11258877418E+03  0.00000000000E+00 0.  1.
         13    1    5    5    0    0  0.62322924718E+03  0.76061584727E+02  0.10667786832E+04  0.12378274590E+04  0.00000000000E+00 0. -1.
        -13    1    5    5    0    0  0.47279461500E+02  0.23323802710E+02  0.12848663511E+03  0.13888182982E+03  0.00000000000E+00 0.  1.
          1    1    6    6  503    0  0.13166488245E+03 -0.10726798552E+03 -0.92994622168E+02  0.19362350514E+03  0.00000000000E+00 0. -1.
         -1    1    6    6    0  503 -0.14237958756E+02 -0.39552071626E+02 -0.17041235231E+02  0.45359558393E+02  0.00000000000E+00 0.  1.
<mgrwt>
<rscale>  0 0.19915238E+04</rscale>
<asrwt>0</asrwt>
<pdfrwt beam="1">  1        2 0.34813949E+00 0.19915238E+04</pdfrwt>
<pdfrwt beam="2">  1       -2 0.67411038E-01 0.19915238E+04</pdfrwt>
<totfact> 0.89281858E+00</totfact>
</mgrwt>
</event>
<event>
12    3  0.4688899E-008  0.1458906E+04  0.7818608E-02  0.8912249E-01
          2   -1    0    0  501    0  0.00000000000E+00  0.00000000000E+00  0.29952064569E+03  0.29952064569E+03  0.00000000000E+00 0. -1.
         -2   -1    0    0    0  501 -0.00000000000E+00 -0.00000000000E+00 -0.17765118503E+04  0.17765118503E+04  0.00000000000E+00 0.  1.
         23    2    1    2    0    0 -0.22846210573E+03  0.26492148777E+03 -0.85631776370E+03  0.93120952108E+03  0.10720415707E+03 0.  0.
        254    2    1    2    0    0  0.22846210573E+03 -0.26492148777E+03 -0.62067344090E+03  0.11448229749E+04  0.89610590624E+03 0.  0.
         23    2    4    4    0    0 -0.95294762147E+02  0.20934856407E+03  0.54341282908E+02  0.25379708752E+03  0.92477422289E+02 0.  0.
         23    2    4    4    0    0  0.32375686788E+03 -0.47427005183E+03 -0.67501472381E+03  0.89102588739E+03  0.92367002084E+02 0.  0.
          3    1    3    3  502    0 -0.65778531772E+02  0.67844647667E+02 -0.12618080791E+03  0.15764297556E+03  0.00000000000E+00 0. -1.
         -3    1    3    3    0  502 -0.16268357396E+03  0.19707684010E+03 -0.73013695579E+03  0.77356654552E+03  0.00000000000E+00 0.  1.
         13    1    5    5    0    0  0.11256504037E+02  0.11645026541E+02  0.21350864575E+02  0.26798786248E+02  0.00000000000E+00 0. -1.
        -13    1    5    5    0    0 -0.10655126618E+03  0.19770353753E+03  0.32990418333E+02  0.22699830127E+03  0.00000000000E+00 0.  1.
          4    1    6    6  503    0  0.12081720175E+03 -0.22868022428E+03 -0.35737006389E+03  0.44114034476E+03  0.00000000000E+00 0.  1.
         -4    1    6    6    0  503  0.20293966613E+03 -0.24558982756E+03 -0.31764465992E+03  0.44988554263E+03  0.00000000000E+00 0. -1.
<mgrwt>
<rscale>  0 0.14589064E+04</rscale>
<asrwt>0</asrwt>
<pdfrwt beam="1">  1        2 0.46080099E-01 0.14589064E+04</pdfrwt>
<pdfrwt beam="2">  1       -2 0.27330952E+00 0.14589064E+04</pdfrwt>
<totfact> 0.49423886E+00</totfact>
</mgrwt>
</event>
<event>
12    3  0.4688899E-008  0.1205874E+04  0.7818608E-02  0.9107730E-01
          2   -1    0    0  501    0  0.00000000000E+00  0.00000000000E+00  0.19166196514E+04  0.19166196514E+04  0.00000000000E+00 0.  1.
         -2   -1    0    0    0  501 -0.00000000000E+00 -0.00000000000E+00 -0.18967415101E+03  0.18967415101E+03  0.00000000000E+00 0. -1.
         23    2    1    2    0    0  0.21375540975E+03  0.12193820238E+03  0.28522487486E+03  0.38882307567E+03  0.96280083805E+02 0.  0.
        254    2    1    2    0    0 -0.21375540975E+03 -0.12193820238E+03  0.14417206256E+04  0.17174707268E+04  0.90032607135E+03 0.  0.
         23    2    4    4    0    0 -0.54566078449E+03 -0.11400697012E+01  0.10089389067E+04  0.11505853228E+04  0.90232345631E+02 0.  0.
         23    2    4    4    0    0  0.33190537474E+03 -0.12079813268E+03  0.43278171887E+03  0.56688540394E+03  0.96465944099E+02 0.  0.
          4    1    3    3  502    0 -0.52543741084E+01 -0.80156555665E+01  0.10863532659E+02  0.14487081254E+02  0.00000000000E+00 0. -1.
         -4    1    3    3    0  502  0.21900978386E+03  0.12995385795E+03  0.27436134220E+03  0.37433599441E+03  0.00000000000E+00 0.  1.
         13    1    5    5    0    0 -0.67150892792E+02  0.23087040097E+02  0.17418348510E+03  0.18810140963E+03  0.00000000000E+00 0. -1.
        -13    1    5    5    0    0 -0.47850989170E+03 -0.24227109798E+02  0.83475542160E+03  0.96248391321E+03  0.00000000000E+00 0.  1.
          3    1    6    6  503    0  0.16281383484E+03 -0.85128771720E+01  0.18537735739E+03  0.24687158306E+03  0.00000000000E+00 0. -1.
         -3    1    6    6    0  503  0.16909153990E+03 -0.11228525551E+03  0.24740436148E+03  0.32001382088E+03  0.00000000000E+00 0.  1.
<mgrwt>
<rscale>  0 0.12058743E+04</rscale>
<asrwt>0</asrwt>
<pdfrwt beam="1">  1        2 0.29486455E+00 0.12058743E+04</pdfrwt>
<pdfrwt beam="2">  1       -2 0.29180640E-01 0.12058743E+04</pdfrwt>
<totfact> 0.79237531E+01</totfact>
</mgrwt>
</event>
<event>
12    3  0.4688899E-008  0.2154423E+04  0.7818608E-02  0.8537641E-01
         -2   -1    0    0    0  501 -0.00000000000E+00  0.00000000000E+00  0.18121244219E+04  0.18121244219E+04  0.00000000000E+00 0. -1.
          2   -1    0    0  501    0  0.00000000000E+00 -0.00000000000E+00 -0.64034480002E+03  0.64034480002E+03  0.00000000000E+00 0.  1.
         23    2    1    2    0    0 -0.37081213771E+03 -0.19543679581E+02  0.14133747441E+04  0.14641828270E+04  0.91211768412E+02 0.  0.
        254    2    1    2    0    0  0.37081213771E+03  0.19543679581E+02 -0.24159512218E+03  0.98828639497E+03  0.88343545239E+03 0.  0.
         23    2    4    4    0    0  0.39583818590E+02  0.41744287203E+03 -0.14535195651E+03  0.45371070084E+03  0.94343938307E+02 0.  0.
         23    2    4    4    0    0  0.33122831913E+03 -0.39789919245E+03 -0.96243165670E+02  0.53457569413E+03  0.92045961746E+02 0.  0.
          2    1    3    3  502    0 -0.19248054941E+03  0.90272277953E+01  0.88690241144E+03  0.90759359857E+03  0.00000000000E+00 0. -1.
         -2    1    3    3    0  502 -0.17833158831E+03 -0.28570907377E+02  0.52647233263E+03  0.55658922839E+03  0.00000000000E+00 0.  1.
         13    1    5    5    0    0  0.14305047202E+02  0.39455131291E+03 -0.14145087925E+03  0.41938493551E+03  0.00000000000E+00 0.  1.
        -13    1    5    5    0    0  0.25278771387E+02  0.22891559124E+02 -0.39010772612E+01  0.34325765334E+02  0.00000000000E+00 0. -1.
          1    1    6    6  503    0  0.13298088424E+02 -0.18164490496E+02 -0.25954291319E+02  0.34357140576E+02  0.00000000000E+00 0. -1.
         -1    1    6    6    0  503  0.31793023070E+03 -0.37973470195E+03 -0.70288874351E+02  0.50021855355E+03  0.00000000000E+00 0.  1.
<mgrwt>
<rscale>  0 0.21544228E+04</rscale>
<asrwt>0</asrwt>
<pdfrwt beam="1">  1        2 0.98514585E-01 0.21544228E+04</pdfrwt>
<pdfrwt beam="2">  1       -2 0.27878837E+00 0.21544228E+04</pdfrwt>
<totfact> 0.18004418E+00</totfact>
</mgrwt>
</event>
<event>
12    3  0.4688899E-008  0.2034131E+04  0.7818608E-02  0.8590828E-01
          1   -1    0    0  501    0  0.00000000000E+00  0.00000000000E+00  0.38308783373E+03  0.38308783373E+03  0.00000000000E+00 0. -1.
         -1   -1    0    0    0  501 -0.00000000000E+00 -0.00000000000E+00 -0.27002214556E+04  0.27002214556E+04  0.00000000000E+00 0.  1.
         23    2    1    2    0    0 -0.54384261266E+03  0.61365853009E+03 -0.12095380995E+04  0.14638739793E+04  0.87195380108E+02 0.  0.
        254    2    1    2    0    0  0.54384261266E+03 -0.61365853009E+03 -0.11075955224E+04  0.16194353100E+04  0.85056528454E+03 0.  0.
         23    2    4    4    0    0  0.18811719213E+03  0.19403673081E+03 -0.35816910707E+03  0.45796415659E+03  0.91693667071E+02 0.  0.
         23    2    4    4    0    0  0.35572542052E+03 -0.80769526089E+03 -0.74942641532E+03  0.11614711534E+04  0.91994994584E+02 0.  0.
          2    1    3    3  502    0 -0.60863127348E+02  0.48531362621E+02 -0.79722593888E+02  0.11142398936E+03  0.00000000000E+00 0. -1.
         -2    1    3    3    0  502 -0.48297948531E+03  0.56512716747E+03 -0.11298155056E+04  0.13524499900E+04  0.00000000000E+00 0.  1.
         13    1    5    5    0    0  0.85584271032E+01  0.61505933323E+02 -0.83462043746E+02  0.10402951146E+03  0.00000000000E+00 0.  1.
        -13    1    5    5    0    0  0.17955876503E+03  0.13253079748E+03 -0.27470706332E+03  0.35393464513E+03  0.00000000000E+00 0. -1.
          1    1    6    6  503    0  0.15516425097E+03 -0.45474877019E+03 -0.38011481480E+03  0.61266602746E+03  0.00000000000E+00 0. -1.
         -1    1    6    6    0  503  0.20056116955E+03 -0.35294649070E+03 -0.36931160051E+03  0.54880512598E+03  0.00000000000E+00 0.  1.
<mgrwt>
<rscale>  0 0.20341308E+04</rscale>
<asrwt>0</asrwt>
<pdfrwt beam="1">  1        1 0.58936590E-01 0.20341308E+04</pdfrwt>
<pdfrwt beam="2">  1       -1 0.41541869E+00 0.20341308E+04</pdfrwt>
<totfact> 0.33006616E-01</totfact>
</mgrwt>
</event>
<event>
12    3  0.4688899E-008  0.1015331E+04  0.7818608E-02  0.9291888E-01
         -2   -1    0    0    0  501 -0.00000000000E+00  0.00000000000E+00  0.13164069863E+03  0.13164069863E+03  0.00000000000E+00 0. -1.
          2   -1    0    0  501    0  0.00000000000E+00 -0.00000000000E+00 -0.19577872129E+04  0.19577872129E+04  0.00000000000E+00 0.  1.
         23    2    1    2    0    0 -0.27307945950E+02  0.67130375003E+01 -0.31794860882E+03  0.33169213549E+03  0.90208459209E+02 0.  0.
        254    2    1    2    0    0  0.27307945950E+02 -0.67130375003E+01 -0.15081979055E+04  0.17577357761E+04  0.90232108897E+03 0.  0.
         23    2    4    4    0    0 -0.16719257687E+03 -0.51323508190E+02 -0.15251518739E+04  0.15378586628E+04  0.91288378381E+02 0.  0.
         23    2    4    4    0    0  0.19450052282E+03  0.44610470689E+02  0.16953968377E+02  0.21987711331E+03  0.90763210849E+02 0.  0.
          3    1    3    3  502    0 -0.15723421791E+02 -0.29242090330E+02 -0.43842788623E+02  0.54995599406E+02  0.00000000000E+00 0. -1.
         -3    1    3    3    0  502 -0.11584524158E+02  0.35955127830E+02 -0.27410582019E+03  0.27669653609E+03  0.00000000000E+00 0.  1.
         13    1    5    5    0    0 -0.17570541946E+03 -0.35899323265E+02 -0.13611092783E+04  0.13728727629E+04  0.00000000000E+00 0. -1.
        -13    1    5    5    0    0  0.85128425937E+01 -0.15424184925E+02 -0.16404259560E+03  0.16498589983E+03  0.00000000000E+00 0.  1.
          1    1    6    6  503    0  0.12553094233E+03 -0.13713703550E+02 -0.68667975283E+01  0.12646436675E+03  0.00000000000E+00 0. -1.
         -1    1    6    6    0  503  0.68969580483E+02  0.58324174239E+02  0.23820765905E+02  0.93412746566E+02  0.00000000000E+00 0.  1.
<mgrwt>
<rscale>  0 0.10153314E+04</rscale>
<asrwt>0</asrwt>
<pdfrwt beam="1">  1        2 0.30119801E+00 0.10153314E+04</pdfrwt>
<pdfrwt beam="2">  1       -2 0.20252417E-01 0.10153314E+04</pdfrwt>
<totfact> 0.14751993E+02</totfact>
</mgrwt>
</event>
<event>
12    3  0.4688899E-008  0.2428862E+04  0.7818608E-02  0.8428777E-01
          2   -1    0    0  501    0  0.00000000000E+00  0.00000000000E+00  0.13578014098E+04  0.13578014098E+04  0.00000000000E+00 0. -1.
         -2   -1    0    0    0  501 -0.00000000000E+00 -0.00000000000E+00 -0.10861986677E+04  0.10861986677E+04  0.00000000000E+00 0.  1.
         23    2    1    2    0    0  0.17062803739E+03 -0.10146965965E+04  0.30338884379E+01  0.10330002238E+04  0.91417437056E+02 0.  0.
        254    2    1    2    0    0 -0.17062803739E+03  0.10146965965E+04  0.26856885362E+03  0.14109998537E+04  0.92739864573E+03 0.  0.
         23    2    4    4    0    0  0.33681003269E+03  0.35132695760E+03 -0.81337985456E+02  0.50114455423E+03  0.87512096882E+02 0.  0.
         23    2    4    4    0    0 -0.50743807008E+03  0.66336963888E+03  0.34990683908E+03  0.90985529952E+03  0.88595695604E+02 0.  0.
          1    1    3    3  502    0 -0.10307011610E+02 -0.28423354096E+02 -0.12129396563E+01  0.30258763508E+02  0.00000000000E+00 0. -1.
         -1    1    3    3    0  502  0.18093504900E+03 -0.98627324238E+03  0.42468280942E+01  0.10027414603E+04  0.00000000000E+00 0.  1.
         13    1    5    5    0    0  0.88560302808E+02  0.10248126972E+03 -0.62419667235E+02  0.14913602092E+03  0.00000000000E+00 0. -1.
        -13    1    5    5    0    0  0.24824972988E+03  0.24884568787E+03 -0.18918318222E+02  0.35200853331E+03  0.00000000000E+00 0.  1.
          4    1    6    6  503    0 -0.11507643720E+03  0.17193537309E+03  0.12648477812E+03  0.24249279993E+03  0.00000000000E+00 0. -1.
         -4    1    6    6    0  503 -0.39236163287E+03  0.49143426578E+03  0.22342206096E+03  0.66736249959E+03  0.00000000000E+00 0.  1.
<mgrwt>
<rscale>  0 0.24288615E+04</rscale>
<asrwt>0</asrwt>
<pdfrwt beam="1">  1        2 0.20889252E+00 0.24288615E+04</pdfrwt>
<pdfrwt beam="2">  1       -2 0.16710749E+00 0.24288615E+04</pdfrwt>
<totfact> 0.30690775E+00</totfact>
</mgrwt>
</event>
<event>
12    3  0.4688899E-008  0.1514358E+04  0.7818608E-02  0.8874961E-01
          1   -1    0    0  501    0  0.00000000000E+00  0.00000000000E+00  0.10673750177E+04  0.10673750177E+04  0.00000000000E+00 0. -1.
         -1   -1    0    0    0  501 -0.00000000000E+00 -0.00000000000E+00 -0.53713061909E+03  0.53713061909E+03  0.00000000000E+00 0.  1.
         23    2    1    2    0    0 -0.23244461351E+03  0.53927965515E+02 -0.28089782784E+03  0.37834782174E+03  0.85467892896E+02 0.  0.
        254    2    1    2    0    0  0.23244461351E+03 -0.53927965515E+02  0.81114222644E+03  0.12261578150E+04  0.88801607645E+03 0.  0.
         23    2    4    4    0    0 -0.11058178813E+03  0.33787135086E+03  0.20203390876E+03  0.41906197725E+03  0.91705282791E+02 0.  0.
         23    2    4    4    0    0  0.34302640164E+03 -0.39179931637E+03  0.60910831768E+03  0.80709583778E+03  0.96004854900E+02 0.  0.
          4    1    3    3  502    0 -0.48828991541E+02  0.13418699200E+02 -0.15246669060E+02  0.52884712541E+02  0.00000000000E+00 0. -1.
         -4    1    3    3    0  502 -0.18361562197E+03  0.40509266316E+02 -0.26565115878E+03  0.32546310920E+03  0.00000000000E+00 0.  1.
         13    1    5    5    0    0 -0.12694293505E+02  0.28788866843E+02 -0.83729753669E+01  0.32558419159E+02  0.00000000000E+00 0. -1.
        -13    1    5    5    0    0 -0.97887494622E+02  0.30908248401E+03  0.21040688413E+03  0.38650355809E+03  0.00000000000E+00 0.  1.
          2    1    6    6  503    0  0.22264229182E+03 -0.31751636774E+03  0.45746523791E+03  0.59971716482E+03  0.00000000000E+00 0.  1.
         -2    1    6    6    0  503  0.12038410982E+03 -0.74282948635E+02  0.15164307977E+03  0.20737867296E+03  0.00000000000E+00 0. -1.
<mgrwt>
<rscale>  0 0.15143577E+04</rscale>
<asrwt>0</asrwt>
<pdfrwt beam="1">  1        1 0.16421154E+00 0.15143577E+04</pdfrwt>
<pdfrwt beam="2">  1       -1 0.82635480E-01 0.15143577E+04</pdfrwt>
<totfact> 0.18875891E+01</totfact>
</mgrwt>
</event>
<event>
12    3  0.4688899E-008  0.1530602E+04  0.7818608E-02  0.8864354E-01
          1   -1    0    0  501    0  0.00000000000E+00  0.00000000000E+00  0.10386534544E+04  0.10386534544E+04  0.00000000000E+00 0. -1.
         -1   -1    0    0    0  501 -0.00000000000E+00 -0.00000000000E+00 -0.56388943317E+03  0.56388943317E+03  0.00000000000E+00 0.  1.
         23    2    1    2    0    0  0.10625276364E+03  0.45848290918E+03 -0.23952678607E+01  0.48031360997E+03  0.95912453933E+02 0.  0.
        254    2    1    2    0    0 -0.10625276364E+03 -0.45848290918E+03  0.47715928913E+03  0.11222292776E+04  0.90012295636E+03 0.  0.
         23    2    4    4    0    0  0.75559705085E+02  0.18184369369E+03 -0.97516034521E+02  0.23823569288E+03  0.92035158533E+02 0.  0.
         23    2    4    4    0    0 -0.18181246872E+03 -0.64032660287E+03  0.57467532365E+03  0.88399358475E+03  0.90105483382E+02 0.  0.
          3    1    3    3  502    0  0.23171104050E+02  0.21433467340E+03  0.39096985532E+02  0.21910003779E+03  0.00000000000E+00 0. -1.
         -3    1    3    3    0  502  0.83081659589E+02  0.24414823579E+03 -0.41492253393E+02  0.26121357218E+03  0.00000000000E+00 0.  1.
         13    1    5    5    0    0  0.74078696131E+02  0.19261905364E+03 -0.90902162676E+02  0.22550600042E+03  0.00000000000E+00 0.  1.
        -13    1    5    5    0    0  0.14810089531E+01 -0.10775359946E+02 -0.66138718447E+01  0.12729692465E+02  0.00000000000E+00 0. -1.
          3    1    6    6  503    0 -0.37337201664E+02 -0.28680637419E+03  0.22954268453E+03  0.36924491455E+03  0.00000000000E+00 0. -1.
         -3    1    6    6    0  503 -0.14447526706E+03 -0.35352022869E+03  0.34513263912E+03  0.51474867020E+03  0.00000000000E+00 0.  1.
<mgrwt>
<rscale>  0 0.15306021E+04</rscale>
<asrwt>0</asrwt>
<pdfrwt beam="1">  1        1 0.15979284E+00 0.15306021E+04</pdfrwt>
<pdfrwt beam="2">  1       -1 0.86752220E-01 0.15306021E+04</pdfrwt>
<totfact> 0.17847102E+01</totfact>
</mgrwt>
</event>
<event>
12    3  0.4688899E-008  0.1527993E+04  0.7818608E-02  0.8866048E-01
          2   -1    0    0  501    0  0.00000000000E+00  0.00000000000E+00  0.17084109215E+04  0.17084109215E+04  0.00000000000E+00 0. -1.
         -2   -1    0    0    0  501 -0.00000000000E+00 -0.00000000000E+00 -0.34165716644E+03  0.34165716644E+03  0.00000000000E+00 0.  1.
         23    2    1    2    0    0  0.15110399156E+03 -0.46942967265E+02 -0.17870496277E+03  0.25651078539E+03  0.93948181809E+02 0.  0.
        254    2    1    2    0    0 -0.15110399156E+03  0.46942967265E+02  0.15454587178E+04  0.17935573025E+04  0.89630859116E+03 0.  0.
         23    2    4    4    0    0 -0.20883169912E+03 -0.33822453856E+03  0.36526718868E+03  0.54735558782E+03  0.90396368006E+02 0.  0.
         23    2    4    4    0    0  0.57727707563E+02  0.38516750583E+03  0.11801915291E+04  0.12462017147E+04  0.92087852443E+02 0.  0.
          4    1    3    3  502    0  0.16373289024E+03 -0.41581221580E+02 -0.15577545559E+03  0.22979001261E+03  0.00000000000E+00 0. -1.
         -4    1    3    3    0  502 -0.12628898676E+02 -0.53617456851E+01 -0.22929507177E+02  0.26720772780E+02  0.00000000000E+00 0.  1.
         13    1    5    5    0    0 -0.26178122400E+02 -0.10403335605E+03  0.12944408653E+03  0.16811901975E+03  0.00000000000E+00 0. -1.
        -13    1    5    5    0    0 -0.18265357672E+03 -0.23419118251E+03  0.23582310215E+03  0.37923656807E+03  0.00000000000E+00 0.  1.
          4    1    6    6  503    0  0.20900242576E+02  0.21456493770E+03  0.78743209329E+03  0.81640935453E+03  0.00000000000E+00 0.  1.
         -4    1    6    6    0  503  0.36827464987E+02  0.17060256813E+03  0.39275943584E+03  0.42979236018E+03  0.00000000000E+00 0. -1.
<mgrwt>
<rscale>  0 0.15279932E+04</rscale>
<asrwt>0</asrwt>
<pdfrwt beam="1">  1        2 0.26283244E+00 0.15279932E+04</pdfrwt>
<pdfrwt beam="2">  1       -2 0.52562642E-01 0.15279932E+04</pdfrwt>
<totfact> 0.31941908E+01</totfact>
</mgrwt>
</event>
<event>
12    3  0.4688899E-008  0.1832065E+04  0.7818608E-02  0.8689431E-01
         -1   -1    0    0    0  501 -0.00000000000E+00  0.00000000000E+00  0.21304104455E+04  0.21304104455E+04  0.00000000000E+00 0.  1.
          1   -1    0    0  501    0  0.00000000000E+00 -0.00000000000E+00 -0.39387517527E+03  0.39387517527E+03  0.00000000000E+00 0. -1.
         23    2    1    2    0    0  0.30165316564E+03 -0.37662352537E+03  0.13439078425E+04  0.14304810572E+04  0.85719622656E+02 0.  0.
        254    2    1    2    0    0 -0.30165316564E+03  0.37662352537E+03  0.39262742778E+03  0.10938045636E+04  0.89967339301E+03 0.  0.
         23    2    4    4    0    0  0.17618777066E+03  0.14525344479E+03 -0.18052624519E+03  0.30745618380E+03  0.98989322665E+02 0.  0.
         23    2    4    4    0    0 -0.47784093630E+03  0.23137008058E+03  0.57315367297E+03  0.78634837979E+03  0.89300430944E+02 0.  0.
          4    1    3    3  502    0  0.29542805300E+01 -0.69908384755E+01  0.35726087663E+01  0.83882733288E+01  0.00000000000E+00 0. -1.
         -4    1    3    3    0  502  0.29869888511E+03 -0.36963268690E+03  0.13403352337E+04  0.14220927839E+04  0.00000000000E+00 0.  1.
         13    1    5    5    0    0  0.67062848556E+02  0.10102823637E+03 -0.48628096369E+02  0.13064770169E+03  0.00000000000E+00 0. -1.
        -13    1    5    5    0    0  0.10912492211E+03  0.44225208423E+02 -0.13189814882E+03  0.17680848211E+03  0.00000000000E+00 0.  1.
          3    1    6    6  503    0 -0.47597925376E+03  0.23110979816E+03  0.57650079319E+03  0.78250952286E+03  0.00000000000E+00 0.  1.
         -3    1    6    6    0  503 -0.18616825395E+01  0.26028242172E+00 -0.33471202163E+01  0.38388569339E+01  0.00000000000E+00 0. -1.
<mgrwt>
<rscale>  0 0.18320653E+04</rscale>
<asrwt>0</asrwt>
<pdfrwt beam="1">  1        1 0.60596182E-01 0.18320653E+04</pdfrwt>
<pdfrwt beam="2">  1       -1 0.32775545E+00 0.18320653E+04</pdfrwt>
<totfact> 0.12572741E+00</totfact>
</mgrwt>
</event>
<event>
12    3  0.4688899E-008  0.1900386E+04  0.7818608E-02  0.8654664E-01
          2   -1    0    0  501    0  0.00000000000E+00  0.00000000000E+00  0.10525768699E+04  0.10525768699E+04  0.00000000000E+00 0. -1.
         -2   -1    0    0    0  501 -0.00000000000E+00 -0.00000000000E+00 -0.85776813572E+03  0.85776813572E+03  0.00000000000E+00 0.  1.
         23    2    1    2    0    0  0.52883368164E+03  0.23480164656E+03 -0.37817736532E+03  0.69805147968E+03  0.97267016901E+02 0.  0.
        254    2    1    2    0    0 -0.52883368164E+03 -0.23480164656E+03  0.57298609951E+03  0.12122935260E+04  0.89807886445E+03 0.  0.
         23    2    4    4    0    0 -0.96282482356E+01  0.12851654578E+03 -0.16962083697E+03  0.23141597899E+03  0.90404210585E+02 0.  0.
         23    2    4    4    0    0 -0.51920543341E+03 -0.36331819234E+03  0.74260693648E+03  0.98087754696E+03  0.95295902692E+02 0.  0.
          2    1    3    3  502    0  0.74503173824E+02  0.71061704707E+02 -0.81036446589E+02  0.13102440407E+03  0.00000000000E+00 0. -1.
         -2    1    3    3    0  502  0.45433050782E+03  0.16373994185E+03 -0.29714091873E+03  0.56702707561E+03  0.00000000000E+00 0.  1.
         13    1    5    5    0    0  0.22915796020E+02  0.21410843427E+01 -0.47066118327E+02  0.52392150593E+02  0.00000000000E+00 0.  1.
        -13    1    5    5    0    0 -0.32544044256E+02  0.12637546144E+03 -0.12255471864E+03  0.17902382839E+03  0.00000000000E+00 0. -1.
          4    1    6    6  503    0 -0.15792177471E+02  0.55172275938E+01  0.18027513779E+02  0.24593168211E+02  0.00000000000E+00 0.  1.
         -4    1    6    6    0  503 -0.50341325594E+03 -0.36883541993E+03  0.72457942270E+03  0.95628437875E+03  0.00000000000E+00 0. -1.
<mgrwt>
<rscale>  0 0.19003862E+04</rscale>
<asrwt>0</asrwt>
<pdfrwt beam="1">  1        2 0.16193490E+00 0.19003862E+04</pdfrwt>
<pdfrwt beam="2">  1       -2 0.13196433E+00 0.19003862E+04</pdfrwt>
<totfact> 0.91315423E+00</totfact>
</mgrwt>
</event>
<event>
12    3  0.4688899E-008  0.2153912E+04  0.7818608E-02  0.8537859E-01
          2   -1    0    0  501    0  0.00000000000E+00  0.00000000000E+00  0.88810372609E+03  0.88810372609E+03  0.00000000000E+00 0. -1.
         -2   -1    0    0    0  501 -0.00000000000E+00 -0.00000000000E+00 -0.13059674439E+04  0.13059674439E+04  0.00000000000E+00 0.  1.
         23    2    1    2    0    0 -0.13389905337E+03 -0.57572812540E+03  0.49910372475E+03  0.77896529898E+03  0.91052611681E+02 0.  0.
        254    2    1    2    0    0  0.13389905337E+03  0.57572812540E+03 -0.91696744251E+03  0.14151058710E+04  0.90127881619E+03 0.  0.
         23    2    4    4    0    0  0.35494435243E+03  0.70730085017E+03 -0.60239670830E+03  0.99888348619E+03  0.92878624258E+02 0.  0.
         23    2    4    4    0    0 -0.22104529906E+03 -0.13157272477E+03 -0.31457073421E+03  0.41622238477E+03  0.90077303562E+02 0.  0.
          3    1    3    3  502    0 -0.12655401999E+03 -0.55862183367E+03  0.50002160679E+03  0.76032616704E+03  0.00000000000E+00 0. -1.
         -3    1    3    3    0  502 -0.73450333741E+01 -0.17106291734E+02 -0.91788204626E+00  0.18639131943E+02  0.00000000000E+00 0.  1.
         13    1    5    5    0    0  0.21869933132E+03  0.50713891612E+03 -0.45362805154E+03  0.71470111718E+03  0.00000000000E+00 0. -1.
        -13    1    5    5    0    0  0.13624502111E+03  0.20016193405E+03 -0.14876865676E+03  0.28418236901E+03  0.00000000000E+00 0.  1.
          1    1    6    6  503    0 -0.22102944325E+03 -0.14054492238E+03 -0.29385195539E+03  0.39364433398E+03  0.00000000000E+00 0. -1.
         -1    1    6    6    0  503 -0.15855815013E-01  0.89721976111E+01 -0.20718778821E+02  0.22578050784E+02  0.00000000000E+00 0.  1.
<mgrwt>
<rscale>  0 0.21539123E+04</rscale>
<asrwt>0</asrwt>
<pdfrwt beam="1">  1        2 0.13663134E+00 0.21539123E+04</pdfrwt>
<pdfrwt beam="2">  1       -2 0.20091807E+00 0.21539123E+04</pdfrwt>
<totfact> 0.35937413E+00</totfact>
</mgrwt>
</event>
<event>
12    3  0.4688899E-008  0.1740191E+04  0.7818608E-02  0.8738768E-01
          2   -1    0    0  501    0  0.00000000000E+00  0.00000000000E+00  0.37257125358E+04  0.37257125358E+04  0.00000000000E+00 0. -1.
         -2   -1    0    0    0  501 -0.00000000000E+00 -0.00000000000E+00 -0.20320048545E+03  0.20320048545E+03  0.00000000000E+00 0.  1.
         23    2    1    2    0    0 -0.41444976793E+03  0.74883530961E+02  0.22589920317E+03  0.48619183186E+03  0.89307860957E+02 0.  0.
        254    2    1    2    0    0  0.41444976793E+03 -0.74883530961E+02  0.32966128472E+04  0.34427211894E+04  0.89849695067E+03 0.  0.
         23    2    4    4    0    0  0.16046629776E+03 -0.47575604307E+03  0.16982511549E+04  0.17732037353E+04  0.90006981576E+02 0.  0.
         23    2    4    4    0    0  0.25398347016E+03  0.40087251211E+03  0.15983616923E+04  0.16695174540E+04  0.85569012521E+02 0.  0.
          3    1    3    3  502    0 -0.16066524500E+03  0.60508535910E+02  0.12651731167E+03  0.21326329741E+03  0.00000000000E+00 0. -1.
         -3    1    3    3    0  502 -0.25378452292E+03  0.14374995051E+02  0.99381891504E+02  0.27292853445E+03  0.00000000000E+00 0.  1.
         13    1    5    5    0    0  0.16064281120E+03 -0.43870713711E+03  0.14849922526E+04  0.15567504795E+04  0.00000000000E+00 0.  1.
        -13    1    5    5    0    0 -0.17651343520E+00 -0.37048905960E+02  0.21325890224E+03  0.21645325587E+03  0.00000000000E+00 0. -1.
          4    1    6    6  503    0  0.13526606928E+02  0.12943388803E+01  0.80209833827E+02  0.81352700328E+02  0.00000000000E+00 0. -1.
         -4    1    6    6    0  503  0.24045686323E+03  0.39957817323E+03  0.15181518585E+04  0.15881647537E+04  0.00000000000E+00 0.  1.
<mgrwt>
<rscale>  0 0.17401915E+04</rscale>
<asrwt>0</asrwt>
<pdfrwt beam="1">  1        2 0.57318649E+00 0.17401915E+04</pdfrwt>
<pdfrwt beam="2">  1       -2 0.31261616E-01 0.17401915E+04</pdfrwt>
<totfact> 0.50910681E+00</totfact>
</mgrwt>
</event>
<event>
12    3  0.4688899E-008  0.1933136E+04  0.7818608E-02  0.8638536E-01
         -1   -1    0    0    0  501 -0.00000000000E+00  0.00000000000E+00  0.56714636796E+03  0.56714636796E+03  0.00000000000E+00 0.  1.
          1   -1    0    0  501    0  0.00000000000E+00 -0.00000000000E+00 -0.16472889054E+04  0.16472889054E+04  0.00000000000E+00 0. -1.
         23    2    1    2    0    0 -0.67175334157E+03  0.32560483811E+03 -0.31302232286E+03  0.81511494348E+03  0.95699184835E+02 0.  0.
        254    2    1    2    0    0  0.67175334157E+03 -0.32560483811E+03 -0.76712021461E+03  0.13993203299E+04  0.90130621850E+03 0.  0.
         23    2    4    4    0    0  0.88122965499E+03 -0.28280049524E+03 -0.67063099877E+03  0.11464972270E+04  0.90377707985E+02 0.  0.
         23    2    4    4    0    0 -0.20947631342E+03 -0.42804342862E+02 -0.96489215841E+02  0.25282310289E+03  0.94322928959E+02 0.  0.
          1    1    3    3  502    0 -0.58110010634E+03  0.28078309019E+03 -0.23299034890E+03  0.68614938607E+03  0.00000000000E+00 0. -1.
         -1    1    3    3    0  502 -0.90653235231E+02  0.44821747918E+02 -0.80031973957E+02  0.12896555742E+03  0.00000000000E+00 0.  1.
         13    1    5    5    0    0  0.73330206083E+03 -0.25018217764E+03 -0.59666476746E+03  0.97792222552E+03  0.00000000000E+00 0.  1.
        -13    1    5    5    0    0  0.14792759416E+03 -0.32618317599E+02 -0.73966231310E+02  0.16857500150E+03  0.00000000000E+00 0. -1.
          4    1    6    6  503    0 -0.74797937967E+02  0.65188386387E+01  0.78054212891E+01  0.75486100593E+02  0.00000000000E+00 0.  1.
         -4    1    6    6    0  503 -0.13467837545E+03 -0.49323181501E+02 -0.10429463713E+03  0.17733700229E+03  0.00000000000E+00 0. -1.
<mgrwt>
<rscale>  0 0.19331362E+04</rscale>
<asrwt>0</asrwt>
<pdfrwt beam="1">  1        1 0.25342906E+00 0.19331362E+04</pdfrwt>
<pdfrwt beam="2">  1       -1 0.87253287E-01 0.19331362E+04</pdfrwt>
<totfact> 0.62472465E+00</totfact>
</mgrwt>
</event>
<event>
12    3  0.4688899E-008  0.2144214E+04  0.7818608E-02  0.8542013E-01
         -1   -1    0    0    0  501 -0.00000000000E+00  0.00000000000E+00  0.62519371866E+03  0.62519371866E+03  0.00000000000E+00 0.  1.
          1   -1    0    0  501    0  0.00000000000E+00 -0.00000000000E+00 -0.18384912766E+04  0.18384912766E+04  0.00000000000E+00 0. -1.
         23    2    1    2    0    0 -0.26930897453E+03 -0.18102049306E+03  0.44012293335E+03  0.55424105598E+03  0.90438979421E+02 0.  0.
        254    2    1    2    0    0  0.26930897453E+03  0.18102049306E+03 -0.16534204913E+04  0.19094439393E+04  0.89826560301E+03 0.  0.
         23    2    4    4    0    0 -0.28140988067E+03  0.16553127159E+03 -0.95989528479E+03  0.10184265517E+04  0.95924765505E+02 0.  0.
         23    2    4    4    0    0  0.55071885521E+03  0.15489221467E+02 -0.69352520650E+03  0.89101738757E+03  0.96972158094E+02 0.  0.
          2    1    3    3  502    0 -0.14356857708E+03 -0.91551645311E+02  0.15609511296E+03  0.23099637308E+03  0.00000000000E+00 0. -1.
         -2    1    3    3    0  502 -0.12574039746E+03 -0.89468847748E+02  0.28402782039E+03  0.32324468290E+03  0.00000000000E+00 0.  1.
         13    1    5    5    0    0 -0.20911164593E+02  0.45935741663E+02 -0.19990070725E+03  0.20617386334E+03  0.00000000000E+00 0.  1.
        -13    1    5    5    0    0 -0.26049871608E+03  0.11959552993E+03 -0.75999457754E+03  0.81225268836E+03  0.00000000000E+00 0. -1.
          4    1    6    6  503    0  0.27938550635E+03  0.47662970565E+02 -0.39715610683E+03  0.48791494455E+03  0.00000000000E+00 0. -1.
         -4    1    6    6    0  503  0.27133334886E+03 -0.32173749098E+02 -0.29636909967E+03  0.40310244303E+03  0.00000000000E+00 0.  1.
<mgrwt>
<rscale>  0 0.21442138E+04</rscale>
<asrwt>0</asrwt>
<pdfrwt beam="1">  1        1 0.28284481E+00 0.21442138E+04</pdfrwt>
<pdfrwt beam="2">  1       -1 0.96183650E-01 0.21442138E+04</pdfrwt>
<totfact> 0.36588257E+00</totfact>
</mgrwt>
</event>
<event>
12    3  0.4688899E-008  0.1876580E+04  0.7818608E-02  0.8666603E-01
         -2   -1    0    0    0  501 -0.00000000000E+00  0.00000000000E+00  0.50443497437E+03  0.50443497437E+03  0.00000000000E+00 0.  1.
          2   -1    0    0  501    0  0.00000000000E+00 -0.00000000000E+00 -0.17452954269E+04  0.17452954269E+04  0.00000000000E+00 0. -1.
         23    2    1    2    0    0  0.62804574704E+03  0.32883591090E+03 -0.33719275979E+03  0.79040199072E+03  0.91988222150E+02 0.  0.
        254    2    1    2    0    0 -0.62804574704E+03 -0.32883591090E+03 -0.90366769276E+03  0.14593284106E+04  0.90024973996E+03 0.  0.
         23    2    4    4    0    0 -0.16130337209E+03 -0.15411610435E+03  0.15324296214E+03  0.28724181870E+03  0.96197221867E+02 0.  0.
         23    2    4    4    0    0 -0.46674237494E+03 -0.17471980655E+03 -0.10569106549E+04  0.11720865919E+04  0.91385945534E+02 0.  0.
          1    1    3    3  502    0  0.79564881009E+02  0.76177144883E+02 -0.66130576712E+02  0.12847871757E+03  0.00000000000E+00 0. -1.
         -1    1    3    3    0  502  0.54848086603E+03  0.25265876602E+03 -0.27106218308E+03  0.66192327315E+03  0.00000000000E+00 0.  1.
         13    1    5    5    0    0 -0.71203771498E+01  0.99876056584E+01 -0.36540185974E+01  0.12798589354E+02  0.00000000000E+00 0. -1.
        -13    1    5    5    0    0 -0.15418299494E+03 -0.16410371001E+03  0.15689698074E+03  0.27444322935E+03  0.00000000000E+00 0.  1.
          4    1    6    6  503    0 -0.24046989373E+03 -0.12282431886E+03 -0.48977564079E+03  0.55927789283E+03  0.00000000000E+00 0. -1.
         -4    1    6    6    0  503 -0.22627248121E+03 -0.51895487686E+02 -0.56713501412E+03  0.61280869905E+03  0.00000000000E+00 0.  1.
<mgrwt>
<rscale>  0 0.18765799E+04</rscale>
<asrwt>0</asrwt>
<pdfrwt beam="1">  1        2 0.26850699E+00 0.18765799E+04</pdfrwt>
<pdfrwt beam="2">  1       -2 0.77605380E-01 0.18765799E+04</pdfrwt>
<totfact> 0.12848819E+01</totfact>
</mgrwt>
</event>
<event>
12    3  0.4688899E-008  0.2243130E+04  0.7818608E-02  0.8500688E-01
          2   -1    0    0  501    0  0.00000000000E+00  0.00000000000E+00  0.19325117417E+04  0.19325117417E+04  0.00000000000E+00 0.  1.
         -2   -1    0    0    0  501 -0.00000000000E+00 -0.00000000000E+00 -0.65091897345E+03  0.65091897345E+03  0.00000000000E+00 0. -1.
         23    2    1    2    0    0  0.75812348674E+03 -0.41037988929E+02 -0.85023845631E+02  0.77013989926E+03  0.97216626327E+02 0.  0.
        254    2    1    2    0    0 -0.75812348674E+03  0.41037988929E+02  0.13666166138E+04  0.18132908159E+04  0.91866603068E+03 0.  0.
         23    2    4    4    0    0 -0.18083692051E+03 -0.39775871182E+03  0.65904272878E+03  0.79612315650E+03  0.92524468718E+02 0.  0.
         23    2    4    4    0    0 -0.57728656622E+03  0.43879670075E+03  0.70757388507E+03  0.10171676594E+04  0.90371014567E+02 0.  0.
          2    1    3    3  502    0  0.32912013422E+03  0.14209389567E+02 -0.57559948586E+00  0.32942723144E+03  0.00000000000E+00 0. -1.
         -2    1    3    3    0  502  0.42900335252E+03 -0.55247378496E+02 -0.84448246145E+02  0.44071266782E+03  0.00000000000E+00 0.  1.
         13    1    5    5    0    0 -0.11234623499E+03 -0.27549589989E+03  0.51756798116E+03  0.59698934873E+03  0.00000000000E+00 0.  1.
        -13    1    5    5    0    0 -0.68490685522E+02 -0.12226281193E+03  0.14147474762E+03  0.19913380777E+03  0.00000000000E+00 0. -1.
          3    1    6    6  503    0 -0.89137559578E+02  0.63337393209E+02  0.15549572416E+03  0.19009484511E+03  0.00000000000E+00 0. -1.
         -3    1    6    6    0  503 -0.48814900664E+03  0.37545930754E+03  0.55207816092E+03  0.82707281425E+03  0.00000000000E+00 0.  1.
<mgrwt>
<rscale>  0 0.22431305E+04</rscale>
<asrwt>0</asrwt>
<pdfrwt beam="1">  1        2 0.29730950E+00 0.22431305E+04</pdfrwt>
<pdfrwt beam="2">  1       -2 0.10014138E+00 0.22431305E+04</pdfrwt>
<totfact> 0.54617108E+00</totfact>
</mgrwt>
</event>
<event>
12    3  0.4688899E-008  0.1726030E+04  0.7818608E-02  0.8746656E-01
         -1   -1    0    0    0  501 -0.00000000000E+00  0.00000000000E+00  0.89192880935E+03  0.89192880935E+03  0.00000000000E+00 0.  1.
          1   -1    0    0  501    0  0.00000000000E+00 -0.00000000000E+00 -0.83503824447E+03  0.83503824447E+03  0.00000000000E+00 0. -1.
         23    2    1    2    0    0  0.24389764064E+03 -0.24485638537E+03  0.54449767808E+03  0.65125133191E+03  0.90608318082E+02 0.  0.
        254    2    1    2    0    0 -0.24389764064E+03  0.24485638537E+03 -0.48760711320E+03  0.10757157219E+04  0.89440645624E+03 0.  0.
         23    2    4    4    0    0 -0.54307394937E+03  0.31604762024E+03 -0.37767065877E+03  0.73910977903E+03  0.93982584658E+02 0.  0.
         23    2    4    4    0    0  0.29917630873E+03 -0.71191234866E+02 -0.10993645443E+03  0.33660594289E+03  0.81503871954E+02 0.  0.
          3    1    3    3  502    0  0.19128225987E+02  0.63216799212E+01  0.33847593546E+02  0.39389240349E+02  0.00000000000E+00 0. -1.
         -3    1    3    3    0  502  0.22476941465E+03 -0.25117806529E+03  0.51065008454E+03  0.61186209156E+03  0.00000000000E+00 0.  1.
         13    1    5    5    0    0 -0.12175611952E+03  0.28047071969E+02 -0.70900784141E+02  0.14365970930E+03  0.00000000000E+00 0. -1.
        -13    1    5    5    0    0 -0.42131782986E+03  0.28800054827E+03 -0.30676987463E+03  0.59545006973E+03  0.00000000000E+00 0.  1.
          3    1    6    6  503    0  0.88077495577E+02 -0.21390324339E+02 -0.73455403908E+02  0.11666570861E+03  0.00000000000E+00 0. -1.
         -3    1    6    6    0  503  0.21109881316E+03 -0.49800910526E+02 -0.36481050525E+02  0.21994023427E+03  0.00000000000E+00 0.  1.
<mgrwt>
<rscale>  0 0.17260297E+04</rscale>
<asrwt>0</asrwt>
<pdfrwt beam="1">  1        1 0.12846742E+00 0.17260297E+04</pdfrwt>
<pdfrwt beam="2">  1       -1 0.13721982E+00 0.17260297E+04</pdfrwt>
<totfact> 0.86499161E+00</totfact>
</mgrwt>
</event>
<event>
12    3  0.4688899E-008  0.1092811E+04  0.7818608E-02  0.9212227E-01
         -2   -1    0    0    0  501 -0.00000000000E+00  0.00000000000E+00  0.31961848848E+03  0.31961848848E+03  0.00000000000E+00 0.  1.
          2   -1    0    0  501    0  0.00000000000E+00 -0.00000000000E+00 -0.93411027188E+03  0.93411027188E+03  0.00000000000E+00 0. -1.
         23    2    1    2    0    0  0.12479895391E+03 -0.56967613304E+02 -0.18045336794E+03  0.24507643529E+03  0.93160899914E+02 0.  0.
        254    2    1    2    0    0 -0.12479895391E+03  0.56967613304E+02 -0.43403841547E+03  0.10086523251E+04  0.90009448331E+03 0.  0.
         23    2    4    4    0    0  0.12958011350E+03 -0.36978877937E+03 -0.22981114691E+03  0.46382014436E+03  0.93708142127E+02 0.  0.
         23    2    4    4    0    0 -0.25437906741E+03  0.42675639268E+03 -0.20422726855E+03  0.54483218071E+03  0.91124087307E+02 0.  0.
          1    1    3    3  502    0  0.33345086638E+02 -0.24801537593E+02 -0.12857186233E+03  0.13512118581E+03  0.00000000000E+00 0. -1.
         -1    1    3    3    0  502  0.91453867272E+02 -0.32166075712E+02 -0.51881505605E+02  0.10995524949E+03  0.00000000000E+00 0.  1.
         13    1    5    5    0    0  0.58778764873E+02 -0.56859634435E+02 -0.39988564183E+02  0.91033216430E+02  0.00000000000E+00 0. -1.
        -13    1    5    5    0    0  0.70801348625E+02 -0.31292914494E+03 -0.18982258273E+03  0.37278692793E+03  0.00000000000E+00 0.  1.
          3    1    6    6  503    0 -0.12400452972E+03  0.19374966904E+03 -0.14313415204E+03  0.27093069801E+03  0.00000000000E+00 0. -1.
         -3    1    6    6    0  503 -0.13037453769E+03  0.23300672364E+03 -0.61093116510E+02  0.27390148270E+03  0.00000000000E+00 0.  1.
<mgrwt>
<rscale>  0 0.10928109E+04</rscale>
<asrwt>0</asrwt>
<pdfrwt beam="1">  1        2 0.14370927E+00 0.10928109E+04</pdfrwt>
<pdfrwt beam="2">  1       -2 0.49172075E-01 0.10928109E+04</pdfrwt>
<totfact> 0.10815706E+02</totfact>
</mgrwt>
</event>
<event>
12    3  0.4688899E-008  0.1754914E+04  0.7818608E-02  0.8730650E-01
         -2   -1    0    0    0  501 -0.00000000000E+00  0.00000000000E+00  0.65895462913E+03  0.65895462913E+03  0.00000000000E+00 0.  1.
          2   -1    0    0  501    0  0.00000000000E+00 -0.00000000000E+00 -0.11684128430E+04  0.11684128430E+04  0.00000000000E+00 0. -1.
         23    2    1    2    0    0  0.14592892508E+03  0.59158117026E+03 -0.38519443423E+03  0.72647095944E+03  0.90120866386E+02 0.  0.
        254    2    1    2    0    0 -0.14592892508E+03 -0.59158117026E+03 -0.12426377963E+03  0.11008965127E+04  0.90844268534E+03 0.  0.
         23    2    4    4    0    0 -0.35688870188E+03 -0.23105092035E+03 -0.40066757925E+03  0.59098661744E+03  0.89311811146E+02 0.  0.
         23    2    4    4    0    0  0.21095977680E+03 -0.36053024991E+03  0.27640379961E+03  0.50990989525E+03  0.95514147155E+02 0.  0.
          1    1    3    3  502    0  0.84695292695E+02  0.44860435621E+03 -0.25062617738E+03  0.52080000173E+03  0.00000000000E+00 0. -1.
         -1    1    3    3    0  502  0.61233632385E+02  0.14297681405E+03 -0.13456825685E+03  0.20567095770E+03  0.00000000000E+00 0.  1.
         13    1    5    5    0    0 -0.33064680982E+03 -0.18100403435E+03 -0.36112246514E+03  0.52201456696E+03  0.00000000000E+00 0. -1.
        -13    1    5    5    0    0 -0.26241892067E+02 -0.50046886002E+02 -0.39545114107E+02  0.68972050481E+02  0.00000000000E+00 0.  1.
          2    1    6    6  503    0  0.16322080951E+03 -0.24563856123E+03  0.14391884892E+03  0.32816454789E+03  0.00000000000E+00 0. -1.
         -2    1    6    6    0  503  0.47738967294E+02 -0.11489168868E+03  0.13248495070E+03  0.18174534736E+03  0.00000000000E+00 0.  1.
<mgrwt>
<rscale>  0 0.17549143E+04</rscale>
<asrwt>0</asrwt>
<pdfrwt beam="1">  1        2 0.17975582E+00 0.17549143E+04</pdfrwt>
<pdfrwt beam="2">  1       -2 0.10137764E+00 0.17549143E+04</pdfrwt>
<totfact> 0.14992204E+01</totfact>
</mgrwt>
</event>
<event>
12    3  0.4688899E-008  0.1060675E+04  0.7818608E-02  0.9244392E-01
          2   -1    0    0  501    0  0.00000000000E+00  0.00000000000E+00  0.26098915462E+04  0.26098915462E+04  0.00000000000E+00 0. -1.
         -2   -1    0    0    0  501 -0.00000000000E+00 -0.00000000000E+00 -0.10776606888E+03  0.10776606888E+03  0.00000000000E+00 0.  1.
         23    2    1    2    0    0 -0.31100703706E+02  0.12284514956E+03  0.31795605634E+03  0.35400864407E+03  0.90376334125E+02 0.  0.
        254    2    1    2    0    0  0.31100703706E+02 -0.12284514956E+03  0.21841694210E+04  0.23636489710E+04  0.89452904598E+03 0.  0.
         23    2    4    4    0    0  0.59218990413E+02 -0.10957104560E+03 -0.21192660382E+02  0.15613701153E+03  0.91743853514E+02 0.  0.
         23    2    4    4    0    0 -0.28118286707E+02 -0.13274103962E+02  0.22053620814E+04  0.22075119595E+04  0.92305479063E+02 0.  0.
          2    1    3    3  502    0 -0.48375301400E+02  0.10778143139E+03  0.30630291054E+03  0.32829632916E+03  0.00000000000E+00 0. -1.
         -2    1    3    3    0  502  0.17274597695E+02  0.15063718172E+02  0.11653145802E+02  0.25712314905E+02  0.00000000000E+00 0.  1.
         13    1    5    5    0    0  0.77578676970E+02 -0.74067027274E+02 -0.36554585984E+02  0.11331643043E+03  0.00000000000E+00 0. -1.
        -13    1    5    5    0    0 -0.18359686557E+02 -0.35504018323E+02  0.15361925602E+02  0.42820581100E+02  0.00000000000E+00 0.  1.
          2    1    6    6  503    0  0.26449611869E+02  0.13049153437E+02  0.37923333896E+03  0.38037847961E+03  0.00000000000E+00 0.  1.
         -2    1    6    6    0  503 -0.54567898577E+02 -0.26323257398E+02  0.18261287424E+04  0.18271334799E+04  0.00000000000E+00 0. -1.
<mgrwt>
<rscale>  0 0.10606748E+04</rscale>
<asrwt>0</asrwt>
<pdfrwt beam="1">  1        2 0.40152173E+00 0.10606748E+04</pdfrwt>
<pdfrwt beam="2">  1       -2 0.16579397E-01 0.10606748E+04</pdfrwt>
<totfact> 0.89540306E+01</totfact>
</mgrwt>
</event>
<event>
12    3  0.4688899E-008  0.1687779E+04  0.7818608E-02  0.8768365E-01
          2   -1    0    0  501    0  0.00000000000E+00  0.00000000000E+00  0.18589901515E+04  0.18589901515E+04  0.00000000000E+00 0. -1.
         -2   -1    0    0    0  501 -0.00000000000E+00 -0.00000000000E+00 -0.38308419094E+03  0.38308419094E+03  0.00000000000E+00 0.  1.
         23    2    1    2    0    0  0.77062702447E+02 -0.56044389856E+03  0.77950134937E+03  0.96788765598E+03  0.95645895830E+02 0.  0.
        254    2    1    2    0    0 -0.77062702447E+02  0.56044389856E+03  0.69640461118E+03  0.12741866864E+04  0.90472996297E+03 0.  0.
         23    2    4    4    0    0  0.11421342964E+03  0.64937633892E+03  0.15197824934E+03  0.68284704144E+03  0.91914942627E+02 0.  0.
         23    2    4    4    0    0 -0.19127613208E+03 -0.88932440360E+02  0.54442636185E+03  0.59133964500E+03  0.93738864000E+02 0.  0.
          2    1    3    3  502    0  0.79684898801E+02 -0.34362635235E+03  0.53797354355E+03  0.64330730346E+03  0.00000000000E+00 0. -1.
         -2    1    3    3    0  502 -0.26221963547E+01 -0.21681754620E+03  0.24152780582E+03  0.32458035252E+03  0.00000000000E+00 0.  1.
         13    1    5    5    0    0  0.27961686803E+02  0.38656916691E+03  0.65730666247E+02  0.39311333890E+03  0.00000000000E+00 0. -1.
        -13    1    5    5    0    0  0.86251742834E+02  0.26280717201E+03  0.86247583088E+02  0.28973370254E+03  0.00000000000E+00 0.  1.
          3    1    6    6  503    0 -0.14657460018E+03 -0.68982725134E+02  0.49870842332E+03  0.52435943901E+03  0.00000000000E+00 0. -1.
         -3    1    6    6    0  503 -0.44701531901E+02 -0.19949715226E+02  0.45717938525E+02  0.66980205994E+02  0.00000000000E+00 0.  1.
<mgrwt>
<rscale>  0 0.16877793E+04</rscale>
<asrwt>0</asrwt>
<pdfrwt beam="1">  1        2 0.28599848E+00 0.16877793E+04</pdfrwt>
<pdfrwt beam="2">  1       -2 0.58936030E-01 0.16877793E+04</pdfrwt>
<totfact> 0.20499457E+01</totfact>
</mgrwt>
</event>
<event>
12    3  0.4688899E-008  0.2116057E+04  0.7818608E-02  0.8554203E-01
         -2   -1    0    0    0  501 -0.00000000000E+00  0.00000000000E+00  0.18820210341E+04  0.18820210341E+04  0.00000000000E+00 0.  1.
          2   -1    0    0  501    0  0.00000000000E+00 -0.00000000000E+00 -0.59479894865E+03  0.59479894865E+03  0.00000000000E+00 0. -1.
         23    2    1    2    0    0  0.81780736771E+02 -0.76099025837E+03  0.62548312965E+02  0.77331186463E+03  0.91130051398E+02 0.  0.
        254    2    1    2    0    0 -0.81780736771E+02  0.76099025837E+03  0.12246737725E+04  0.17035081181E+04  0.90350417666E+03 0.  0.
         23    2    4    4    0    0 -0.23575374290E+03  0.38170762972E+02  0.81311056334E+03  0.85234980325E+03  0.91184233605E+02 0.  0.
         23    2    4    4    0    0  0.15397300613E+03  0.72281949540E+03  0.41156320915E+03  0.85115831487E+03  0.94395404011E+02 0.  0.
          4    1    3    3  502    0  0.39693727006E+02 -0.10208583043E+03 -0.48151043884E+01  0.10963710124E+03  0.00000000000E+00 0.  1.
         -4    1    3    3    0  502  0.42087009766E+02 -0.65890442795E+03  0.67363417354E+02  0.66367476339E+03  0.00000000000E+00 0. -1.
         13    1    5    5    0    0 -0.14338879331E+03  0.45807651989E+02  0.36620542766E+03  0.39593572998E+03  0.00000000000E+00 0. -1.
        -13    1    5    5    0    0 -0.92364949591E+02 -0.76368890169E+01  0.44690513568E+03  0.45641407328E+03  0.00000000000E+00 0.  1.
          2    1    6    6  503    0  0.31795124146E+02  0.13584796761E+03  0.12202988845E+03  0.18535612722E+03  0.00000000000E+00 0. -1.
         -2    1    6    6    0  503  0.12217788198E+03  0.58697152780E+03  0.28953332070E+03  0.66580218765E+03  0.00000000000E+00 0.  1.
<mgrwt>
<rscale>  0 0.21160568E+04</rscale>
<asrwt>0</asrwt>
<pdfrwt beam="1">  1        2 0.91507531E-01 0.21160568E+04</pdfrwt>
<pdfrwt beam="2">  1       -2 0.28954169E+00 0.21160568E+04</pdfrwt>
<totfact> 0.16996407E+00</totfact>
</mgrwt>
</event>
<event>
12    3  0.4688899E-008  0.1871764E+04  0.7818608E-02  0.8669040E-01
          2   -1    0    0  501    0  0.00000000000E+00  0.00000000000E+00  0.90480597862E+03  0.90480597862E+03  0.00000000000E+00 0. -1.
         -2   -1    0    0    0  501 -0.00000000000E+00 -0.00000000000E+00 -0.96802545920E+03  0.96802545920E+03  0.00000000000E+00 0.  1.
         23    2    1    2    0    0  0.32534949823E+03  0.55271970155E+03  0.29263561624E+03  0.71057328269E+03  0.89036069674E+02 0.  0.
        254    2    1    2    0    0 -0.32534949823E+03 -0.55271970155E+03 -0.35585509682E+03  0.11622581551E+04  0.90158738054E+03 0.  0.
         23    2    4    4    0    0 -0.58651043666E+03 -0.14026322339E+03 -0.17762504810E+03  0.63524647199E+03  0.91209420081E+02 0.  0.
         23    2    4    4    0    0  0.26116093843E+03 -0.41245647816E+03 -0.17823004872E+03  0.52701168314E+03  0.87464174144E+02 0.  0.
          3    1    3    3  502    0  0.28812331828E+03  0.49761643719E+03  0.29005073722E+03  0.64402375365E+03  0.00000000000E+00 0. -1.
         -3    1    3    3    0  502  0.37226179945E+02  0.55103264360E+02  0.25848790210E+01  0.66549529044E+02  0.00000000000E+00 0.  1.
         13    1    5    5    0    0 -0.58931879268E+03 -0.13981849025E+03 -0.17314536460E+03  0.62994060586E+03  0.00000000000E+00 0.  1.
        -13    1    5    5    0    0  0.28083560212E+01 -0.44473313401E+00 -0.44796835034E+01  0.53058661303E+01  0.00000000000E+00 0. -1.
          3    1    6    6  503    0  0.27954136911E+02 -0.10390249962E+03 -0.21677618693E+02  0.10975920167E+03  0.00000000000E+00 0. -1.
         -3    1    6    6    0  503  0.23320680152E+03 -0.30855397854E+03 -0.15655243002E+03  0.41725248147E+03  0.00000000000E+00 0.  1.
<mgrwt>
<rscale>  0 0.18717641E+04</rscale>
<asrwt>0</asrwt>
<pdfrwt beam="1">  1        2 0.13920092E+00 0.18717641E+04</pdfrwt>
<pdfrwt beam="2">  1       -2 0.14892699E+00 0.18717641E+04</pdfrwt>
<totfact> 0.83404323E+00</totfact>
</mgrwt>
</event>
<event>
12    3  0.4688899E-008  0.1818410E+04  0.7818608E-02  0.8696570E-01
          2   -1    0    0  501    0  0.00000000000E+00  0.00000000000E+00  0.25606806017E+04  0.25606806017E+04  0.00000000000E+00 0. -1.
         -2   -1    0    0    0  501 -0.00000000000E+00 -0.00000000000E+00 -0.32282565376E+03  0.32282565376E+03  0.00000000000E+00 0.  1.
         23    2    1    2    0    0  0.37377224710E+03  0.10349144926E+03 -0.44387210896E+02  0.40054997322E+03  0.89743433089E+02 0.  0.
        254    2    1    2    0    0 -0.37377224710E+03 -0.10349144926E+03  0.22822421588E+04  0.24829562822E+04  0.89778976111E+03 0.  0.
         23    2    4    4    0    0  0.24891890905E+03  0.14279015640E+03  0.77265382558E+03  0.82908604177E+03  0.89666484462E+02 0.  0.
         23    2    4    4    0    0 -0.62269115615E+03 -0.24628160567E+03  0.15095883332E+04  0.16538702404E+04  0.89615462623E+02 0.  0.
          2    1    3    3  502    0  0.35197507889E+02 -0.59541626172E+00  0.20067024667E+02  0.40520421532E+02  0.00000000000E+00 0. -1.
         -2    1    3    3    0  502  0.33857473921E+03  0.10408686553E+03 -0.64454235563E+02  0.36002955169E+03  0.00000000000E+00 0.  1.
         13    1    5    5    0    0  0.36921291130E+02  0.39485681328E+02  0.24867678251E+03  0.25448466148E+03  0.00000000000E+00 0.  1.
        -13    1    5    5    0    0  0.21199761792E+03  0.10330447507E+03  0.52397704307E+03  0.57460138030E+03  0.00000000000E+00 0. -1.
          4    1    6    6  503    0 -0.24854964345E+03 -0.12776664132E+03  0.71405710927E+03  0.76679775377E+03  0.00000000000E+00 0. -1.
         -4    1    6    6    0  503 -0.37414151270E+03 -0.11851496434E+03  0.79553122396E+03  0.88707248666E+03  0.00000000000E+00 0.  1.
<mgrwt>
<rscale>  0 0.18184096E+04</rscale>
<asrwt>0</asrwt>
<pdfrwt beam="1">  1        2 0.39395085E+00 0.18184096E+04</pdfrwt>
<pdfrwt beam="2">  1       -2 0.49665487E-01 0.18184096E+04</pdfrwt>
<totfact> 0.11621459E+01</totfact>
</mgrwt>
</event>
<event>
12    3  0.4688899E-008  0.3738164E+04  0.7818608E-02  0.8059557E-01
          2   -1    0    0  501    0  0.00000000000E+00  0.00000000000E+00  0.27033924749E+04  0.27033924749E+04  0.00000000000E+00 0. -1.
         -2   -1    0    0    0  501 -0.00000000000E+00 -0.00000000000E+00 -0.12922529745E+04  0.12922529745E+04  0.00000000000E+00 0.  1.
         23    2    1    2    0    0  0.10355013608E+04  0.25329934782E+03  0.21621344991E+04  0.24123003478E+04  0.89127706673E+02 0.  0.
        254    2    1    2    0    0 -0.10355013608E+04 -0.25329934782E+03 -0.75099499868E+03  0.15833451017E+04  0.89808941372E+03 0.  0.
         23    2    4    4    0    0 -0.10065721501E+04 -0.49946340324E+03 -0.64626547002E+03  0.12995860336E+04  0.92809570903E+02 0.  0.
         23    2    4    4    0    0 -0.28929210721E+02  0.24616405542E+03 -0.10472952866E+03  0.28375906806E+03  0.90096021649E+02 0.  0.
          4    1    3    3  502    0  0.69710451156E+03  0.12718054122E+03  0.14286602386E+04  0.15947412541E+04  0.00000000000E+00 0. -1.
         -4    1    3    3    0  502  0.33839684926E+03  0.12611880660E+03  0.73347426051E+03  0.81755909377E+03  0.00000000000E+00 0.  1.
         13    1    5    5    0    0 -0.78895172281E+03 -0.40168385521E+03 -0.46536843023E+03  0.10001812417E+04  0.00000000000E+00 0. -1.
        -13    1    5    5    0    0 -0.21762042728E+03 -0.97779548038E+02 -0.18089703979E+03  0.29940479186E+03  0.00000000000E+00 0.  1.
          2    1    6    6  503    0 -0.53182816850E+02  0.22538737668E+03 -0.88255279239E+02  0.24782428430E+03  0.00000000000E+00 0. -1.
         -2    1    6    6    0  503  0.24253606129E+02  0.20776678743E+02 -0.16474249420E+02  0.35934783759E+02  0.00000000000E+00 0.  1.
<mgrwt>
<rscale>  0 0.37381637E+04</rscale>
<asrwt>0</asrwt>
<pdfrwt beam="1">  1        2 0.41590653E+00 0.37381637E+04</pdfrwt>
<pdfrwt beam="2">  1       -2 0.19880815E+00 0.37381637E+04</pdfrwt>
<totfact> 0.28839576E-01</totfact>
</mgrwt>
</event>
<event>
12    3  0.4688899E-008  0.1753476E+04  0.7818608E-02  0.8731439E-01
         -2   -1    0    0    0  501 -0.00000000000E+00  0.00000000000E+00  0.91148184988E+03  0.91148184988E+03  0.00000000000E+00 0.  1.
          2   -1    0    0  501    0  0.00000000000E+00 -0.00000000000E+00 -0.84331879260E+03  0.84331879260E+03  0.00000000000E+00 0. -1.
         23    2    1    2    0    0 -0.48680456698E+03 -0.31590393779E+03  0.30388433172E+03  0.66156438557E+03  0.92454122933E+02 0.  0.
        254    2    1    2    0    0  0.48680456698E+03  0.31590393779E+03 -0.23572127444E+03  0.10932362569E+04  0.89600614388E+03 0.  0.
         23    2    4    4    0    0  0.85736581667E+02  0.49433334530E+03  0.11759299567E+03  0.52331191806E+03  0.91164868479E+02 0.  0.
         23    2    4    4    0    0  0.40106798531E+03 -0.17842940751E+03 -0.35331427010E+03  0.56992433885E+03  0.85382646064E+02 0.  0.
          2    1    3    3  502    0 -0.34981218445E+03 -0.22160118086E+03  0.26213266214E+03  0.49009099186E+03  0.00000000000E+00 0. -1.
         -2    1    3    3    0  502 -0.13699238253E+03 -0.94302756931E+02  0.41751669580E+02  0.17147339371E+03  0.00000000000E+00 0.  1.
         13    1    5    5    0    0 -0.12344439490E+02  0.11835337297E+02  0.80788285164E+01  0.18913695182E+02  0.00000000000E+00 0. -1.
        -13    1    5    5    0    0  0.98081021157E+02  0.48249800800E+03  0.10951416715E+03  0.50439822288E+03  0.00000000000E+00 0.  1.
          1    1    6    6  503    0  0.11353847516E+03 -0.63351806234E+02 -0.59352355808E+02  0.14292354192E+03  0.00000000000E+00 0. -1.
         -1    1    6    6    0  503  0.28752951015E+03 -0.11507760128E+03 -0.29396191429E+03  0.42700079693E+03  0.00000000000E+00 0.  1.
<mgrwt>
<rscale>  0 0.17534763E+04</rscale>
<asrwt>0</asrwt>
<pdfrwt beam="1">  1        2 0.12974135E+00 0.17534763E+04</pdfrwt>
<pdfrwt beam="2">  1       -2 0.14022798E+00 0.17534763E+04</pdfrwt>
<totfact> 0.10869764E+01</totfact>
</mgrwt>
</event>
<event>
12    3  0.4688899E-008  0.1199337E+04  0.7818608E-02  0.9113437E-01
         -2   -1    0    0    0  501 -0.00000000000E+00  0.00000000000E+00  0.38148724179E+03  0.38148724179E+03  0.00000000000E+00 0.  1.
          2   -1    0    0  501    0  0.00000000000E+00 -0.00000000000E+00 -0.94263195842E+03  0.94263195842E+03  0.00000000000E+00 0. -1.
         23    2    1    2    0    0  0.97009811171E+02 -0.19300416788E+03 -0.20875118416E+03  0.31381639455E+03  0.90786344343E+02 0.  0.
        254    2    1    2    0    0 -0.97009811171E+02  0.19300416788E+03 -0.35239353248E+03  0.10103028057E+04  0.92188342273E+03 0.  0.
         23    2    4    4    0    0  0.16902287585E+03  0.43845604320E+03 -0.41315920382E+03  0.63196327350E+03  0.88682675683E+02 0.  0.
         23    2    4    4    0    0 -0.26603268702E+03 -0.24545187531E+03  0.60765671343E+02  0.37833953217E+03  0.91805888289E+02 0.  0.
          2    1    3    3  502    0  0.57659513331E+02 -0.14949331092E+03 -0.19709089548E+03  0.25400332787E+03  0.00000000000E+00 0. -1.
         -2    1    3    3    0  502  0.39350297840E+02 -0.43510856965E+02 -0.11660288674E+02  0.59813066682E+02  0.00000000000E+00 0.  1.
         13    1    5    5    0    0  0.88542004100E+02  0.31177287277E+03 -0.24306768441E+03  0.40512209257E+03  0.00000000000E+00 0. -1.
        -13    1    5    5    0    0  0.80480871752E+02  0.12668317043E+03 -0.17009151941E+03  0.22684118093E+03  0.00000000000E+00 0.  1.
          2    1    6    6  503    0 -0.15519925355E+03 -0.19958267579E+03  0.51629516889E+02  0.25804197292E+03  0.00000000000E+00 0. -1.
         -2    1    6    6    0  503 -0.11083343348E+03 -0.45869199529E+02  0.91361544548E+01  0.12029755924E+03  0.00000000000E+00 0.  1.
<mgrwt>
<rscale>  0 0.11993366E+04</rscale>
<asrwt>0</asrwt>
<pdfrwt beam="1">  1        2 0.14502030E+00 0.11993366E+04</pdfrwt>
<pdfrwt beam="2">  1       -2 0.58690345E-01 0.11993366E+04</pdfrwt>
<totfact> 0.73528992E+01</totfact>
</mgrwt>
</event>
<event>
12    3  0.4688899E-008  0.1098241E+04  0.7818608E-02  0.9206908E-01
          1   -1    0    0  501    0  0.00000000000E+00  0.00000000000E+00  0.52770907713E+03  0.52770907713E+03  0.00000000000E+00 0. -1.
         -1   -1    0    0    0  501 -0.00000000000E+00 -0.00000000000E+00 -0.57140018643E+03  0.57140018643E+03  0.00000000000E+00 0.  1.
         23    2    1    2    0    0  0.43256811372E+02 -0.14843278682E+03 -0.43353387710E+02  0.18373078746E+03  0.89297492136E+02 0.  0.
        254    2    1    2    0    0 -0.43256811372E+02  0.14843278682E+03 -0.33772158717E+00  0.91537847611E+03  0.90222735302E+03 0.  0.
         23    2    4    4    0    0  0.33188065341E+03 -0.18776710898E+03  0.70680033009E+02  0.39874207319E+03  0.92727118706E+02 0.  0.
         23    2    4    4    0    0 -0.37513746478E+03  0.33619989580E+03 -0.71017754596E+02  0.51663640292E+03  0.90062000482E+02 0.  0.
          3    1    3    3  502    0  0.35669120496E+02 -0.15216809126E+03 -0.18386655939E+02  0.15737052859E+03  0.00000000000E+00 0. -1.
         -3    1    3    3    0  502  0.75876908759E+01  0.37353044385E+01 -0.24966731771E+02  0.26360258864E+02  0.00000000000E+00 0.  1.
         13    1    5    5    0    0  0.24438020747E+03 -0.18187640506E+03  0.51173708884E+02  0.30890040628E+03  0.00000000000E+00 0. -1.
        -13    1    5    5    0    0  0.87500445938E+02 -0.58907039254E+01  0.19506324125E+02  0.89841666909E+02  0.00000000000E+00 0.  1.
          2    1    6    6  503    0 -0.35243660778E+03  0.30515902842E+03 -0.41262625435E+02  0.46801303335E+03  0.00000000000E+00 0. -1.
         -2    1    6    6    0  503 -0.22700857003E+02  0.31040867378E+02 -0.29755129161E+02  0.48623369563E+02  0.00000000000E+00 0.  1.
<mgrwt>
<rscale>  0 0.10982405E+04</rscale>
<asrwt>0</asrwt>
<pdfrwt beam="1">  1        1 0.81186012E-01 0.10982405E+04</pdfrwt>
<pdfrwt beam="2">  1       -1 0.87907721E-01 0.10982405E+04</pdfrwt>
<totfact> 0.52160743E+01</totfact>
</mgrwt>
</event>
<event>
12    3  0.4688899E-008  0.1544714E+04  0.7818608E-02  0.8855251E-01
          2   -1    0    0  501    0  0.00000000000E+00  0.00000000000E+00  0.18850491750E+04  0.18850491750E+04  0.00000000000E+00 0.  1.
         -2   -1    0    0    0  501 -0.00000000000E+00 -0.00000000000E+00 -0.31645606927E+03  0.31645606927E+03  0.00000000000E+00 0. -1.
         23    2    1    2    0    0  0.38608031998E+03  0.26690455897E+03  0.25051746652E+03  0.53965723478E+03  0.90415003972E+02 0.  0.
        254    2    1    2    0    0 -0.38608031998E+03 -0.26690455897E+03  0.13180756392E+04  0.16618480095E+04  0.89672702584E+03 0.  0.
         23    2    4    4    0    0 -0.43051080126E+03 -0.55075984043E+03  0.84073986077E+03  0.10971266776E+04  0.90374119151E+02 0.  0.
         23    2    4    4    0    0  0.44430481283E+02  0.28385528146E+03  0.47733577841E+03  0.56472133185E+03  0.92265100714E+02 0.  0.
          2    1    3    3  502    0  0.13188050331E+03  0.90254228809E+02  0.38261983147E+02  0.16432368157E+03  0.00000000000E+00 0. -1.
         -2    1    3    3    0  502  0.25419981667E+03  0.17665033016E+03  0.21225548337E+03  0.37533355321E+03  0.00000000000E+00 0.  1.
         13    1    5    5    0    0 -0.39356103970E+03 -0.46641760283E+03  0.75969370859E+03  0.97445892836E+03  0.00000000000E+00 0.  1.
        -13    1    5    5    0    0 -0.36949761569E+02 -0.84342237604E+02  0.81046152185E+02  0.12266774926E+03  0.00000000000E+00 0. -1.
          2    1    6    6  503    0 -0.86444281957E+01  0.15481108198E+02  0.82413886984E+02  0.84299701172E+02  0.00000000000E+00 0. -1.
         -2    1    6    6    0  503  0.53074909479E+02  0.26837417326E+03  0.39492189143E+03  0.48042163068E+03  0.00000000000E+00 0.  1.
<mgrwt>
<rscale>  0 0.15447139E+04</rscale>
<asrwt>0</asrwt>
<pdfrwt beam="1">  1        2 0.29000756E+00 0.15447139E+04</pdfrwt>
<pdfrwt beam="2">  1       -2 0.48685550E-01 0.15447139E+04</pdfrwt>
<totfact> 0.29780730E+01</totfact>
</mgrwt>
</event>
<event>
12    3  0.4688899E-008  0.4258954E+04  0.7818608E-02  0.7954252E-01
          2   -1    0    0  501    0  0.00000000000E+00  0.00000000000E+00  0.21971911762E+04  0.21971911762E+04  0.00000000000E+00 0. -1.
         -2   -1    0    0    0  501 -0.00000000000E+00 -0.00000000000E+00 -0.20638493479E+04  0.20638493479E+04  0.00000000000E+00 0.  1.
         23    2    1    2    0    0 -0.13060572924E+04  0.14789385270E+04  0.55132672365E+03  0.20506840715E+04  0.91099876351E+02 0.  0.
        254    2    1    2    0    0  0.13060572924E+04 -0.14789385270E+04 -0.41798489536E+03  0.22103564525E+04  0.90438899645E+03 0.  0.
         23    2    4    4    0    0  0.33586365706E+03 -0.10884701624E+03  0.20333056771E+03  0.41783136499E+03  0.92669632150E+02 0.  0.
         23    2    4    4    0    0  0.97019363536E+03 -0.13700915107E+04 -0.62131546307E+03  0.17925250875E+04  0.93203256350E+02 0.  0.
          4    1    3    3  502    0 -0.31231956465E+03  0.30575375608E+03  0.10074924286E+03  0.44853013249E+03  0.00000000000E+00 0. -1.
         -4    1    3    3    0  502 -0.99373772778E+03  0.11731847709E+04  0.45057748079E+03  0.16021539391E+04  0.00000000000E+00 0.  1.
         13    1    5    5    0    0  0.31221602486E+03 -0.10944367494E+03  0.15785632560E+03  0.36657248082E+03  0.00000000000E+00 0.  1.
        -13    1    5    5    0    0  0.23647632199E+02  0.59665869841E+00  0.45474242111E+02  0.51258884164E+02  0.00000000000E+00 0. -1.
          2    1    6    6  503    0  0.32486550996E+03 -0.45606821139E+03 -0.16072031062E+03  0.58255199875E+03  0.00000000000E+00 0. -1.
         -2    1    6    6    0  503  0.64532812540E+03 -0.91402329932E+03 -0.46059515246E+03  0.12099730888E+04  0.00000000000E+00 0.  1.
<mgrwt>
<rscale>  0 0.42589537E+04</rscale>
<asrwt>0</asrwt>
<pdfrwt beam="1">  1        2 0.33802941E+00 0.42589537E+04</pdfrwt>
<pdfrwt beam="2">  1       -2 0.31751528E+00 0.42589537E+04</pdfrwt>
<totfact> 0.99320592E-02</totfact>
</mgrwt>
</event>
<event>
12    3  0.4688899E-008  0.1845625E+04  0.7818608E-02  0.8682406E-01
          1   -1    0    0  501    0  0.00000000000E+00  0.00000000000E+00  0.11851040351E+04  0.11851040351E+04  0.00000000000E+00 0. -1.
         -1   -1    0    0    0  501 -0.00000000000E+00 -0.00000000000E+00 -0.71857238837E+03  0.71857238837E+03  0.00000000000E+00 0.  1.
         23    2    1    2    0    0 -0.57332304751E+03 -0.37003761660E+03  0.34085605348E+03  0.76811978428E+03  0.90542803733E+02 0.  0.
        254    2    1    2    0    0  0.57332304751E+03  0.37003761660E+03  0.12567559322E+03  0.11355566392E+04  0.89892567629E+03 0.  0.
         23    2    4    4    0    0  0.24564699942E+03  0.63801798015E+03  0.21614290123E+02  0.69043261335E+03  0.93918180986E+02 0.  0.
         23    2    4    4    0    0  0.32767604809E+03 -0.26798036355E+03  0.10406130309E+03  0.44512402581E+03  0.90119785921E+02 0.  0.
          2    1    3    3  502    0 -0.48306099444E+03 -0.27651453592E+03  0.29738076896E+03  0.63106539651E+03  0.00000000000E+00 0. -1.
         -2    1    3    3    0  502 -0.90262053071E+02 -0.93523080677E+02  0.43475284524E+02  0.13705438777E+03  0.00000000000E+00 0.  1.
         13    1    5    5    0    0  0.10802220216E+03  0.39026587735E+03 -0.11435617506E+02  0.40510125220E+03  0.00000000000E+00 0.  1.
        -13    1    5    5    0    0  0.13762479726E+03  0.24775210279E+03  0.33049907629E+02  0.28533136115E+03  0.00000000000E+00 0. -1.
          3    1    6    6  503    0  0.29781729819E+03 -0.26980041469E+03  0.88831520358E+02  0.41155612725E+03  0.00000000000E+00 0. -1.
         -3    1    6    6    0  503  0.29858749897E+02  0.18200511412E+01  0.15229782736E+02  0.33567898560E+02  0.00000000000E+00 0.  1.
<mgrwt>
<rscale>  0 0.18456251E+04</rscale>
<asrwt>0</asrwt>
<pdfrwt beam="1">  1        1 0.18232370E+00 0.18456251E+04</pdfrwt>
<pdfrwt beam="2">  1       -1 0.11054960E+00 0.18456251E+04</pdfrwt>
<totfact> 0.77692378E+00</totfact>
</mgrwt>
</event>
<event>
12    3  0.4688899E-008  0.2022641E+04  0.7818608E-02  0.8596108E-01
         -2   -1    0    0    0  501 -0.00000000000E+00  0.00000000000E+00  0.44292785692E+03  0.44292785692E+03  0.00000000000E+00 0.  1.
          2   -1    0    0  501    0  0.00000000000E+00 -0.00000000000E+00 -0.23091094898E+04  0.23091094898E+04  0.00000000000E+00 0. -1.
         23    2    1    2    0    0  0.44077370559E+02  0.94736319296E+01 -0.18829899762E+04  0.18857118656E+04  0.90694130839E+02 0.  0.
        254    2    1    2    0    0 -0.44077370559E+02 -0.94736319296E+01  0.16808343284E+02  0.86632548114E+03  0.86498829736E+03 0.  0.
         23    2    4    4    0    0 -0.40032683834E+03 -0.60368499760E+02  0.18910934801E+03  0.45664905408E+03  0.94127997067E+02 0.  0.
         23    2    4    4    0    0  0.35624946778E+03  0.50894867831E+02 -0.17230100472E+03  0.40967642706E+03  0.92968638796E+02 0.  0.
          3    1    3    3  502    0  0.64933970007E+02  0.76977500916E+01 -0.85057016905E+03  0.85307988389E+03  0.00000000000E+00 0.  1.
         -3    1    3    3    0  502 -0.20856599448E+02  0.17758818380E+01 -0.10324198071E+04  0.10326319817E+04  0.00000000000E+00 0. -1.
         13    1    5    5    0    0 -0.37329418542E+03 -0.72433472634E+02  0.15281746683E+03  0.40981500094E+03  0.00000000000E+00 0. -1.
        -13    1    5    5    0    0 -0.27032652916E+02  0.12064972874E+02  0.36291881177E+02  0.46834053139E+02  0.00000000000E+00 0.  1.
          1    1    6    6  503    0  0.31913865498E+03  0.69279060785E+02 -0.13310922181E+03  0.35265724762E+03  0.00000000000E+00 0. -1.
         -1    1    6    6    0  503  0.37110812799E+02 -0.18384192954E+02 -0.39191782908E+02  0.57019179446E+02  0.00000000000E+00 0.  1.
<mgrwt>
<rscale>  0 0.20226408E+04</rscale>
<asrwt>0</asrwt>
<pdfrwt beam="1">  1        2 0.35524761E+00 0.20226408E+04</pdfrwt>
<pdfrwt beam="2">  1       -2 0.68142748E-01 0.20226408E+04</pdfrwt>
<totfact> 0.81902912E+00</totfact>
</mgrwt>
</event>
<event>
12    3  0.4688899E-008  0.1665259E+04  0.7818608E-02  0.8781430E-01
         -2   -1    0    0    0  501 -0.00000000000E+00  0.00000000000E+00  0.64403483671E+03  0.64403483671E+03  0.00000000000E+00 0.  1.
          2   -1    0    0  501    0  0.00000000000E+00 -0.00000000000E+00 -0.10764505611E+04  0.10764505611E+04  0.00000000000E+00 0. -1.
         23    2    1    2    0    0 -0.53053378217E+03  0.41329823014E+02 -0.38694977432E+03  0.66395908417E+03  0.89091465981E+02 0.  0.
        254    2    1    2    0    0  0.53053378217E+03 -0.41329823014E+02 -0.45465950050E+02  0.10565263136E+04  0.91159555203E+03 0.  0.
         23    2    4    4    0    0 -0.11969629109E+03  0.27667136694E+03 -0.89823705003E+02  0.32583479373E+03  0.85004514219E+02 0.  0.
         23    2    4    4    0    0  0.65023007326E+03 -0.31800118996E+03  0.44357754952E+02  0.73069151989E+03  0.89546534459E+02 0.  0.
          1    1    3    3  502    0 -0.44083407530E+03  0.23396015384E+02 -0.35688637896E+03  0.56767062895E+03  0.00000000000E+00 0. -1.
         -1    1    3    3    0  502 -0.89699706866E+02  0.17933807630E+02 -0.30063395359E+02  0.96288455219E+02  0.00000000000E+00 0.  1.
         13    1    5    5    0    0 -0.68670805447E+02  0.23169588713E+03 -0.89838970607E+02  0.25781719157E+03  0.00000000000E+00 0. -1.
        -13    1    5    5    0    0 -0.51025485644E+02  0.44975479819E+02  0.15265604235E-01  0.68017602157E+02  0.00000000000E+00 0.  1.
          3    1    6    6  503    0  0.53887288760E+03 -0.23549907808E+03  0.60392086789E+02  0.59117764582E+03  0.00000000000E+00 0. -1.
         -3    1    6    6    0  503  0.11135718566E+03 -0.82502111877E+02 -0.16034331837E+02  0.13951387408E+03  0.00000000000E+00 0.  1.
<mgrwt>
<rscale>  0 0.16652587E+04</rscale>
<asrwt>0</asrwt>
<pdfrwt beam="1">  1        2 0.16560778E+00 0.16652587E+04</pdfrwt>
<pdfrwt beam="2">  1       -2 0.99082282E-01 0.16652587E+04</pdfrwt>
<totfact> 0.18152894E+01</totfact>
</mgrwt>
</event>
<event>
12    3  0.4688899E-008  0.1469898E+04  0.7818608E-02  0.8904721E-01
         -2   -1    0    0    0  501 -0.00000000000E+00  0.00000000000E+00  0.42009362108E+03  0.42009362108E+03  0.00000000000E+00 0. -1.
          2   -1    0    0  501    0  0.00000000000E+00 -0.00000000000E+00 -0.12857844985E+04  0.12857844985E+04  0.00000000000E+00 0.  1.
         23    2    1    2    0    0 -0.17140702761E+03 -0.12565365441E+03  0.19579095767E+03  0.30302027657E+03  0.91202954580E+02 0.  0.
        254    2    1    2    0    0  0.17140702761E+03  0.12565365441E+03 -0.10614818351E+04  0.14028578431E+04  0.89224280975E+03 0.  0.
         23    2    4    4    0    0 -0.18508837392E+03 -0.51833269097E+02 -0.95764823003E+03  0.98110344698E+03  0.92355006656E+02 0.  0.
         23    2    4    4    0    0  0.35649540153E+03  0.17748692351E+03 -0.10383360509E+03  0.42175439607E+03  0.92221330157E+02 0.  0.
          1    1    3    3  502    0 -0.11485041552E+03 -0.11337282117E+03  0.96326668532E+02  0.18794371922E+03  0.00000000000E+00 0. -1.
         -1    1    3    3    0  502 -0.56556612093E+02 -0.12280833240E+02  0.99464289138E+02  0.11507655734E+03  0.00000000000E+00 0.  1.
         13    1    5    5    0    0 -0.10241387348E+03  0.17828256565E+02 -0.52110690562E+03  0.53137449629E+03  0.00000000000E+00 0. -1.
        -13    1    5    5    0    0 -0.82674500432E+02 -0.69661525662E+02 -0.43654132441E+03  0.44972895070E+03  0.00000000000E+00 0.  1.
          3    1    6    6  503    0  0.17135027110E+03  0.42196444862E+02 -0.70523380868E+02  0.19003947647E+03  0.00000000000E+00 0. -1.
         -3    1    6    6    0  503  0.18514513042E+03  0.13529047864E+03 -0.33310224223E+02  0.23171491961E+03  0.00000000000E+00 0.  1.
<mgrwt>
<rscale>  0 0.14698978E+04</rscale>
<asrwt>0</asrwt>
<pdfrwt beam="1">  1        2 0.19781300E+00 0.14698978E+04</pdfrwt>
<pdfrwt beam="2">  1       -2 0.64629789E-01 0.14698978E+04</pdfrwt>
<totfact> 0.36064121E+01</totfact>
</mgrwt>
</event>
<event>
12    3  0.4688899E-008  0.2525220E+04  0.7818608E-02  0.8394055E-01
          2   -1    0    0  501    0  0.00000000000E+00  0.00000000000E+00  0.96640796547E+03  0.96640796547E+03  0.00000000000E+00 0. -1.
         -2   -1    0    0    0  501 -0.00000000000E+00 -0.00000000000E+00 -0.16495974016E+04  0.16495974016E+04  0.00000000000E+00 0.  1.
         23    2    1    2    0    0  0.76745395532E+03  0.63768510813E+03 -0.76173040447E+03  0.12586117578E+04  0.90788089436E+02 0.  0.
        254    2    1    2    0    0 -0.76745395532E+03 -0.63768510813E+03  0.78540968358E+02  0.13573936092E+04  0.91690831384E+03 0.  0.
         23    2    4    4    0    0  0.19752044180E+03 -0.54985214630E+02  0.53383192545E+01  0.22415157544E+03  0.90430815334E+02 0.  0.
         23    2    4    4    0    0 -0.96497439712E+03 -0.58269989350E+03  0.73202649104E+02  0.11332420338E+04  0.90355555028E+02 0.  0.
          3    1    3    3  502    0  0.18727813906E+03  0.16222808785E+03 -0.14176272834E+03  0.28546054894E+03  0.00000000000E+00 0. -1.
         -3    1    3    3    0  502  0.58017581626E+03  0.47545702028E+03 -0.61996767613E+03  0.97315120888E+03  0.00000000000E+00 0.  1.
         13    1    5    5    0    0  0.94582656076E+02  0.39448134692E+00 -0.34471128102E+02  0.10066922627E+03  0.00000000000E+00 0.  1.
        -13    1    5    5    0    0  0.10293778573E+03 -0.55379695977E+02  0.39809447356E+02  0.12348234917E+03  0.00000000000E+00 0. -1.
          2    1    6    6  503    0 -0.79902901501E+03 -0.44566521529E+03  0.75446057797E+02  0.91801795112E+03  0.00000000000E+00 0. -1.
         -2    1    6    6    0  503 -0.16594538211E+03 -0.13703467822E+03 -0.22434086935E+01  0.21522408267E+03  0.00000000000E+00 0.  1.
<mgrwt>
<rscale>  0 0.25252200E+04</rscale>
<asrwt>0</asrwt>
<pdfrwt beam="1">  1        2 0.14867815E+00 0.25252200E+04</pdfrwt>
<pdfrwt beam="2">  1       -2 0.25378422E+00 0.25252200E+04</pdfrwt>
<totfact> 0.14356168E+00</totfact>
</mgrwt>
</event>
<event>
12    3  0.4688899E-008  0.1521151E+04  0.7818608E-02  0.8870508E-01
          1   -1    0    0  501    0  0.00000000000E+00  0.00000000000E+00  0.24500416351E+04  0.24500416351E+04  0.00000000000E+00 0. -1.
         -1   -1    0    0    0  501 -0.00000000000E+00 -0.00000000000E+00 -0.23610834130E+03  0.23610834130E+03  0.00000000000E+00 0.  1.
         23    2    1    2    0    0  0.37252481808E+03 -0.11208893906E+03  0.12357364460E+04  0.12987221199E+04  0.91081888397E+02 0.  0.
        254    2    1    2    0    0 -0.37252481808E+03  0.11208893906E+03  0.97819684781E+03  0.13874278565E+04  0.90374128690E+03 0.  0.
         23    2    4    4    0    0 -0.56253199625E+03  0.34782937312E+03  0.67289268642E+03  0.94820192729E+03  0.94206198657E+02 0.  0.
         23    2    4    4    0    0  0.19000717817E+03 -0.23574043407E+03  0.30530416139E+03  0.43922592924E+03  0.89624248614E+02 0.  0.
          3    1    3    3  502    0  0.35343477710E+01 -0.17939874969E+02  0.70760984661E+02  0.73085208342E+02  0.00000000000E+00 0. -1.
         -3    1    3    3    0  502  0.36899047031E+03 -0.94149064088E+02  0.11649754614E+04  0.12256369116E+04  0.00000000000E+00 0.  1.
         13    1    5    5    0    0 -0.47028212077E+03  0.32336891838E+03  0.60018413037E+03  0.82822323129E+03  0.00000000000E+00 0. -1.
        -13    1    5    5    0    0 -0.92249875479E+02  0.24460454743E+02  0.72708556049E+02  0.11997869600E+03  0.00000000000E+00 0.  1.
          3    1    6    6  503    0  0.19925382061E+03 -0.22987692175E+03  0.28911579092E+03  0.41968252852E+03  0.00000000000E+00 0. -1.
         -3    1    6    6    0  503 -0.92466424419E+01 -0.58635123130E+01  0.16188370473E+02  0.19543400719E+02  0.00000000000E+00 0.  1.
<mgrwt>
<rscale>  0 0.15211512E+04</rscale>
<asrwt>0</asrwt>
<pdfrwt beam="1">  1        1 0.37692946E+00 0.15211512E+04</pdfrwt>
<pdfrwt beam="2">  1       -1 0.36324362E-01 0.15211512E+04</pdfrwt>
<totfact> 0.10306272E+01</totfact>
</mgrwt>
</event>
<event>
12    3  0.4688899E-008  0.2102330E+04  0.7818608E-02  0.8560218E-01
         -1   -1    0    0    0  501 -0.00000000000E+00  0.00000000000E+00  0.12395857990E+04  0.12395857990E+04  0.00000000000E+00 0.  1.
          1   -1    0    0  501    0  0.00000000000E+00 -0.00000000000E+00 -0.89138457514E+03  0.89138457514E+03  0.00000000000E+00 0. -1.
         23    2    1    2    0    0  0.55119939250E+03  0.48381585376E+03  0.58646530662E+03  0.94352380860E+03  0.91635532912E+02 0.  0.
        254    2    1    2    0    0 -0.55119939250E+03 -0.48381585376E+03 -0.23826408272E+03  0.11874465656E+04  0.90297343392E+03 0.  0.
         23    2    4    4    0    0 -0.70207376063E+03 -0.18933696089E+03  0.55886674361E+02  0.73507261095E+03  0.91936787360E+02 0.  0.
         23    2    4    4    0    0  0.15087436813E+03 -0.29447889287E+03 -0.29415075708E+03  0.45237395463E+03  0.92933490399E+02 0.  0.
          1    1    3    3  502    0  0.20014704936E+03  0.12686838257E+03  0.16077021535E+03  0.28635902292E+03  0.00000000000E+00 0. -1.
         -1    1    3    3    0  502  0.35105234314E+03  0.35694747119E+03  0.42569509127E+03  0.65716478569E+03  0.00000000000E+00 0.  1.
         13    1    5    5    0    0 -0.67255779165E+03 -0.18916491738E+03  0.70379786286E+02  0.70218990551E+03  0.00000000000E+00 0. -1.
        -13    1    5    5    0    0 -0.29515968979E+02 -0.17204350467E+00 -0.14493111926E+02  0.32882705440E+02  0.00000000000E+00 0.  1.
          3    1    6    6  503    0  0.63156755221E+02 -0.44459757258E+02 -0.84686136284E+02  0.11461757031E+03  0.00000000000E+00 0. -1.
         -3    1    6    6    0  503  0.87717612912E+02 -0.25001913561E+03 -0.20946462079E+03  0.33775638432E+03  0.00000000000E+00 0.  1.
<mgrwt>
<rscale>  0 0.21023298E+04</rscale>
<asrwt>0</asrwt>
<pdfrwt beam="1">  1        1 0.13713609E+00 0.21023298E+04</pdfrwt>
<pdfrwt beam="2">  1       -1 0.19070551E+00 0.21023298E+04</pdfrwt>
<totfact> 0.29709248E+00</totfact>
</mgrwt>
</event>
<event>
12    3  0.4688899E-008  0.3861382E+04  0.7818608E-02  0.8033109E-01
          2   -1    0    0  501    0  0.00000000000E+00  0.00000000000E+00  0.28736937172E+04  0.28736937172E+04  0.00000000000E+00 0. -1.
         -2   -1    0    0    0  501 -0.00000000000E+00 -0.00000000000E+00 -0.12971343358E+04  0.12971343358E+04  0.00000000000E+00 0.  1.
         23    2    1    2    0    0  0.28545326989E+03 -0.14072331143E+04 -0.47026019899E+03  0.15136762513E+04  0.91008416939E+02 0.  0.
        254    2    1    2    0    0 -0.28545326989E+03  0.14072331143E+04  0.20468195804E+04  0.26571518016E+04  0.89955360863E+03 0.  0.
         23    2    4    4    0    0  0.20995331557E+03  0.62634725105E+03  0.13152683136E+04  0.14746341047E+04  0.90684796370E+02 0.  0.
         23    2    4    4    0    0 -0.49540658546E+03  0.78088586321E+03  0.73155126676E+03  0.11825176969E+04  0.89277271701E+02 0.  0.
          4    1    3    3  502    0  0.17593203721E+02 -0.23045038121E+03 -0.57556194253E+02  0.23817979451E+03  0.00000000000E+00 0. -1.
         -4    1    3    3    0  502  0.26786006617E+03 -0.11767827331E+04 -0.41270400474E+03  0.12754964568E+04  0.00000000000E+00 0.  1.
         13    1    5    5    0    0  0.56320162511E+02  0.20815834453E+03  0.52262397688E+03  0.56536508409E+03  0.00000000000E+00 0.  1.
        -13    1    5    5    0    0  0.15363315306E+03  0.41818890652E+03  0.79264433677E+03  0.90926902062E+03  0.00000000000E+00 0. -1.
          1    1    6    6  503    0 -0.43405792907E+03  0.62118588165E+03  0.60588963858E+03  0.97024761761E+03  0.00000000000E+00 0. -1.
         -1    1    6    6    0  503 -0.61348656390E+02  0.15969998157E+03  0.12566162818E+03  0.21227007926E+03  0.00000000000E+00 0.  1.
<mgrwt>
<rscale>  0 0.38613815E+04</rscale>
<asrwt>0</asrwt>
<pdfrwt beam="1">  1        2 0.44210673E+00 0.38613815E+04</pdfrwt>
<pdfrwt beam="2">  1       -2 0.19955913E+00 0.38613815E+04</pdfrwt>
<totfact> 0.22264798E-01</totfact>
</mgrwt>
</event>
<event>
12    3  0.4688899E-008  0.2761076E+04  0.7818608E-02  0.8315456E-01
          1   -1    0    0  501    0  0.00000000000E+00  0.00000000000E+00  0.29817800838E+04  0.29817800838E+04  0.00000000000E+00 0. -1.
         -1   -1    0    0    0  501 -0.00000000000E+00 -0.00000000000E+00 -0.63917680479E+03  0.63917680479E+03  0.00000000000E+00 0.  1.
         23    2    1    2    0    0  0.11514426638E+04 -0.11518510848E+02  0.16040250021E+04  0.19768202203E+04  0.94705289778E+02 0.  0.
        254    2    1    2    0    0 -0.11514426638E+04  0.11518510848E+02  0.73857827692E+03  0.16441366683E+04  0.91199486234E+03 0.  0.
         23    2    4    4    0    0 -0.53260206337E+03 -0.92576240612E+02  0.83873190555E+03  0.10020945204E+04  0.92124373423E+02 0.  0.
         23    2    4    4    0    0 -0.61884060040E+03  0.10409475146E+03 -0.10015362863E+03  0.64204214793E+03  0.91585830829E+02 0.  0.
          1    1    3    3  502    0  0.89081334461E+03 -0.19774306340E+02  0.11728533263E+04  0.14729305357E+04  0.00000000000E+00 0. -1.
         -1    1    3    3    0  502  0.26062931915E+03  0.82557954912E+01  0.43117167584E+03  0.50388968456E+03  0.00000000000E+00 0.  1.
         13    1    5    5    0    0 -0.25038227376E+03 -0.73437842197E+02  0.33813437505E+03  0.42710567226E+03  0.00000000000E+00 0.  1.
        -13    1    5    5    0    0 -0.28221978961E+03 -0.19138398415E+02  0.50059753050E+03  0.57498884814E+03  0.00000000000E+00 0. -1.
          2    1    6    6  503    0 -0.16782806097E+03 -0.12649031794E+02 -0.25997224398E+02  0.17030006380E+03  0.00000000000E+00 0. -1.
         -2    1    6    6    0  503 -0.45101253943E+03  0.11674378326E+03 -0.74156404229E+02  0.47174208413E+03  0.00000000000E+00 0.  1.
<mgrwt>
<rscale>  0 0.27610756E+04</rscale>
<asrwt>0</asrwt>
<pdfrwt beam="1">  1        1 0.45873539E+00 0.27610756E+04</pdfrwt>
<pdfrwt beam="2">  1       -1 0.98334895E-01 0.27610756E+04</pdfrwt>
<totfact> 0.52989366E-01</totfact>
</mgrwt>
</event>
<event>
12    3  0.4688899E-008  0.2012659E+04  0.7818608E-02  0.8600725E-01
         -3   -1    0    0    0  501 -0.00000000000E+00  0.00000000000E+00  0.16136989358E+04  0.16136989358E+04  0.00000000000E+00 0.  1.
          3   -1    0    0  501    0  0.00000000000E+00 -0.00000000000E+00 -0.62756396292E+03  0.62756396292E+03  0.00000000000E+00 0. -1.
         23    2    1    2    0    0  0.21862124966E+03 -0.53477642871E+03 -0.21958049019E+03  0.62469118724E+03  0.90787709727E+02 0.  0.
        254    2    1    2    0    0 -0.21862124966E+03  0.53477642871E+03  0.12057154631E+04  0.16165717115E+04  0.90872066170E+03 0.  0.
         23    2    4    4    0    0 -0.29632257055E+03  0.36285033309E+03  0.13021737947E+04  0.13869295179E+04  0.91920975964E+02 0.  0.
         23    2    4    4    0    0  0.77701320889E+02  0.17192609563E+03 -0.96458331643E+02  0.22964219363E+03  0.88516945989E+02 0.  0.
          2    1    3    3  502    0  0.19092862449E+03 -0.47855571202E+03 -0.22408807672E+03  0.56185832315E+03  0.00000000000E+00 0. -1.
         -2    1    3    3    0  502  0.27692625175E+02 -0.56220716692E+02  0.45075865376E+01  0.62832864099E+02  0.00000000000E+00 0.  1.
         13    1    5    5    0    0 -0.41444715942E+02  0.55891723251E+02  0.11400561597E+03  0.13356208174E+03  0.00000000000E+00 0.  1.
        -13    1    5    5    0    0 -0.25487785461E+03  0.30695860984E+03  0.11881681788E+04  0.12533674361E+04  0.00000000000E+00 0. -1.
          3    1    6    6  503    0  0.79685899108E+02  0.68871336975E+02 -0.48023379404E+02  0.11575555513E+03  0.00000000000E+00 0. -1.
         -3    1    6    6    0  503 -0.19845782191E+01  0.10305475865E+03 -0.48434952238E+02  0.11388663850E+03  0.00000000000E+00 0.  1.
<mgrwt>
<rscale>  0 0.20126592E+04</rscale>
<asrwt>0</asrwt>
<pdfrwt beam="1">  1        3 0.96548302E-01 0.20126592E+04</pdfrwt>
<pdfrwt beam="2">  1       -3 0.24826137E+00 0.20126592E+04</pdfrwt>
<totfact> 0.17234318E-01</totfact>
</mgrwt>
</event>
<event>
12    3  0.4688899E-008  0.1536657E+04  0.7818608E-02  0.8860436E-01
         -1   -1    0    0    0  501 -0.00000000000E+00  0.00000000000E+00  0.45787006022E+03  0.45787006022E+03  0.00000000000E+00 0.  1.
          1   -1    0    0  501    0  0.00000000000E+00 -0.00000000000E+00 -0.12892935694E+04  0.12892935694E+04  0.00000000000E+00 0. -1.
         23    2    1    2    0    0  0.71391802569E+02 -0.36118133787E+03 -0.66371777905E+03  0.76441009599E+03  0.90844682381E+02 0.  0.
        254    2    1    2    0    0 -0.71391802569E+02  0.36118133787E+03 -0.16770573012E+03  0.98275353363E+03  0.89561741143E+03 0.  0.
         23    2    4    4    0    0 -0.32114580967E+03  0.16378619867E+03  0.25182315566E+03  0.44854358757E+03  0.88407569132E+02 0.  0.
         23    2    4    4    0    0  0.24975400710E+03  0.19739513920E+03 -0.41952888578E+03  0.53420994607E+03  0.89631888482E+02 0.  0.
          3    1    3    3  502    0  0.40472328794E+02 -0.25532044361E+03 -0.37610954433E+03  0.45638243574E+03  0.00000000000E+00 0. -1.
         -3    1    3    3    0  502  0.30919473775E+02 -0.10586089426E+03 -0.28760823473E+03  0.30802766024E+03  0.00000000000E+00 0.  1.
         13    1    5    5    0    0 -0.11943833033E+03  0.64429205243E+02  0.14825297032E+03  0.20098651808E+03  0.00000000000E+00 0. -1.
        -13    1    5    5    0    0 -0.20170747934E+03  0.99356993428E+02  0.10357018534E+03  0.24755706949E+03  0.00000000000E+00 0.  1.
          3    1    6    6  503    0  0.10240501441E+02  0.43865946178E+02 -0.73972097368E+02  0.86608084454E+02  0.00000000000E+00 0. -1.
         -3    1    6    6    0  503  0.23951350566E+03  0.15352919302E+03 -0.34555678841E+03  0.44760186161E+03  0.00000000000E+00 0.  1.
<mgrwt>
<rscale>  0 0.15366573E+04</rscale>
<asrwt>0</asrwt>
<pdfrwt beam="1">  1        1 0.19835286E+00 0.15366573E+04</pdfrwt>
<pdfrwt beam="2">  1       -1 0.70441547E-01 0.15366573E+04</pdfrwt>
<totfact> 0.18085696E+01</totfact>
</mgrwt>
</event>
<event>
12    3  0.4688899E-008  0.1925511E+04  0.7818608E-02  0.8642261E-01
         -2   -1    0    0    0  501 -0.00000000000E+00  0.00000000000E+00  0.14160904860E+04  0.14160904860E+04  0.00000000000E+00 0.  1.
          2   -1    0    0  501    0  0.00000000000E+00 -0.00000000000E+00 -0.65454720027E+03  0.65454720027E+03  0.00000000000E+00 0. -1.
         23    2    1    2    0    0 -0.37964527972E+03 -0.63986451863E+03  0.35738324458E+03  0.83027774905E+03  0.89895586373E+02 0.  0.
        254    2    1    2    0    0  0.37964527972E+03  0.63986451863E+03  0.40416004116E+03  0.12403599372E+04  0.90641618167E+03 0.  0.
         23    2    4    4    0    0  0.45809405601E+03  0.76011701418E+03  0.52207470101E+03  0.10337771491E+04  0.92223430860E+02 0.  0.
         23    2    4    4    0    0 -0.78448776282E+02 -0.12025249555E+03 -0.11791465984E+03  0.20658278812E+03  0.90320031865E+02 0.  0.
          3    1    3    3  502    0 -0.64546703305E+02 -0.14543745241E+03  0.11261920066E+03  0.19493951325E+03  0.00000000000E+00 0.  1.
         -3    1    3    3    0  502 -0.31509857642E+03 -0.49442706622E+03  0.24476404392E+03  0.63533823580E+03  0.00000000000E+00 0. -1.
         13    1    5    5    0    0  0.10492224523E+02  0.16391336603E+02  0.30612247858E+02  0.36274955685E+02  0.00000000000E+00 0. -1.
        -13    1    5    5    0    0  0.44760183148E+03  0.74372567757E+03  0.49146245315E+03  0.99750219342E+03  0.00000000000E+00 0.  1.
          4    1    6    6  503    0 -0.51753203953E+02 -0.68643026904E+01 -0.46732948456E+02  0.70067690430E+02  0.00000000000E+00 0. -1.
         -4    1    6    6    0  503 -0.26695572330E+02 -0.11338819286E+03 -0.71181711386E+02  0.13651509769E+03  0.00000000000E+00 0.  1.
<mgrwt>
<rscale>  0 0.19255109E+04</rscale>
<asrwt>0</asrwt>
<pdfrwt beam="1">  1        2 0.10069957E+00 0.19255109E+04</pdfrwt>
<pdfrwt beam="2">  1       -2 0.21786007E+00 0.19255109E+04</pdfrwt>
<totfact> 0.42459867E+00</totfact>
</mgrwt>
</event>
<event>
12    3  0.4688899E-008  0.1834580E+04  0.7818608E-02  0.8688123E-01
         -3   -1    0    0    0  501 -0.00000000000E+00  0.00000000000E+00  0.36484345884E+04  0.36484345884E+04  0.00000000000E+00 0.  1.
          3   -1    0    0  501    0  0.00000000000E+00 -0.00000000000E+00 -0.23062521792E+03  0.23062521792E+03  0.00000000000E+00 0. -1.
         23    2    1    2    0    0  0.56051714758E+03 -0.38664394200E+03  0.10363608275E+04  0.12433484040E+04  0.90545448803E+02 0.  0.
        254    2    1    2    0    0 -0.56051714758E+03  0.38664394200E+03  0.23814485430E+04  0.26357114023E+04  0.90111288023E+03 0.  0.
         23    2    4    4    0    0 -0.37679700433E+03  0.66484617187E+03  0.18282362185E+04  0.19835394574E+04  0.89357113479E+02 0.  0.
         23    2    4    4    0    0 -0.18372014325E+03 -0.27820222987E+03  0.55321232445E+03  0.65217194490E+03  0.90193115325E+02 0.  0.
          4    1    3    3  502    0  0.61378658086E+02 -0.17691238240E+02  0.12970106159E+03  0.14457760877E+03  0.00000000000E+00 0.  1.
         -4    1    3    3    0  502  0.49913848949E+03 -0.36895270376E+03  0.90665976593E+03  0.10987707952E+04  0.00000000000E+00 0. -1.
         13    1    5    5    0    0 -0.63151724410E+02  0.13022965471E+03  0.26585014853E+03  0.30269490371E+03  0.00000000000E+00 0.  1.
        -13    1    5    5    0    0 -0.31364527992E+03  0.53461651717E+03  0.15623860700E+04  0.16808445537E+04  0.00000000000E+00 0. -1.
          3    1    6    6  503    0 -0.17765196287E+03 -0.28460560614E+03  0.52918082958E+03  0.62657235923E+03  0.00000000000E+00 0. -1.
         -3    1    6    6    0  503 -0.60681803833E+01  0.64033762701E+01  0.24031494867E+02  0.25599585667E+02  0.00000000000E+00 0.  1.
<mgrwt>
<rscale>  0 0.18345801E+04</rscale>
<asrwt>0</asrwt>
<pdfrwt beam="1">  1        3 0.35480805E-01 0.18345801E+04</pdfrwt>
<pdfrwt beam="2">  1       -3 0.56129759E+00 0.18345801E+04</pdfrwt>
<totfact> 0.28324586E-02</totfact>
</mgrwt>
</event>
<event>
12    3  0.4688899E-008  0.1757567E+04  0.7818608E-02  0.8729196E-01
          1   -1    0    0  501    0  0.00000000000E+00  0.00000000000E+00  0.19939419245E+04  0.19939419245E+04  0.00000000000E+00 0. -1.
         -1   -1    0    0    0  501 -0.00000000000E+00 -0.00000000000E+00 -0.38730344383E+03  0.38730344383E+03  0.00000000000E+00 0.  1.
         23    2    1    2    0    0 -0.99190121680E+02 -0.16514886519E+03  0.14188147449E+04  0.14346794679E+04  0.90316483553E+02 0.  0.
        254    2    1    2    0    0  0.99190121680E+02  0.16514886519E+03  0.18782373580E+03  0.94656590052E+03  0.90752213217E+03 0.  0.
         23    2    4    4    0    0 -0.82213414331E+02  0.41450667107E+03 -0.17105526830E+03  0.46486217138E+03  0.90896136926E+02 0.  0.
         23    2    4    4    0    0  0.18140353601E+03 -0.24935780587E+03  0.35887900410E+03  0.48170372914E+03  0.90320456481E+02 0.  0.
          1    1    3    3  502    0 -0.76150002419E+02 -0.78441488175E+02  0.51816686026E+03  0.52957415440E+03  0.00000000000E+00 0. -1.
         -1    1    3    3    0  502 -0.23040119261E+02 -0.86707377019E+02  0.90064788464E+03  0.90510531345E+03  0.00000000000E+00 0.  1.
         13    1    5    5    0    0  0.19601333065E+01  0.70783855704E+02 -0.63197224300E+02  0.94910934618E+02  0.00000000000E+00 0. -1.
        -13    1    5    5    0    0 -0.84173547637E+02  0.34372281536E+03 -0.10785804400E+03  0.36995123676E+03  0.00000000000E+00 0.  1.
          3    1    6    6  503    0  0.36221259856E+01 -0.27239172943E+02  0.54892306221E+01  0.28021848477E+02  0.00000000000E+00 0. -1.
         -3    1    6    6    0  503  0.17778141003E+03 -0.22211863293E+03  0.35338977347E+03  0.45368188066E+03  0.00000000000E+00 0.  1.
<mgrwt>
<rscale>  0 0.17575672E+04</rscale>
<asrwt>0</asrwt>
<pdfrwt beam="1">  1        1 0.30676029E+00 0.17575672E+04</pdfrwt>
<pdfrwt beam="2">  1       -1 0.59585146E-01 0.17575672E+04</pdfrwt>
<totfact> 0.81365699E+00</totfact>
</mgrwt>
</event>
<event>
12    3  0.4688899E-008  0.2581845E+04  0.7818608E-02  0.8374394E-01
          1   -1    0    0  501    0  0.00000000000E+00  0.00000000000E+00  0.12850281025E+04  0.12850281025E+04  0.00000000000E+00 0. -1.
         -1   -1    0    0    0  501 -0.00000000000E+00 -0.00000000000E+00 -0.12968444010E+04  0.12968444010E+04  0.00000000000E+00 0.  1.
         23    2    1    2    0    0  0.11297617723E+04  0.12276236510E+02 -0.85174015956E+02  0.11366628955E+04  0.90749968956E+02 0.  0.
        254    2    1    2    0    0 -0.11297617723E+04 -0.12276236510E+02  0.73357717457E+02  0.14452096080E+04  0.89818544192E+03 0.  0.
         23    2    4    4    0    0 -0.74917716222E+03  0.40216604959E+03  0.14963599472E+03  0.86852939295E+03  0.94596108087E+02 0.  0.
         23    2    4    4    0    0 -0.38058461009E+03 -0.41444228610E+03 -0.76278277267E+02  0.57668021501E+03  0.10067095339E+03 0.  0.
          3    1    3    3  502    0  0.40498854667E+02 -0.37842682811E+00  0.13926236360E+02  0.42828033989E+02  0.00000000000E+00 0. -1.
         -3    1    3    3    0  502  0.10892629176E+04  0.12654663338E+02 -0.99100252316E+02  0.10938348615E+04  0.00000000000E+00 0.  1.
         13    1    5    5    0    0 -0.52188268036E+03  0.23216578878E+03  0.11408513232E+03  0.58247566727E+03  0.00000000000E+00 0. -1.
        -13    1    5    5    0    0 -0.22729448186E+03  0.17000026081E+03  0.35550862402E+02  0.28605372569E+03  0.00000000000E+00 0.  1.
          1    1    6    6  503    0 -0.23833617916E+03 -0.32317611104E+03 -0.69571873637E+02  0.40753794749E+03  0.00000000000E+00 0. -1.
         -1    1    6    6    0  503 -0.14224843093E+03 -0.91266175064E+02 -0.67064036301E+01  0.16914226752E+03  0.00000000000E+00 0.  1.
<mgrwt>
<rscale>  0 0.25818455E+04</rscale>
<asrwt>0</asrwt>
<pdfrwt beam="1">  1        1 0.19769663E+00 0.25818455E+04</pdfrwt>
<pdfrwt beam="2">  1       -1 0.19951452E+00 0.25818455E+04</pdfrwt>
<totfact> 0.12405669E+00</totfact>
</mgrwt>
</event>
<event>
12    3  0.4688899E-008  0.2501142E+04  0.7818608E-02  0.8402579E-01
          1   -1    0    0  501    0  0.00000000000E+00  0.00000000000E+00  0.76070145634E+03  0.76070145634E+03  0.00000000000E+00 0. -1.
         -1   -1    0    0    0  501 -0.00000000000E+00 -0.00000000000E+00 -0.20559016584E+04  0.20559016584E+04  0.00000000000E+00 0.  1.
         23    2    1    2    0    0  0.18660975775E+03 -0.58242944105E+03  0.45050668817E+03  0.76520032747E+03  0.92347222993E+02 0.  0.
        254    2    1    2    0    0 -0.18660975775E+03  0.58242944105E+03 -0.17457068902E+04  0.20514027872E+04  0.88696876691E+03 0.  0.
         23    2    4    4    0    0 -0.16278319833E+03 -0.82687925330E+01 -0.12800176975E+04  0.12934988923E+04  0.90151738543E+02 0.  0.
         23    2    4    4    0    0 -0.23826559424E+02  0.59069823358E+03 -0.46568919271E+03  0.75790389491E+03  0.89776286526E+02 0.  0.
          1    1    3    3  502    0  0.18679639342E+03 -0.58563271801E+03  0.44515650730E+03  0.75896171773E+03  0.00000000000E+00 0. -1.
         -1    1    3    3    0  502 -0.18663566413E+00  0.32032769595E+01  0.53501808738E+01  0.62386097436E+01  0.00000000000E+00 0.  1.
         13    1    5    5    0    0  0.36390201446E+01  0.17465003369E+02 -0.12876682163E+03  0.12999678135E+03  0.00000000000E+00 0. -1.
        -13    1    5    5    0    0 -0.16642221847E+03 -0.25733795902E+02 -0.11512508758E+04  0.11635021110E+04  0.00000000000E+00 0.  1.
          1    1    6    6  503    0 -0.14164020829E+02  0.10010783482E+03 -0.12388483724E+03  0.15990513118E+03  0.00000000000E+00 0. -1.
         -1    1    6    6    0  503 -0.96625385947E+01  0.49059039876E+03 -0.34180435547E+03  0.59799876373E+03  0.00000000000E+00 0.  1.
<mgrwt>
<rscale>  0 0.25011416E+04</rscale>
<asrwt>0</asrwt>
<pdfrwt beam="1">  1        1 0.11703100E+00 0.25011416E+04</pdfrwt>
<pdfrwt beam="2">  1       -1 0.31629256E+00 0.25011416E+04</pdfrwt>
<totfact> 0.55072350E-01</totfact>
</mgrwt>
</event>
<event>
12    3  0.4688899E-008  0.2110066E+04  0.7818608E-02  0.8556822E-01
         -1   -1    0    0    0  501 -0.00000000000E+00  0.00000000000E+00  0.20197596310E+04  0.20197596310E+04  0.00000000000E+00 0.  1.
          1   -1    0    0  501    0  0.00000000000E+00 -0.00000000000E+00 -0.55110261632E+03  0.55110261632E+03  0.00000000000E+00 0. -1.
         23    2    1    2    0    0 -0.42743659284E+03 -0.42545905271E+03 -0.14300002816E+03  0.62671701409E+03  0.92778021435E+02 0.  0.
        254    2    1    2    0    0  0.42743659284E+03  0.42545905271E+03  0.16116570428E+04  0.19441452332E+04  0.90473466702E+03 0.  0.
         23    2    4    4    0    0  0.37243757745E+03  0.12353338491E+03  0.15710853359E+04  0.16219505247E+04  0.91891923666E+02 0.  0.
         23    2    4    4    0    0  0.54999015389E+02  0.30192566780E+03  0.40571706860E+02  0.32219470845E+03  0.89327298080E+02 0.  0.
          2    1    3    3  502    0 -0.41806997105E+03 -0.41225530124E+03 -0.12113063451E+03  0.59950776869E+03  0.00000000000E+00 0. -1.
         -2    1    3    3    0  502 -0.93666217822E+01 -0.13203751471E+02 -0.21869393653E+02  0.27209245400E+02  0.00000000000E+00 0.  1.
         13    1    5    5    0    0  0.17984430943E+03  0.10690545306E+03  0.77708006788E+03  0.80475224971E+03  0.00000000000E+00 0. -1.
        -13    1    5    5    0    0  0.19259326802E+03  0.16627931854E+02  0.79400526807E+03  0.81719827504E+03  0.00000000000E+00 0.  1.
          1    1    6    6  503    0  0.76459829519E+02  0.25976508579E+03  0.23116927846E+02  0.27176901530E+03  0.00000000000E+00 0. -1.
         -1    1    6    6    0  503 -0.21460814130E+02  0.42160582014E+02  0.17454779014E+02  0.50425693146E+02  0.00000000000E+00 0.  1.
<mgrwt>
<rscale>  0 0.21100662E+04</rscale>
<asrwt>0</asrwt>
<pdfrwt beam="1">  1        1 0.84785019E-01 0.21100662E+04</pdfrwt>
<pdfrwt beam="2">  1       -1 0.31073225E+00 0.21100662E+04</pdfrwt>
<totfact> 0.10003570E+00</totfact>
</mgrwt>
</event>
<event>
12    3  0.4688899E-008  0.1640804E+04  0.7818608E-02  0.8795865E-01
          1   -1    0    0  501    0  0.00000000000E+00  0.00000000000E+00  0.11202545980E+04  0.11202545980E+04  0.00000000000E+00 0. -1.
         -1   -1    0    0    0  501 -0.00000000000E+00 -0.00000000000E+00 -0.60080935490E+03  0.60080935490E+03  0.00000000000E+00 0.  1.
         23    2    1    2    0    0 -0.98968603294E+01  0.84097297092E+02 -0.40933299468E+03  0.42826064173E+03  0.93184620488E+02 0.  0.
        254    2    1    2    0    0  0.98968603294E+01 -0.84097297092E+02  0.92877823783E+03  0.12928033112E+04  0.89528826821E+03 0.  0.
         23    2    4    4    0    0 -0.23520127844E+03  0.49058402810E+02 -0.57152298312E+02  0.26439793095E+03  0.94411399841E+02 0.  0.
         23    2    4    4    0    0  0.24509813877E+03 -0.13315569990E+03  0.98593053614E+03  0.10284053803E+04  0.88062852647E+02 0.  0.
          3    1    3    3  502    0 -0.40704909078E+02  0.19621597421E+02 -0.86256674035E+02  0.97376129128E+02  0.00000000000E+00 0. -1.
         -3    1    3    3    0  502  0.30808048748E+02  0.64475699671E+02 -0.32307632065E+03  0.33088451260E+03  0.00000000000E+00 0.  1.
         13    1    5    5    0    0  0.68501701828E+01  0.22470486795E+00 -0.11348049257E+02  0.13257207313E+02  0.00000000000E+00 0.  1.
        -13    1    5    5    0    0 -0.24205144863E+03  0.48833697942E+02 -0.45804249055E+02  0.25114072364E+03  0.00000000000E+00 0. -1.
          3    1    6    6  503    0  0.15498599399E+03 -0.73074071531E+02  0.44735624800E+03  0.47904915290E+03  0.00000000000E+00 0. -1.
         -3    1    6    6    0  503  0.90112144780E+02 -0.60081628371E+02  0.53857428814E+03  0.54935622737E+03  0.00000000000E+00 0.  1.
<mgrwt>
<rscale>  0 0.16408040E+04</rscale>
<asrwt>0</asrwt>
<pdfrwt beam="1">  1        1 0.17234686E+00 0.16408040E+04</pdfrwt>
<pdfrwt beam="2">  1       -1 0.92432209E-01 0.16408040E+04</pdfrwt>
<totfact> 0.13330892E+01</totfact>
</mgrwt>
</event>
<event>
12    3  0.4688899E-008  0.2211752E+04  0.7818608E-02  0.8513552E-01
          2   -1    0    0  501    0  0.00000000000E+00  0.00000000000E+00  0.25493428211E+04  0.25493428211E+04  0.00000000000E+00 0. -1.
         -2   -1    0    0    0  501 -0.00000000000E+00 -0.00000000000E+00 -0.47971655185E+03  0.47971655185E+03  0.00000000000E+00 0.  1.
         23    2    1    2    0    0 -0.84857543869E+03  0.35883489896E+03  0.82869318171E+03  0.12422536898E+04  0.87287344390E+02 0.  0.
        254    2    1    2    0    0  0.84857543869E+03 -0.35883489896E+03  0.12409330876E+04  0.17868056832E+04  0.89661410978E+03 0.  0.
         23    2    4    4    0    0  0.58829647376E+03  0.14958023217E+03  0.97248355809E+03  0.11498788719E+04  0.89611172848E+02 0.  0.
         23    2    4    4    0    0  0.26027896493E+03 -0.50841513113E+03  0.26844952948E+03  0.63692681135E+03  0.85904179104E+02 0.  0.
          2    1    3    3  502    0 -0.35580078895E+03  0.14313188517E+03  0.28846796412E+03  0.47989030443E+03  0.00000000000E+00 0. -1.
         -2    1    3    3    0  502 -0.49277464974E+03  0.21570301379E+03  0.54022521760E+03  0.76236338534E+03  0.00000000000E+00 0.  1.
         13    1    5    5    0    0  0.19342276791E+03  0.38873055861E+02  0.24281634866E+03  0.31286300644E+03  0.00000000000E+00 0. -1.
        -13    1    5    5    0    0  0.39487370585E+03  0.11070717631E+03  0.72966720943E+03  0.83701586542E+03  0.00000000000E+00 0.  1.
          4    1    6    6  503    0 -0.32017462744E+01 -0.20429779139E+02  0.21577746084E+02  0.29886889784E+02  0.00000000000E+00 0. -1.
         -4    1    6    6    0  503  0.26348071120E+03 -0.48798535200E+03  0.24687178340E+03  0.60703992157E+03  0.00000000000E+00 0.  1.
<mgrwt>
<rscale>  0 0.22117522E+04</rscale>
<asrwt>0</asrwt>
<pdfrwt beam="1">  1        2 0.39220658E+00 0.22117522E+04</pdfrwt>
<pdfrwt beam="2">  1       -2 0.73802548E-01 0.22117522E+04</pdfrwt>
<totfact> 0.49243966E+00</totfact>
</mgrwt>
</event>
<event>
12    3  0.4688899E-008  0.1431811E+04  0.7818608E-02  0.8931108E-01
          1   -1    0    0  501    0  0.00000000000E+00  0.00000000000E+00  0.14362304903E+04  0.14362304903E+04  0.00000000000E+00 0. -1.
         -1   -1    0    0    0  501 -0.00000000000E+00 -0.00000000000E+00 -0.35685141916E+03  0.35685141916E+03  0.00000000000E+00 0.  1.
         23    2    1    2    0    0  0.22346549188E+03  0.29052926989E+03  0.76820535578E+02  0.38613692449E+03  0.94107635429E+02 0.  0.
        254    2    1    2    0    0 -0.22346549188E+03 -0.29052926989E+03  0.10025585356E+04  0.14069449850E+04  0.91652959080E+03 0.  0.
         23    2    4    4    0    0 -0.57435450413E+03 -0.17772220468E+03  0.62190957865E+03  0.86949258753E+03  0.88190460370E+02 0.  0.
         23    2    4    4    0    0  0.35088901225E+03 -0.11280706521E+03  0.38064895692E+03  0.53745239745E+03  0.90071739431E+02 0.  0.
          3    1    3    3  502    0  0.74497798194E+02  0.52107526088E+02  0.49926088553E+02  0.10371947999E+03  0.00000000000E+00 0. -1.
         -3    1    3    3    0  502  0.14896769368E+03  0.23842174380E+03  0.26894447025E+02  0.28241744450E+03  0.00000000000E+00 0.  1.
         13    1    5    5    0    0 -0.29492318120E+03 -0.11474944570E+03  0.27197420831E+03  0.41727339728E+03  0.00000000000E+00 0. -1.
        -13    1    5    5    0    0 -0.27943132293E+03 -0.62972758984E+02  0.34993537035E+03  0.45221919025E+03  0.00000000000E+00 0.  1.
          2    1    6    6  503    0  0.12586909068E+03 -0.11177720120E+02  0.17653870546E+03  0.21710339459E+03  0.00000000000E+00 0. -1.
         -2    1    6    6    0  503  0.22501992157E+03 -0.10162934509E+03  0.20411025146E+03  0.32034900287E+03  0.00000000000E+00 0.  1.
<mgrwt>
<rscale>  0 0.14318113E+04</rscale>
<asrwt>0</asrwt>
<pdfrwt beam="1">  1        1 0.22095853E+00 0.14318113E+04</pdfrwt>
<pdfrwt beam="2">  1       -1 0.54900219E-01 0.14318113E+04</pdfrwt>
<totfact> 0.23628971E+01</totfact>
</mgrwt>
</event>
<event>
12    3  0.4688899E-008  0.1850276E+04  0.7818608E-02  0.8680011E-01
          1   -1    0    0  501    0  0.00000000000E+00  0.00000000000E+00  0.17114538839E+04  0.17114538839E+04  0.00000000000E+00 0. -1.
         -1   -1    0    0    0  501 -0.00000000000E+00 -0.00000000000E+00 -0.50008970843E+03  0.50008970843E+03  0.00000000000E+00 0.  1.
         23    2    1    2    0    0 -0.60831215063E+03  0.32800022795E+03  0.58544590355E+03  0.91010144959E+03  0.88937733398E+02 0.  0.
        254    2    1    2    0    0  0.60831215063E+03 -0.32800022795E+03  0.62591827188E+03  0.13014421427E+04  0.90793730268E+03 0.  0.
         23    2    4    4    0    0  0.56528209784E+03 -0.59683115853E+03  0.58252903634E+03  0.10117653135E+04  0.92615816474E+02 0.  0.
         23    2    4    4    0    0  0.43030052787E+02  0.26883093059E+03  0.43389235542E+02  0.28967682921E+03  0.88929100629E+02 0.  0.
          1    1    3    3  502    0 -0.21277116656E+03  0.77785034895E+02  0.22566353073E+03  0.31975945658E+03  0.00000000000E+00 0. -1.
         -1    1    3    3    0  502 -0.39554098407E+03  0.25021519305E+03  0.35978237282E+03  0.59034199300E+03  0.00000000000E+00 0.  1.
         13    1    5    5    0    0  0.48918633568E+03 -0.47271822226E+03  0.50156824243E+03  0.84518429380E+03  0.00000000000E+00 0. -1.
        -13    1    5    5    0    0  0.76095762160E+02 -0.12411293627E+03  0.80960793907E+02  0.16658101968E+03  0.00000000000E+00 0.  1.
          3    1    6    6  503    0 -0.27335295734E+02  0.90657375539E+02  0.18846354107E+02  0.96546171315E+02  0.00000000000E+00 0. -1.
         -3    1    6    6    0  503  0.70365348521E+02  0.17817355505E+03  0.24542881435E+02  0.19313065790E+03  0.00000000000E+00 0.  1.
<mgrwt>
<rscale>  0 0.18502762E+04</rscale>
<asrwt>0</asrwt>
<pdfrwt beam="1">  1        1 0.26330060E+00 0.18502762E+04</pdfrwt>
<pdfrwt beam="2">  1       -1 0.76936879E-01 0.18502762E+04</pdfrwt>
<totfact> 0.74523268E+00</totfact>
</mgrwt>
</event>
<event>
12    3  0.4688899E-008  0.1769460E+04  0.7818608E-02  0.8722711E-01
          2   -1    0    0  501    0  0.00000000000E+00  0.00000000000E+00  0.16618163632E+04  0.16618163632E+04  0.00000000000E+00 0. -1.
         -2   -1    0    0    0  501 -0.00000000000E+00 -0.00000000000E+00 -0.47101880003E+03  0.47101880003E+03  0.00000000000E+00 0.  1.
         23    2    1    2    0    0 -0.23441874002E+03  0.29496780286E+03  0.10928666108E+04  0.11596220790E+04  0.91693984318E+02 0.  0.
        254    2    1    2    0    0  0.23441874002E+03 -0.29496780286E+03  0.97930952339E+02  0.97321308418E+03  0.89196136990E+03 0.  0.
         23    2    4    4    0    0  0.82717679086E+02  0.24102427708E+03 -0.19787444698E+03  0.33574079046E+03  0.92912136120E+02 0.  0.
         23    2    4    4    0    0  0.15170106094E+03 -0.53599207994E+03  0.29580539932E+03  0.63747229371E+03  0.92570888194E+02 0.  0.
          2    1    3    3  502    0 -0.16650302980E+03  0.14633365221E+03  0.56059084686E+03  0.60282575782E+03  0.00000000000E+00 0. -1.
         -2    1    3    3    0  502 -0.67915710225E+02  0.14863415064E+03  0.53227576394E+03  0.55679632121E+03  0.00000000000E+00 0.  1.
         13    1    5    5    0    0  0.82414900889E+02  0.10145019974E+03 -0.10975829227E+03  0.17067876739E+03  0.00000000000E+00 0.  1.
        -13    1    5    5    0    0  0.30277819737E+00  0.13957407734E+03 -0.88116154710E+02  0.16506202308E+03  0.00000000000E+00 0. -1.
          3    1    6    6  503    0  0.11391432603E+03 -0.29283459743E+03  0.12619316483E+03  0.33860491724E+03  0.00000000000E+00 0. -1.
         -3    1    6    6    0  503  0.37786734906E+02 -0.24315748251E+03  0.16961223449E+03  0.29886737648E+03  0.00000000000E+00 0.  1.
<mgrwt>
<rscale>  0 0.17694595E+04</rscale>
<asrwt>0</asrwt>
<pdfrwt beam="1">  1        2 0.25566405E+00 0.17694595E+04</pdfrwt>
<pdfrwt beam="2">  1       -2 0.72464431E-01 0.17694595E+04</pdfrwt>
<totfact> 0.16792118E+01</totfact>
</mgrwt>
</event>
<event>
12    3  0.4688899E-008  0.2788979E+04  0.7818608E-02  0.8306698E-01
          2   -1    0    0  501    0  0.00000000000E+00  0.00000000000E+00  0.22840900666E+04  0.22840900666E+04  0.00000000000E+00 0. -1.
         -2   -1    0    0    0  501 -0.00000000000E+00 -0.00000000000E+00 -0.85136781198E+03  0.85136781198E+03  0.00000000000E+00 0.  1.
         23    2    1    2    0    0 -0.49329372081E+03 -0.19877115317E+03 -0.62646257078E+03  0.82689775257E+03  0.91955827960E+02 0.  0.
        254    2    1    2    0    0  0.49329372081E+03  0.19877115317E+03  0.20591848254E+04  0.23085601261E+04  0.89797496845E+03 0.  0.
         23    2    4    4    0    0  0.95280826249E+02  0.28653054034E+03  0.17801908102E+04  0.18078699408E+04  0.90200975140E+02 0.  0.
         23    2    4    4    0    0  0.39801289456E+03 -0.87759387167E+02  0.27899401527E+03  0.50069018523E+03  0.82079393035E+02 0.  0.
          4    1    3    3  502    0 -0.99687335879E+02 -0.10249969568E+02 -0.15378150062E+03  0.18355210907E+03  0.00000000000E+00 0. -1.
         -4    1    3    3    0  502 -0.39360638493E+03 -0.18852118360E+03 -0.47268107016E+03  0.64334564350E+03  0.00000000000E+00 0.  1.
         13    1    5    5    0    0  0.92299480411E+02  0.29305782714E+03  0.17543185877E+04  0.17810209968E+04  0.00000000000E+00 0.  1.
        -13    1    5    5    0    0  0.29813458378E+01 -0.65272868003E+01  0.25872222491E+02  0.26848943976E+02  0.00000000000E+00 0. -1.
          3    1    6    6  503    0  0.58341430041E+02 -0.31715532008E+02  0.76451827538E+02  0.10126440324E+03  0.00000000000E+00 0. -1.
         -3    1    6    6    0  503  0.33967146452E+03 -0.56043855159E+02  0.20254218773E+03  0.39942578199E+03  0.00000000000E+00 0.  1.
<mgrwt>
<rscale>  0 0.27889789E+04</rscale>
<asrwt>0</asrwt>
<pdfrwt beam="1">  1        2 0.35139847E+00 0.27889789E+04</pdfrwt>
<pdfrwt beam="2">  1       -2 0.13097966E+00 0.27889789E+04</pdfrwt>
<totfact> 0.17176436E+00</totfact>
</mgrwt>
</event>
<event>
12    3  0.4688899E-008  0.1963090E+04  0.7818608E-02  0.8624075E-01
         -2   -1    0    0    0  501 -0.00000000000E+00  0.00000000000E+00  0.32701460107E+03  0.32701460107E+03  0.00000000000E+00 0.  1.
          2   -1    0    0  501    0  0.00000000000E+00 -0.00000000000E+00 -0.29461384825E+04  0.29461384825E+04  0.00000000000E+00 0. -1.
         23    2    1    2    0    0  0.44880311292E+03 -0.78465908349E+02  0.23736370442E+00  0.46641062562E+03  0.99788187724E+02 0.  0.
        254    2    1    2    0    0 -0.44880311292E+03  0.78465908349E+02 -0.26193612451E+04  0.28067424579E+04  0.89953808134E+03 0.  0.
         23    2    4    4    0    0 -0.70537240056E+03  0.11783605291E+03 -0.16881106926E+04  0.18356235528E+04  0.91436089083E+02 0.  0.
         23    2    4    4    0    0  0.25656928764E+03 -0.39370144565E+02 -0.93125055248E+03  0.97111890507E+03  0.92013741575E+02 0.  0.
          4    1    3    3  502    0  0.40232639194E+03 -0.64949596737E+02 -0.31147279392E+02  0.40872378054E+03  0.00000000000E+00 0. -1.
         -4    1    3    3    0  502  0.46476720983E+02 -0.13516311612E+02  0.31384643096E+02  0.57686845079E+02  0.00000000000E+00 0.  1.
         13    1    5    5    0    0 -0.66710959944E+03  0.10213537933E+03 -0.15307854031E+04  0.16729527201E+04  0.00000000000E+00 0. -1.
        -13    1    5    5    0    0 -0.38262801123E+02  0.15700673584E+02 -0.15732528954E+03  0.16267083276E+03  0.00000000000E+00 0.  1.
          2    1    6    6  503    0  0.84210318848E+02 -0.57468831226E+02 -0.33005366430E+03  0.34544097279E+03  0.00000000000E+00 0. -1.
         -2    1    6    6    0  503  0.17235896879E+03  0.18098686661E+02 -0.60119688818E+03  0.62567793228E+03  0.00000000000E+00 0.  1.
<mgrwt>
<rscale>  0 0.19630897E+04</rscale>
<asrwt>0</asrwt>
<pdfrwt beam="1">  1        2 0.45325207E+00 0.19630897E+04</pdfrwt>
<pdfrwt beam="2">  1       -2 0.50309939E-01 0.19630897E+04</pdfrwt>
<totfact> 0.65661530E+00</totfact>
</mgrwt>
</event>
<event>
12    3  0.4688899E-008  0.1745187E+04  0.7818608E-02  0.8736004E-01
          2   -1    0    0  501    0  0.00000000000E+00  0.00000000000E+00  0.22394751504E+04  0.22394751504E+04  0.00000000000E+00 0. -1.
         -2   -1    0    0    0  501 -0.00000000000E+00 -0.00000000000E+00 -0.33999889002E+03  0.33999889002E+03  0.00000000000E+00 0.  1.
         23    2    1    2    0    0 -0.22398143733E+02 -0.62517908888E+03  0.56900003758E+03  0.85061193243E+03  0.91809840517E+02 0.  0.
        254    2    1    2    0    0  0.22398143733E+02  0.62517908888E+03  0.13304762229E+04  0.17288621080E+04  0.90964093960E+03 0.  0.
         23    2    4    4    0    0 -0.16045371550E+03 -0.14152388920E+03  0.75694928297E+02  0.24413352752E+03  0.89983615514E+02 0.  0.
         23    2    4    4    0    0  0.18285185923E+03  0.76670297808E+03  0.12547812946E+04  0.14847285805E+04  0.93137541251E+02 0.  0.
          3    1    3    3  502    0  0.33878855867E+02 -0.31180460089E+03  0.29441663414E+03  0.43017559260E+03  0.00000000000E+00 0. -1.
         -3    1    3    3    0  502 -0.56276999599E+02 -0.31337448799E+03  0.27458340344E+03  0.42043633984E+03  0.00000000000E+00 0.  1.
         13    1    5    5    0    0 -0.73957141147E+02 -0.12012407277E+02  0.37460920835E+02  0.83769190309E+02  0.00000000000E+00 0.  1.
        -13    1    5    5    0    0 -0.86496574348E+02 -0.12951148192E+03  0.38234007461E+02  0.16036433721E+03  0.00000000000E+00 0. -1.
          4    1    6    6  503    0  0.17209012152E+03  0.61193187571E+03  0.95561078838E+03  0.11477227929E+04  0.00000000000E+00 0.  1.
         -4    1    6    6    0  503  0.10761737712E+02  0.15477110237E+03  0.29917050618E+03  0.33700578763E+03  0.00000000000E+00 0. -1.
<mgrwt>
<rscale>  0 0.17451866E+04</rscale>
<asrwt>0</asrwt>
<pdfrwt beam="1">  1        2 0.34453463E+00 0.17451866E+04</pdfrwt>
<pdfrwt beam="2">  1       -2 0.52307523E-01 0.17451866E+04</pdfrwt>
<totfact> 0.16054500E+01</totfact>
</mgrwt>
</event>
<event>
12    3  0.4688899E-008  0.1414411E+04  0.7818608E-02  0.8943453E-01
          2   -1    0    0  501    0  0.00000000000E+00  0.00000000000E+00  0.30901807861E+04  0.30901807861E+04  0.00000000000E+00 0. -1.
         -2   -1    0    0    0  501 -0.00000000000E+00 -0.00000000000E+00 -0.16184802051E+03  0.16184802051E+03  0.00000000000E+00 0.  1.
         23    2    1    2    0    0 -0.41536286350E+03 -0.38487358501E+01  0.89454006175E+03  0.99044887638E+03  0.90807122614E+02 0.  0.
        254    2    1    2    0    0  0.41536286350E+03  0.38487358501E+01  0.20337927039E+04  0.22615799302E+04  0.89771370572E+03 0.  0.
         23    2    4    4    0    0  0.52588457337E+03 -0.32230670733E+03  0.11365489760E+04  0.12963988090E+04  0.92033140064E+02 0.  0.
         23    2    4    4    0    0 -0.11052170987E+03  0.32615544318E+03  0.89724372783E+03  0.96518112127E+03  0.89083490462E+02 0.  0.
          3    1    3    3  502    0 -0.35120018279E+02 -0.93658007371E+01  0.15089045357E+03  0.15520651689E+03  0.00000000000E+00 0. -1.
         -3    1    3    3    0  502 -0.38024284523E+03  0.55170648870E+01  0.74364960818E+03  0.83524235949E+03  0.00000000000E+00 0.  1.
         13    1    5    5    0    0  0.42326935917E+03 -0.22665402877E+03  0.93141071819E+03  0.10478811598E+04  0.00000000000E+00 0. -1.
        -13    1    5    5    0    0  0.10261521420E+03 -0.95652678560E+02  0.20513825785E+03  0.24851764914E+03  0.00000000000E+00 0.  1.
          1    1    6    6  503    0 -0.12523693386E+03  0.26962660871E+03  0.74843300526E+03  0.80531655955E+03  0.00000000000E+00 0. -1.
         -1    1    6    6    0  503  0.14715223995E+02  0.56528834467E+02  0.14881072257E+03  0.15986456172E+03  0.00000000000E+00 0.  1.
<mgrwt>
<rscale>  0 0.14144110E+04</rscale>
<asrwt>0</asrwt>
<pdfrwt beam="1">  1        2 0.47541239E+00 0.14144110E+04</pdfrwt>
<pdfrwt beam="2">  1       -2 0.24899698E-01 0.14144110E+04</pdfrwt>
<totfact> 0.21669863E+01</totfact>
</mgrwt>
</event>
<event>
12    3  0.4688899E-008  0.1459568E+04  0.7818608E-02  0.8911794E-01
         -1   -1    0    0    0  501 -0.00000000000E+00  0.00000000000E+00  0.32040538821E+03  0.32040538821E+03  0.00000000000E+00 0.  1.
          1   -1    0    0  501    0  0.00000000000E+00 -0.00000000000E+00 -0.16622203084E+04  0.16622203084E+04  0.00000000000E+00 0. -1.
         23    2    1    2    0    0 -0.30284184729E+03 -0.67985367200E+02 -0.84406424988E+03  0.90409786626E+03  0.92807861866E+02 0.  0.
        254    2    1    2    0    0  0.30284184729E+03  0.67985367200E+02 -0.49775067034E+03  0.10785278304E+04  0.90505875857E+03 0.  0.
         23    2    4    4    0    0 -0.27785474467E+03  0.17056509374E+03 -0.29115087265E+03  0.44698543495E+03  0.93442164343E+02 0.  0.
         23    2    4    4    0    0  0.58069659196E+03 -0.10257972654E+03 -0.20659979769E+03  0.63154239543E+03  0.91821504117E+02 0.  0.
          3    1    3    3  502    0 -0.24007064502E+03 -0.46596593497E+02 -0.75106867514E+03  0.78987930210E+03  0.00000000000E+00 0. -1.
         -3    1    3    3    0  502 -0.62771202272E+02 -0.21388773702E+02 -0.92995574749E+02  0.11421856416E+03  0.00000000000E+00 0.  1.
         13    1    5    5    0    0 -0.11100622639E+03  0.10766656511E+03 -0.17804700956E+03  0.23582877083E+03  0.00000000000E+00 0.  1.
        -13    1    5    5    0    0 -0.16684851828E+03  0.62898528630E+02 -0.11310386309E+03  0.21115666412E+03  0.00000000000E+00 0. -1.
          3    1    6    6  503    0  0.13364199802E+03 -0.24884007332E+02 -0.90042736803E+02  0.16305548721E+03  0.00000000000E+00 0. -1.
         -3    1    6    6    0  503  0.44705459393E+03 -0.77695719205E+02 -0.11655706089E+03  0.46848690823E+03  0.00000000000E+00 0.  1.
<mgrwt>
<rscale>  0 0.14595675E+04</rscale>
<asrwt>0</asrwt>
<pdfrwt beam="1">  1        1 0.25572621E+00 0.14595675E+04</pdfrwt>
<pdfrwt beam="2">  1       -1 0.49293136E-01 0.14595675E+04</pdfrwt>
<totfact> 0.20245623E+01</totfact>
</mgrwt>
</event>
<event>
12    3  0.4688899E-008  0.1735483E+04  0.7818608E-02  0.8741382E-01
         -2   -1    0    0    0  501 -0.00000000000E+00  0.00000000000E+00  0.70287637805E+03  0.70287637805E+03  0.00000000000E+00 0. -1.
          2   -1    0    0  501    0  0.00000000000E+00 -0.00000000000E+00 -0.10712775254E+04  0.10712775254E+04  0.00000000000E+00 0.  1.
         23    2    1    2    0    0 -0.51439093609E+03 -0.24441850516E+03 -0.33651787347E+03  0.66761042729E+03  0.90116384012E+02 0.  0.
        254    2    1    2    0    0  0.51439093609E+03  0.24441850516E+03 -0.31883273835E+02  0.11065434761E+04  0.94820012687E+03 0.  0.
         23    2    4    4    0    0  0.59123426963E+03  0.10311262064E+03 -0.37768433847E+03  0.71455159956E+03  0.88024739638E+02 0.  0.
         23    2    4    4    0    0 -0.76843333539E+02  0.14130588452E+03  0.34580106464E+03  0.39199187656E+03  0.90592516680E+02 0.  0.
          2    1    3    3  502    0 -0.81254432756E+02 -0.69962066672E+02 -0.39854319914E+02  0.11439117287E+03  0.00000000000E+00 0. -1.
         -2    1    3    3    0  502 -0.43313650333E+03 -0.17445643848E+03 -0.29666355356E+03  0.55321925442E+03  0.00000000000E+00 0.  1.
         13    1    5    5    0    0  0.30912881620E+03  0.13266396796E+02 -0.17150036648E+03  0.35376404282E+03  0.00000000000E+00 0.  1.
        -13    1    5    5    0    0  0.28210545343E+03  0.89846223843E+02 -0.20618397199E+03  0.36078755674E+03  0.00000000000E+00 0. -1.
          2    1    6    6  503    0 -0.39129885268E+02  0.66725705340E+02  0.26380272674E+03  0.27490970574E+03  0.00000000000E+00 0. -1.
         -2    1    6    6    0  503 -0.37713448271E+02  0.74580179178E+02  0.81998337893E+02  0.11708217082E+03  0.00000000000E+00 0.  1.
<mgrwt>
<rscale>  0 0.17354834E+04</rscale>
<asrwt>0</asrwt>
<pdfrwt beam="1">  1        2 0.16481193E+00 0.17354834E+04</pdfrwt>
<pdfrwt beam="2">  1       -2 0.10813483E+00 0.17354834E+04</pdfrwt>
<totfact> 0.14752606E+01</totfact>
</mgrwt>
</event>
<event>
12    3  0.4688899E-008  0.1922042E+04  0.7818608E-02  0.8643962E-01
          2   -1    0    0  501    0  0.00000000000E+00  0.00000000000E+00  0.11376057106E+04  0.11376057106E+04  0.00000000000E+00 0. -1.
         -2   -1    0    0    0  501 -0.00000000000E+00 -0.00000000000E+00 -0.81184697101E+03  0.81184697101E+03  0.00000000000E+00 0.  1.
         23    2    1    2    0    0  0.78904067025E+02  0.48936566280E+03  0.70178661190E+03  0.86403695493E+03  0.91382750640E+02 0.  0.
        254    2    1    2    0    0 -0.78904067025E+02 -0.48936566280E+03 -0.37602787233E+03  0.10854157267E+04  0.88939627569E+03 0.  0.
         23    2    4    4    0    0  0.32102655954E+03 -0.12972096225E+03 -0.40468335206E+03  0.53982056332E+03  0.88045699321E+02 0.  0.
         23    2    4    4    0    0 -0.39993062657E+03 -0.35964470055E+03  0.28655479726E+02  0.54559516335E+03  0.86972001535E+02 0.  0.
          3    1    3    3  502    0  0.97320832671E+02  0.38633520455E+03  0.57677175418E+03  0.70099350294E+03  0.00000000000E+00 0. -1.
         -3    1    3    3    0  502 -0.18416765646E+02  0.10303045825E+03  0.12501485772E+03  0.16304345198E+03  0.00000000000E+00 0.  1.
         13    1    5    5    0    0  0.16449647040E+02 -0.40114963862E+01  0.12642915858E+01  0.16978852264E+02  0.00000000000E+00 0. -1.
        -13    1    5    5    0    0  0.30457691250E+03 -0.12570946586E+03 -0.40594764364E+03  0.52284171105E+03  0.00000000000E+00 0.  1.
          3    1    6    6  503    0 -0.59104068471E+02 -0.56388569280E+02  0.36137085836E+02  0.89324412273E+02  0.00000000000E+00 0. -1.
         -3    1    6    6    0  503 -0.34082655810E+03 -0.30325613127E+03 -0.74816061105E+01  0.45627075108E+03  0.00000000000E+00 0.  1.
<mgrwt>
<rscale>  0 0.19220424E+04</rscale>
<asrwt>0</asrwt>
<pdfrwt beam="1">  1        2 0.17501626E+00 0.19220424E+04</pdfrwt>
<pdfrwt beam="2">  1       -2 0.12489953E+00 0.19220424E+04</pdfrwt>
<totfact> 0.92803857E+00</totfact>
</mgrwt>
</event>
<event>
12    3  0.4688899E-008  0.2156574E+04  0.7818608E-02  0.8536724E-01
         -2   -1    0    0    0  501 -0.00000000000E+00  0.00000000000E+00  0.82155349720E+03  0.82155349720E+03  0.00000000000E+00 0.  1.
          2   -1    0    0  501    0  0.00000000000E+00 -0.00000000000E+00 -0.14152485831E+04  0.14152485831E+04  0.00000000000E+00 0. -1.
         23    2    1    2    0    0  0.11929785492E+03 -0.66408925769E+03  0.35637053687E+03  0.76845414030E+03  0.90968598021E+02 0.  0.
        254    2    1    2    0    0 -0.11929785492E+03  0.66408925769E+03 -0.95006562278E+03  0.14683479400E+04  0.89340610308E+03 0.  0.
         23    2    4    4    0    0  0.36844662778E+03  0.41794420657E+03 -0.53512179254E+03  0.77660980914E+03  0.79606441215E+02 0.  0.
         23    2    4    4    0    0 -0.48774448270E+03  0.24614505112E+03 -0.41494383024E+03  0.69173813088E+03  0.88550510225E+02 0.  0.
          4    1    3    3  502    0 -0.12253315462E+02 -0.96615674978E+02  0.65340461014E+02  0.11727791027E+03  0.00000000000E+00 0. -1.
         -4    1    3    3    0  502  0.13155117038E+03 -0.56747358271E+03  0.29103007585E+03  0.65117623003E+03  0.00000000000E+00 0.  1.
         13    1    5    5    0    0  0.13975782850E+03  0.17321803916E+03 -0.16252038740E+03  0.27558957897E+03  0.00000000000E+00 0.  1.
        -13    1    5    5    0    0  0.22868879928E+03  0.24472616741E+03 -0.37260140514E+03  0.50102023017E+03  0.00000000000E+00 0. -1.
          3    1    6    6  503    0 -0.30579718335E+03  0.12436829251E+03 -0.20615397823E+03  0.38920284206E+03  0.00000000000E+00 0. -1.
         -3    1    6    6    0  503 -0.18194729935E+03  0.12177675861E+03 -0.20878985201E+03  0.30253528882E+03  0.00000000000E+00 0.  1.
<mgrwt>
<rscale>  0 0.21565736E+04</rscale>
<asrwt>0</asrwt>
<pdfrwt beam="1">  1        2 0.21773055E+00 0.21565736E+04</pdfrwt>
<pdfrwt beam="2">  1       -2 0.12639285E+00 0.21565736E+04</pdfrwt>
<totfact> 0.60676016E+00</totfact>
</mgrwt>
</event>
<event>
12    3  0.4688899E-008  0.1633218E+04  0.7818608E-02  0.8800397E-01
          1   -1    0    0  501    0  0.00000000000E+00  0.00000000000E+00  0.90714516986E+03  0.90714516986E+03  0.00000000000E+00 0. -1.
         -1   -1    0    0    0  501 -0.00000000000E+00 -0.00000000000E+00 -0.73510876914E+03  0.73510876914E+03  0.00000000000E+00 0.  1.
         23    2    1    2    0    0 -0.22995014676E+03 -0.35863519068E+03  0.44487194718E+03  0.62255521548E+03  0.90375200965E+02 0.  0.
        254    2    1    2    0    0  0.22995014676E+03  0.35863519068E+03 -0.27283554646E+03  0.10196987235E+04  0.88535302639E+03 0.  0.
         23    2    4    4    0    0 -0.27901554861E+03  0.61075413407E+02  0.99683355606E+02  0.31638673265E+03  0.92649396771E+02 0.  0.
         23    2    4    4    0    0  0.50896569537E+03  0.29755977728E+03 -0.37251890207E+03  0.70331199087E+03  0.91046823074E+02 0.  0.
          3    1    3    3  502    0 -0.10636246231E+03 -0.10892295026E+03  0.20195022440E+03  0.25290527005E+03  0.00000000000E+00 0. -1.
         -3    1    3    3    0  502 -0.12358768445E+03 -0.24971224042E+03  0.24292172278E+03  0.36964994543E+03  0.00000000000E+00 0.  1.
         13    1    5    5    0    0 -0.25590986763E+03  0.79120753564E+02  0.75272672462E+02  0.27823718158E+03  0.00000000000E+00 0. -1.
        -13    1    5    5    0    0 -0.23105680976E+02 -0.18045340157E+02  0.24410683144E+02  0.38149551063E+02  0.00000000000E+00 0.  1.
          3    1    6    6  503    0  0.51245514229E+03  0.29434008198E+03 -0.37248523110E+03  0.69856395850E+03  0.00000000000E+00 0. -1.
         -3    1    6    6    0  503 -0.34894469264E+01  0.32196953004E+01 -0.33670961930E-01  0.47480323728E+01  0.00000000000E+00 0.  1.
<mgrwt>
<rscale>  0 0.16332181E+04</rscale>
<asrwt>0</asrwt>
<pdfrwt beam="1">  1        1 0.13956080E+00 0.16332181E+04</pdfrwt>
<pdfrwt beam="2">  1       -1 0.11309366E+00 0.16332181E+04</pdfrwt>
<totfact> 0.12276900E+01</totfact>
</mgrwt>
</event>
<event>
12    3  0.4688899E-008  0.1648754E+04  0.7818608E-02  0.8791144E-01
          2   -1    0    0  501    0  0.00000000000E+00  0.00000000000E+00  0.13555568967E+04  0.13555568967E+04  0.00000000000E+00 0. -1.
         -2   -1    0    0    0  501 -0.00000000000E+00 -0.00000000000E+00 -0.50134180745E+03  0.50134180745E+03  0.00000000000E+00 0.  1.
         23    2    1    2    0    0  0.43080538633E+02 -0.46405055601E+03 -0.83449143268E+02  0.48219676868E+03  0.91384423564E+02 0.  0.
        254    2    1    2    0    0 -0.43080538633E+02  0.46405055601E+03  0.93766423255E+03  0.13747019355E+04  0.89072574181E+03 0.  0.
         23    2    4    4    0    0  0.16974414469E+03 -0.15912197678E+03  0.32345598152E+02  0.25180427179E+03  0.90698817096E+02 0.  0.
         23    2    4    4    0    0 -0.21282468332E+03  0.62317253280E+03  0.90531863440E+03  0.11228976637E+04  0.87515609537E+02 0.  0.
          3    1    3    3  502    0  0.25656519351E+01 -0.59661353068E+00  0.76930060152E+01  0.81314733663E+01  0.00000000000E+00 0. -1.
         -3    1    3    3    0  502  0.40514886698E+02 -0.46345394248E+03 -0.91142149283E+02  0.47406529532E+03  0.00000000000E+00 0.  1.
         13    1    5    5    0    0  0.22205703028E+02 -0.67795318057E+02  0.32242724275E+02  0.78287238207E+02  0.00000000000E+00 0.  1.
        -13    1    5    5    0    0  0.14753844166E+03 -0.91326658724E+02  0.10287387779E+00  0.17351703359E+03  0.00000000000E+00 0. -1.
          1    1    6    6  503    0 -0.21241339429E+03  0.61900257397E+03  0.87696170580E+03  0.10942328226E+04  0.00000000000E+00 0. -1.
         -1    1    6    6    0  503 -0.41128902847E+00  0.41699588278E+01  0.28356928597E+02  0.28664841090E+02  0.00000000000E+00 0.  1.
<mgrwt>
<rscale>  0 0.16487539E+04</rscale>
<asrwt>0</asrwt>
<pdfrwt beam="1">  1        2 0.20854721E+00 0.16487539E+04</pdfrwt>
<pdfrwt beam="2">  1       -2 0.77129509E-01 0.16487539E+04</pdfrwt>
<totfact> 0.21999445E+01</totfact>
</mgrwt>
</event>
<event>
12    3  0.4688899E-008  0.1583886E+04  0.7818608E-02  0.8830509E-01
         -2   -1    0    0    0  501 -0.00000000000E+00  0.00000000000E+00  0.34426389105E+03  0.34426389105E+03  0.00000000000E+00 0.  1.
          2   -1    0    0  501    0  0.00000000000E+00 -0.00000000000E+00 -0.18217812104E+04  0.18217812104E+04  0.00000000000E+00 0. -1.
         23    2    1    2    0    0 -0.45033367009E+03 -0.18303676881E+03 -0.30969646602E+03  0.58360494058E+03  0.91542080217E+02 0.  0.
        254    2    1    2    0    0  0.45033367009E+03  0.18303676881E+03 -0.11678208533E+04  0.15824401608E+04  0.95079358647E+03 0.  0.
         23    2    4    4    0    0 -0.19096615287E+03  0.18329950765E+02  0.25271594589E+02  0.21500211489E+03  0.93718713594E+02 0.  0.
         23    2    4    4    0    0  0.64129982296E+03  0.16470681805E+03 -0.11930924479E+04  0.13674380459E+04  0.89573553405E+02 0.  0.
          3    1    3    3  502    0 -0.19397351066E+03 -0.45069454378E+02 -0.16440205819E+03  0.25823441926E+03  0.00000000000E+00 0. -1.
         -3    1    3    3    0  502 -0.25636015943E+03 -0.13796731443E+03 -0.14529440783E+03  0.32537052132E+03  0.00000000000E+00 0.  1.
         13    1    5    5    0    0 -0.11885605965E+03 -0.32999675348E+01  0.58732671821E+02  0.13261666351E+03  0.00000000000E+00 0. -1.
        -13    1    5    5    0    0 -0.72110093218E+02  0.21629918300E+02 -0.33461077232E+02  0.82385451380E+02  0.00000000000E+00 0.  1.
          4    1    6    6  503    0  0.43702180279E+03  0.11253760328E+03 -0.89480539090E+03  0.10021623900E+04  0.00000000000E+00 0. -1.
         -4    1    6    6    0  503  0.20427802017E+03  0.52169214764E+02 -0.29828705698E+03  0.36527565598E+03  0.00000000000E+00 0.  1.
<mgrwt>
<rscale>  0 0.15838857E+04</rscale>
<asrwt>0</asrwt>
<pdfrwt beam="1">  1        2 0.28027403E+00 0.15838857E+04</pdfrwt>
<pdfrwt beam="2">  1       -2 0.52963676E-01 0.15838857E+04</pdfrwt>
<totfact> 0.27087035E+01</totfact>
</mgrwt>
</event>
<event>
12    3  0.4688899E-008  0.1455388E+04  0.7818608E-02  0.8914673E-01
         -2   -1    0    0    0  501 -0.00000000000E+00  0.00000000000E+00  0.14740346871E+03  0.14740346871E+03  0.00000000000E+00 0.  1.
          2   -1    0    0  501    0  0.00000000000E+00 -0.00000000000E+00 -0.35924440416E+04  0.35924440416E+04  0.00000000000E+00 0. -1.
         23    2    1    2    0    0 -0.12862153234E+01  0.39880487526E+03 -0.15556192409E+04  0.16086470942E+04  0.93526830543E+02 0.  0.
        254    2    1    2    0    0  0.12862153234E+01 -0.39880487526E+03 -0.18894213320E+04  0.21312004162E+04  0.90169576972E+03 0.  0.
         23    2    4    4    0    0 -0.78446873237E+02  0.38769817623E+02  0.52683888673E+02  0.13668310601E+03  0.90827686651E+02 0.  0.
         23    2    4    4    0    0  0.79733088561E+02 -0.43757469289E+03 -0.19421052207E+04  0.19945173101E+04  0.92182618032E+02 0.  0.
          4    1    3    3  502    0  0.27111693542E+02  0.35706803420E+03 -0.13224242816E+04  0.13700505850E+04  0.00000000000E+00 0. -1.
         -4    1    3    3    0  502 -0.28397908866E+02  0.41736841066E+02 -0.23319495933E+03  0.23859650917E+03  0.00000000000E+00 0.  1.
         13    1    5    5    0    0 -0.84804710071E+01 -0.70658464516E+01 -0.21958862259E+02  0.24577148051E+02  0.00000000000E+00 0. -1.
        -13    1    5    5    0    0 -0.69966402230E+02  0.45835664075E+02  0.74642750932E+02  0.11210595795E+03  0.00000000000E+00 0.  1.
          1    1    6    6  503    0  0.53723376626E+02 -0.15814241114E+03 -0.56800141211E+03  0.59204799430E+03  0.00000000000E+00 0. -1.
         -1    1    6    6    0  503  0.26009711935E+02 -0.27943228174E+03 -0.13741038086E+04  0.14024693158E+04  0.00000000000E+00 0.  1.
<mgrwt>
<rscale>  0 0.14553882E+04</rscale>
<asrwt>0</asrwt>
<pdfrwt beam="1">  1        2 0.55268368E+00 0.14553882E+04</pdfrwt>
<pdfrwt beam="2">  1       -2 0.22677458E-01 0.14553882E+04</pdfrwt>
<totfact> 0.11791115E+01</totfact>
</mgrwt>
</event>
<event>
12    3  0.4688899E-008  0.1696072E+04  0.7818608E-02  0.8763608E-01
         -2   -1    0    0    0  501 -0.00000000000E+00  0.00000000000E+00  0.66043733789E+03  0.66043733789E+03  0.00000000000E+00 0.  1.
          2   -1    0    0  501    0  0.00000000000E+00 -0.00000000000E+00 -0.10889223785E+04  0.10889223785E+04  0.00000000000E+00 0. -1.
         23    2    1    2    0    0  0.78443370222E+02  0.32003922372E+03 -0.67511009856E+03  0.75727610105E+03  0.95472409554E+02 0.  0.
        254    2    1    2    0    0 -0.78443370222E+02 -0.32003922372E+03  0.24662505795E+03  0.99208361534E+03  0.90267796781E+03 0.  0.
         23    2    4    4    0    0 -0.28813800511E+03 -0.49655492825E+03 -0.45431385751E+02  0.58138665900E+03  0.79725339079E+02 0.  0.
         23    2    4    4    0    0  0.20969463488E+03  0.17651570454E+03  0.29205644370E+03  0.41069695634E+03  0.90804128728E+02 0.  0.
          4    1    3    3  502    0  0.17207867850E+02  0.48916629306E+02 -0.20208844273E+03  0.20863529429E+03  0.00000000000E+00 0.  1.
         -4    1    3    3    0  502  0.61235502372E+02  0.27112259441E+03 -0.47302165583E+03  0.54864080675E+03  0.00000000000E+00 0. -1.
         13    1    5    5    0    0 -0.71210174632E+02 -0.70103355082E+02  0.64081679956E+01  0.10013208268E+03  0.00000000000E+00 0.  1.
        -13    1    5    5    0    0 -0.21692783047E+03 -0.42645157317E+03 -0.51839553746E+02  0.48125457632E+03  0.00000000000E+00 0. -1.
          4    1    6    6  503    0  0.10693860761E+03  0.43878764286E+02  0.81343531813E+02  0.14134348914E+03  0.00000000000E+00 0. -1.
         -4    1    6    6    0  503  0.10275602727E+03  0.13263694025E+03  0.21071291189E+03  0.26935346721E+03  0.00000000000E+00 0.  1.
<mgrwt>
<rscale>  0 0.16960719E+04</rscale>
<asrwt>0</asrwt>
<pdfrwt beam="1">  1        2 0.16752652E+00 0.16960719E+04</pdfrwt>
<pdfrwt beam="2">  1       -2 0.10160575E+00 0.16960719E+04</pdfrwt>
<totfact> 0.16756896E+01</totfact>
</mgrwt>
</event>
<event>
12    3  0.4688899E-008  0.1258603E+04  0.7818608E-02  0.9063053E-01
          1   -1    0    0  501    0  0.00000000000E+00  0.00000000000E+00  0.25293388426E+03  0.25293388426E+03  0.00000000000E+00 0. -1.
         -1   -1    0    0    0  501 -0.00000000000E+00 -0.00000000000E+00 -0.15657075114E+04  0.15657075114E+04  0.00000000000E+00 0.  1.
         23    2    1    2    0    0  0.12814725563E+03 -0.15684225516E+03 -0.68835910266E+03  0.72333322146E+03  0.91386448258E+02 0.  0.
        254    2    1    2    0    0 -0.12814725563E+03  0.15684225516E+03 -0.62441452453E+03  0.10953081742E+04  0.87680401801E+03 0.  0.
         23    2    4    4    0    0  0.23847142018E+03  0.32547234250E+03 -0.95466563145E+02  0.42428746228E+03  0.90028451031E+02 0.  0.
         23    2    4    4    0    0 -0.36661867581E+03 -0.16863008734E+03 -0.52894796138E+03  0.67102071196E+03  0.87392735467E+02 0.  0.
          1    1    3    3  502    0 -0.63799738058E+01 -0.21976468291E+02 -0.16113299512E+03  0.16274984283E+03  0.00000000000E+00 0. -1.
         -1    1    3    3    0  502  0.13452722943E+03 -0.13486578687E+03 -0.52722610753E+03  0.56058337863E+03  0.00000000000E+00 0.  1.
         13    1    5    5    0    0  0.11512088985E+03  0.20211211425E+03 -0.91039237261E+02  0.24978044105E+03  0.00000000000E+00 0. -1.
        -13    1    5    5    0    0  0.12335053033E+03  0.12336022825E+03 -0.44273258833E+01  0.17450702124E+03  0.00000000000E+00 0.  1.
          2    1    6    6  503    0 -0.48053081266E+02  0.57159383477E+00 -0.35302590612E+02  0.59629675855E+02  0.00000000000E+00 0. -1.
         -2    1    6    6    0  503 -0.31856559455E+03 -0.16920168118E+03 -0.49364537077E+03  0.61139103610E+03  0.00000000000E+00 0.  1.
<mgrwt>
<rscale>  0 0.12586032E+04</rscale>
<asrwt>0</asrwt>
<pdfrwt beam="1">  1        1 0.38912905E-01 0.12586032E+04</pdfrwt>
<pdfrwt beam="2">  1       -1 0.24087808E+00 0.12586032E+04</pdfrwt>
<totfact> 0.86484901E+00</totfact>
</mgrwt>
</event>
<event>
12    3  0.4688899E-008  0.1171872E+04  0.7818608E-02  0.9137840E-01
         -1   -1    0    0    0  501 -0.00000000000E+00  0.00000000000E+00  0.34357508549E+03  0.34357508549E+03  0.00000000000E+00 0.  1.
          1   -1    0    0  501    0  0.00000000000E+00 -0.00000000000E+00 -0.99925979251E+03  0.99925979251E+03  0.00000000000E+00 0. -1.
         23    2    1    2    0    0 -0.11433181631E+02 -0.24051759077E+03 -0.88393834549E+02  0.26961270110E+03  0.83054858355E+02 0.  0.
        254    2    1    2    0    0  0.11433181631E+02  0.24051759077E+03 -0.56729087247E+03  0.10732221769E+04  0.87863956085E+03 0.  0.
         23    2    4    4    0    0  0.99230388251E+02  0.55448203001E+03 -0.38909414466E+03  0.69070954777E+03  0.91588396740E+02 0.  0.
         23    2    4    4    0    0 -0.87797206620E+02 -0.31396443924E+03 -0.17819672781E+03  0.38251262913E+03  0.90993511020E+02 0.  0.
          2    1    3    3  502    0 -0.39175808016E+02 -0.20001781177E+03 -0.83569741289E+02  0.22028565686E+03  0.00000000000E+00 0. -1.
         -2    1    3    3    0  502  0.27742626384E+02 -0.40499778999E+02 -0.48240932595E+01  0.49327044240E+02  0.00000000000E+00 0.  1.
         13    1    5    5    0    0  0.57271460187E+02  0.11204434086E+03 -0.74867165964E+02  0.14642078749E+03  0.00000000000E+00 0. -1.
        -13    1    5    5    0    0  0.41958928064E+02  0.44243768915E+03 -0.31422697870E+03  0.54428876028E+03  0.00000000000E+00 0.  1.
          3    1    6    6  503    0 -0.85279401605E+02 -0.18748208794E+03 -0.74805485549E+02  0.21913003058E+03  0.00000000000E+00 0. -1.
         -3    1    6    6    0  503 -0.25178050145E+01 -0.12648235130E+03 -0.10339124226E+03  0.16338259855E+03  0.00000000000E+00 0.  1.
<mgrwt>
<rscale>  0 0.11718716E+04</rscale>
<asrwt>0</asrwt>
<pdfrwt beam="1">  1        1 0.15373228E+00 0.11718716E+04</pdfrwt>
<pdfrwt beam="2">  1       -1 0.52857706E-01 0.11718716E+04</pdfrwt>
<totfact> 0.54201513E+01</totfact>
</mgrwt>
</event>
<event>
12    3  0.4688899E-008  0.1460075E+04  0.7818608E-02  0.8911445E-01
         -2   -1    0    0    0  501 -0.00000000000E+00  0.00000000000E+00  0.34530297970E+03  0.34530297970E+03  0.00000000000E+00 0.  1.
          2   -1    0    0  501    0  0.00000000000E+00 -0.00000000000E+00 -0.15434412028E+04  0.15434412028E+04  0.00000000000E+00 0. -1.
         23    2    1    2    0    0 -0.30264491541E+03  0.69937571388E+02 -0.78942903898E+03  0.85339244961E+03  0.92710607594E+02 0.  0.
        254    2    1    2    0    0  0.30264491541E+03 -0.69937571388E+02 -0.40870918413E+03  0.10353517329E+04  0.89912446575E+03 0.  0.
         23    2    4    4    0    0  0.26071843231E+03 -0.35217066391E+03  0.86882721584E+02  0.45632964936E+03  0.93219440652E+02 0.  0.
         23    2    4    4    0    0  0.41926483099E+02  0.28223309252E+03 -0.49559190572E+03  0.57902208354E+03  0.90784842973E+02 0.  0.
          4    1    3    3  502    0 -0.19719552589E+03  0.19513585103E+02 -0.58817134145E+03  0.62065480127E+03  0.00000000000E+00 0. -1.
         -4    1    3    3    0  502 -0.10544938952E+03  0.50423986284E+02 -0.20125769753E+03  0.23273764834E+03  0.00000000000E+00 0.  1.
         13    1    5    5    0    0  0.25673346214E+03 -0.35798178519E+03  0.82974043700E+02  0.44827192756E+03  0.00000000000E+00 0. -1.
        -13    1    5    5    0    0  0.39849701683E+01  0.58111212846E+01  0.39086778843E+01  0.80577218014E+01  0.00000000000E+00 0.  1.
          4    1    6    6  503    0 -0.57400909114E+01  0.21587066935E+03 -0.33013057341E+03  0.39448610879E+03  0.00000000000E+00 0. -1.
         -4    1    6    6    0  503  0.47666574011E+02  0.66362423174E+02 -0.16546133231E+03  0.18453597475E+03  0.00000000000E+00 0.  1.
<mgrwt>
<rscale>  0 0.14600751E+04</rscale>
<asrwt>0</asrwt>
<pdfrwt beam="1">  1        2 0.23745250E+00 0.14600751E+04</pdfrwt>
<pdfrwt beam="2">  1       -2 0.53123535E-01 0.14600751E+04</pdfrwt>
<totfact> 0.38838097E+01</totfact>
</mgrwt>
</event>
<event>
12    3  0.4688899E-008  0.2519873E+04  0.7818608E-02  0.8395940E-01
         -1   -1    0    0    0  501 -0.00000000000E+00  0.00000000000E+00  0.62970842004E+03  0.62970842004E+03  0.00000000000E+00 0.  1.
          1   -1    0    0  501    0  0.00000000000E+00 -0.00000000000E+00 -0.25209125583E+04  0.25209125583E+04  0.00000000000E+00 0. -1.
         23    2    1    2    0    0 -0.27583132214E+03  0.10231835337E+04 -0.10978994225E+04  0.15286611071E+04  0.91837772731E+02 0.  0.
        254    2    1    2    0    0  0.27583132214E+03 -0.10231835337E+04 -0.79330471577E+03  0.16219598713E+04  0.93724809426E+03 0.  0.
         23    2    4    4    0    0  0.29806183732E+03  0.41786607181E+02 -0.41955901436E+02  0.31496749181E+03  0.82808476773E+02 0.  0.
         23    2    4    4    0    0 -0.22230515180E+02 -0.10649701408E+04 -0.75134881433E+03  0.13069923795E+04  0.95123301766E+02 0.  0.
          1    1    3    3  502    0 -0.13636695252E+03  0.49493455932E+03 -0.46616306383E+03  0.69344370055E+03  0.00000000000E+00 0. -1.
         -1    1    3    3    0  502 -0.13946436962E+03  0.52824897434E+03 -0.63173635868E+03  0.83521740652E+03  0.00000000000E+00 0.  1.
         13    1    5    5    0    0  0.16976708497E+03  0.39879356590E+00  0.11023622987E+02  0.17012507880E+03  0.00000000000E+00 0.  1.
        -13    1    5    5    0    0  0.12829475236E+03  0.41387813615E+02 -0.52979524423E+02  0.14484241301E+03  0.00000000000E+00 0. -1.
          3    1    6    6  503    0 -0.22542044989E+02 -0.60197885945E+03 -0.36813454487E+03  0.70598139788E+03  0.00000000000E+00 0. -1.
         -3    1    6    6    0  503  0.31152980951E+00 -0.46299128138E+03 -0.38321426946E+03  0.60101098160E+03  0.00000000000E+00 0.  1.
<mgrwt>
<rscale>  0 0.25198729E+04</rscale>
<asrwt>0</asrwt>
<pdfrwt beam="1">  1        1 0.38783270E+00 0.25198729E+04</pdfrwt>
<pdfrwt beam="2">  1       -1 0.96878220E-01 0.25198729E+04</pdfrwt>
<totfact> 0.11900042E+00</totfact>
</mgrwt>
</event>
<event>
12    3  0.4688899E-008  0.4187110E+04  0.7818608E-02  0.7967829E-01
         -2   -1    0    0    0  501 -0.00000000000E+00  0.00000000000E+00  0.23582430074E+04  0.23582430074E+04  0.00000000000E+00 0.  1.
          2   -1    0    0  501    0  0.00000000000E+00 -0.00000000000E+00 -0.18585752604E+04  0.18585752604E+04  0.00000000000E+00 0. -1.
         23    2    1    2    0    0  0.74775720844E+03 -0.55473553093E+02 -0.16241401286E+04  0.17911373014E+04  0.90130556367E+02 0.  0.
        254    2    1    2    0    0 -0.74775720844E+03  0.55473553093E+02  0.21238078755E+04  0.24256809664E+04  0.90063871825E+03 0.  0.
         23    2    4    4    0    0 -0.63589414858E+02 -0.34778791815E+03  0.54228830905E+03  0.65367389748E+03  0.90625076104E+02 0.  0.
         23    2    4    4    0    0 -0.68416779358E+03  0.40326147124E+03  0.15815195665E+04  0.17720070689E+04  0.89997384690E+02 0.  0.
          2    1    3    3  502    0  0.70646992530E+03 -0.52350488695E+02 -0.15742916088E+04  0.17263355405E+04  0.00000000000E+00 0. -1.
         -2    1    3    3    0  502  0.41287283137E+02 -0.31230643983E+01 -0.49848519790E+02  0.64801760819E+02  0.00000000000E+00 0.  1.
         13    1    5    5    0    0 -0.81009344536E+02 -0.29941651467E+03  0.43025944438E+03  0.53041111662E+03  0.00000000000E+00 0. -1.
        -13    1    5    5    0    0  0.17419929679E+02 -0.48371403480E+02  0.11202886468E+03  0.12326278086E+03  0.00000000000E+00 0.  1.
          1    1    6    6  503    0 -0.67649302540E+03  0.38750652254E+03  0.15233752255E+04  0.17112791111E+04  0.00000000000E+00 0. -1.
         -1    1    6    6    0  503 -0.76747681730E+01  0.15754948701E+02  0.58144340940E+02  0.60727957799E+02  0.00000000000E+00 0.  1.
<mgrwt>
<rscale>  0 0.41871098E+04</rscale>
<asrwt>0</asrwt>
<pdfrwt beam="1">  1        2 0.28593465E+00 0.41871098E+04</pdfrwt>
<pdfrwt beam="2">  1       -2 0.36280662E+00 0.41871098E+04</pdfrwt>
<totfact> 0.80275285E-02</totfact>
</mgrwt>
</event>
<event>
12    3  0.4688899E-008  0.1983716E+04  0.7818608E-02  0.8614272E-01
         -2   -1    0    0    0  501 -0.00000000000E+00  0.00000000000E+00  0.93160863340E+03  0.93160863340E+03  0.00000000000E+00 0.  1.
          2   -1    0    0  501    0  0.00000000000E+00 -0.00000000000E+00 -0.10560040417E+04  0.10560040417E+04  0.00000000000E+00 0. -1.
         23    2    1    2    0    0 -0.45119435087E+03 -0.29022957635E+03 -0.61987600410E+03  0.82487125004E+03  0.91415367619E+02 0.  0.
        254    2    1    2    0    0  0.45119435087E+03  0.29022957635E+03  0.49548059580E+03  0.11627414251E+04  0.90479669069E+03 0.  0.
         23    2    4    4    0    0  0.37625241670E+03  0.58569354635E+03  0.20246540613E+03  0.73095119147E+03  0.93244797841E+02 0.  0.
         23    2    4    4    0    0  0.74941934171E+02 -0.29546397000E+03  0.29301518967E+03  0.43179023359E+03  0.87576557246E+02 0.  0.
          1    1    3    3  502    0 -0.31569413625E+03 -0.20701453687E+03 -0.36937222288E+03  0.52816062441E+03  0.00000000000E+00 0. -1.
         -1    1    3    3    0  502 -0.13550021462E+03 -0.83215039482E+02 -0.25050378122E+03  0.29671062564E+03  0.00000000000E+00 0.  1.
         13    1    5    5    0    0  0.37103549931E+02  0.10174586784E+03  0.56877533893E+02  0.12232722061E+03  0.00000000000E+00 0. -1.
        -13    1    5    5    0    0  0.33914886677E+03  0.48394767851E+03  0.14558787224E+03  0.60862397086E+03  0.00000000000E+00 0.  1.
          1    1    6    6  503    0 -0.36016230850E+01 -0.16282838601E+03  0.15685527189E+03  0.22611862219E+03  0.00000000000E+00 0.  1.
         -1    1    6    6    0  503  0.78543557256E+02 -0.13263558398E+03  0.13615991779E+03  0.20567161140E+03  0.00000000000E+00 0. -1.
<mgrwt>
<rscale>  0 0.19837162E+04</rscale>
<asrwt>0</asrwt>
<pdfrwt beam="1">  1        2 0.16246216E+00 0.19837162E+04</pdfrwt>
<pdfrwt beam="2">  1       -2 0.14332441E+00 0.19837162E+04</pdfrwt>
<totfact> 0.72927397E+00</totfact>
</mgrwt>
</event>
<event>
12    3  0.4688899E-008  0.1433542E+04  0.7818608E-02  0.8929891E-01
         -2   -1    0    0    0  501 -0.00000000000E+00  0.00000000000E+00  0.33834740347E+03  0.33834740347E+03  0.00000000000E+00 0.  1.
          2   -1    0    0  501    0  0.00000000000E+00 -0.00000000000E+00 -0.15184406106E+04  0.15184406106E+04  0.00000000000E+00 0. -1.
         23    2    1    2    0    0  0.42007662421E+03 -0.64799773137E+02 -0.44406992575E+03  0.62089550567E+03  0.87462844703E+02 0.  0.
        254    2    1    2    0    0 -0.42007662421E+03  0.64799773137E+02 -0.73602328136E+03  0.12358925084E+04  0.89723834111E+03 0.  0.
         23    2    4    4    0    0 -0.12933600384E+03  0.46016021709E+03 -0.29157858159E+03  0.56742714760E+03  0.92088388568E+02 0.  0.
         23    2    4    4    0    0 -0.29074062037E+03 -0.39536044395E+03 -0.44444469976E+03  0.66846536077E+03  0.92058994300E+02 0.  0.
          2    1    3    3  502    0  0.34070510418E+03 -0.23091534505E+02 -0.37873158304E+03  0.50995176141E+03  0.00000000000E+00 0. -1.
         -2    1    3    3    0  502  0.79371520032E+02 -0.41708238632E+02 -0.65338342713E+02  0.11094374426E+03  0.00000000000E+00 0.  1.
         13    1    5    5    0    0 -0.11315962204E+03  0.23295874230E+03 -0.15284403600E+03  0.30072607971E+03  0.00000000000E+00 0. -1.
        -13    1    5    5    0    0 -0.16176381795E+02  0.22720147479E+03 -0.13873454559E+03  0.26670106789E+03  0.00000000000E+00 0.  1.
          4    1    6    6  503    0 -0.13529344325E+03 -0.22846803142E+03 -0.28900349928E+03  0.39246016328E+03  0.00000000000E+00 0. -1.
         -4    1    6    6    0  503 -0.15544717711E+03 -0.16689241253E+03 -0.15544120048E+03  0.27600519749E+03  0.00000000000E+00 0.  1.
<mgrwt>
<rscale>  0 0.14335417E+04</rscale>
<asrwt>0</asrwt>
<pdfrwt beam="1">  1        2 0.23360625E+00 0.14335417E+04</pdfrwt>
<pdfrwt beam="2">  1       -2 0.52053446E-01 0.14335417E+04</pdfrwt>
<totfact> 0.41919388E+01</totfact>
</mgrwt>
</event>
<event>
12    3  0.4688899E-008  0.2100732E+04  0.7818608E-02  0.8560921E-01
          3   -1    0    0  501    0  0.00000000000E+00  0.00000000000E+00  0.20802883897E+04  0.20802883897E+04  0.00000000000E+00 0. -1.
         -3   -1    0    0    0  501 -0.00000000000E+00 -0.00000000000E+00 -0.53034428092E+03  0.53034428092E+03  0.00000000000E+00 0.  1.
         23    2    1    2    0    0 -0.30773462861E+03 -0.31081287496E+03  0.15517690205E+04  0.16147959861E+04  0.90960096322E+02 0.  0.
        254    2    1    2    0    0  0.30773462861E+03  0.31081287496E+03 -0.18249117188E+01  0.99583668445E+03  0.89464078093E+03 0.  0.
         23    2    4    4    0    0  0.86740108535E+02  0.49288158342E+03  0.28308552002E+03  0.58080488646E+03  0.82102392058E+02 0.  0.
         23    2    4    4    0    0  0.22099452007E+03 -0.18206870846E+03 -0.28491043174E+03  0.41503179799E+03  0.95340687646E+02 0.  0.
          4    1    3    3  502    0 -0.28426739936E+03 -0.29558012908E+03  0.15086639063E+04  0.15634072884E+04  0.00000000000E+00 0. -1.
         -4    1    3    3    0  502 -0.23467229243E+02 -0.15232745877E+02  0.43105114132E+02  0.51388697781E+02  0.00000000000E+00 0.  1.
         13    1    5    5    0    0  0.16410640401E+02  0.10173206351E+02  0.95299545123E+01  0.21531913032E+02  0.00000000000E+00 0. -1.
        -13    1    5    5    0    0  0.70329468135E+02  0.48270837707E+03  0.27355556551E+03  0.55927297343E+03  0.00000000000E+00 0.  1.
          3    1    6    6  503    0  0.13358106716E+02 -0.19254006256E+02  0.39897055434E+01  0.23771275150E+02  0.00000000000E+00 0. -1.
         -3    1    6    6    0  503  0.20763641336E+03 -0.16281470221E+03 -0.28890013729E+03  0.39126052284E+03  0.00000000000E+00 0.  1.
<mgrwt>
<rscale>  0 0.21007323E+04</rscale>
<asrwt>0</asrwt>
<pdfrwt beam="1">  1        3 0.32004436E+00 0.21007323E+04</pdfrwt>
<pdfrwt beam="2">  1       -3 0.81591429E-01 0.21007323E+04</pdfrwt>
<totfact> 0.10065616E-01</totfact>
</mgrwt>
</event>
<event>
12    3  0.4688899E-008  0.2101368E+04  0.7818608E-02  0.8560641E-01
         -2   -1    0    0    0  501 -0.00000000000E+00  0.00000000000E+00  0.72579220432E+03  0.72579220432E+03  0.00000000000E+00 0.  1.
          2   -1    0    0  501    0  0.00000000000E+00 -0.00000000000E+00 -0.15210089955E+04  0.15210089955E+04  0.00000000000E+00 0. -1.
         23    2    1    2    0    0  0.80529011592E+03  0.68765204258E+02 -0.30174651695E+02  0.81384833867E+03  0.90651997477E+02 0.  0.
        254    2    1    2    0    0 -0.80529011592E+03 -0.68765204258E+02 -0.76504213951E+03  0.14329528612E+04  0.90268687984E+03 0.  0.
         23    2    4    4    0    0 -0.10073952230E+03 -0.34019348263E+03 -0.51520338202E+03  0.63206639376E+03  0.90517093949E+02 0.  0.
         23    2    4    4    0    0 -0.70455059362E+03  0.27142827837E+03 -0.24983875749E+03  0.80088646743E+03  0.94524492548E+02 0.  0.
          2    1    3    3  502    0  0.39487352764E+03  0.36554344850E+02  0.30452510902E+02  0.39772940346E+03  0.00000000000E+00 0.  1.
         -2    1    3    3    0  502  0.41041658828E+03  0.32210859408E+02 -0.60627162597E+02  0.41611893521E+03  0.00000000000E+00 0. -1.
         13    1    5    5    0    0 -0.10309128732E+03 -0.24040750238E+03 -0.32432199711E+03  0.41666333957E+03  0.00000000000E+00 0. -1.
        -13    1    5    5    0    0  0.23517650273E+01 -0.99785980243E+02 -0.19088138491E+03  0.21540305419E+03  0.00000000000E+00 0.  1.
          4    1    6    6  503    0 -0.53777009806E+03  0.20742086782E+03 -0.14730381059E+03  0.59491050367E+03  0.00000000000E+00 0.  1.
         -4    1    6    6    0  503 -0.16678049556E+03  0.64007410551E+02 -0.10253494691E+03  0.20597596375E+03  0.00000000000E+00 0. -1.
<mgrwt>
<rscale>  0 0.21013676E+04</rscale>
<asrwt>0</asrwt>
<pdfrwt beam="1">  1        2 0.23400138E+00 0.21013676E+04</pdfrwt>
<pdfrwt beam="2">  1       -2 0.11166034E+00 0.21013676E+04</pdfrwt>
<totfact> 0.72118781E+00</totfact>
</mgrwt>
</event>
<event>
12    3  0.4688899E-008  0.1249310E+04  0.7818608E-02  0.9070758E-01
         -2   -1    0    0    0  501 -0.00000000000E+00  0.00000000000E+00  0.28218460780E+03  0.28218460780E+03  0.00000000000E+00 0.  1.
          2   -1    0    0  501    0  0.00000000000E+00 -0.00000000000E+00 -0.13827605033E+04  0.13827605033E+04  0.00000000000E+00 0. -1.
         23    2    1    2    0    0  0.79983053014E+02 -0.15172333376E+03 -0.56921129787E+03  0.60158482677E+03  0.92117009264E+02 0.  0.
        254    2    1    2    0    0 -0.79983053014E+02  0.15172333376E+03 -0.53136459759E+03  0.10633602843E+04  0.90496933641E+03 0.  0.
         23    2    4    4    0    0  0.26105634743E+03 -0.26020096570E+03 -0.22165754856E+03  0.43888275247E+03  0.87355838375E+02 0.  0.
         23    2    4    4    0    0 -0.34103940044E+03  0.41192429945E+03 -0.30970704903E+03  0.62447753182E+03  0.89801060091E+02 0.  0.
          2    1    3    3  502    0  0.65486623330E+02 -0.65489406057E+02 -0.40594814750E+03  0.41637874418E+03  0.00000000000E+00 0. -1.
         -2    1    3    3    0  502  0.14496429684E+02 -0.86233927700E+02 -0.16326315037E+03  0.18520608259E+03  0.00000000000E+00 0.  1.
         13    1    5    5    0    0  0.10601143561E+03 -0.13274382782E+03 -0.14728154159E+03  0.22483594196E+03  0.00000000000E+00 0.  1.
        -13    1    5    5    0    0  0.15504491181E+03 -0.12745713787E+03 -0.74376006974E+02  0.21404681051E+03  0.00000000000E+00 0. -1.
          4    1    6    6  503    0 -0.34008918779E+03  0.38751232879E+03 -0.30657908504E+03  0.59984764399E+03  0.00000000000E+00 0. -1.
         -4    1    6    6    0  503 -0.95021265746E+00  0.24411970665E+02 -0.31279639842E+01  0.24629887830E+02  0.00000000000E+00 0.  1.
<mgrwt>
<rscale>  0 0.12493098E+04</rscale>
<asrwt>0</asrwt>
<pdfrwt beam="1">  1        2 0.21273239E+00 0.12493098E+04</pdfrwt>
<pdfrwt beam="2">  1       -2 0.43413016E-01 0.12493098E+04</pdfrwt>
<totfact> 0.73221605E+01</totfact>
</mgrwt>
</event>
<event>
12    3  0.4688899E-008  0.2250546E+04  0.7818608E-02  0.8497679E-01
          1   -1    0    0  501    0  0.00000000000E+00  0.00000000000E+00  0.26808044251E+04  0.26808044251E+04  0.00000000000E+00 0. -1.
         -1   -1    0    0    0  501 -0.00000000000E+00 -0.00000000000E+00 -0.47233577272E+03  0.47233577272E+03  0.00000000000E+00 0.  1.
         23    2    1    2    0    0  0.67960830909E+02 -0.27436917071E+03  0.21886032388E+04  0.22089523437E+04  0.97924479744E+02 0.  0.
        254    2    1    2    0    0 -0.67960830909E+02  0.27436917071E+03  0.19865413602E+02  0.94418785409E+03  0.90066583857E+03 0.  0.
         23    2    4    4    0    0 -0.61767353041E+02 -0.22732212835E+03  0.27508158615E+03  0.37447809518E+03  0.95254442386E+02 0.  0.
         23    2    4    4    0    0 -0.61934778674E+01  0.50169129906E+03 -0.25521617255E+03  0.56970975890E+03  0.87757597582E+02 0.  0.
          1    1    3    3  502    0  0.69708520158E+02 -0.10008512532E+03  0.10553050032E+04  0.10623299675E+04  0.00000000000E+00 0. -1.
         -1    1    3    3    0  502 -0.17476892499E+01 -0.17428404539E+03  0.11332982356E+04  0.11466223762E+04  0.00000000000E+00 0.  1.
         13    1    5    5    0    0 -0.42338522215E+02 -0.10521978619E+03  0.19973318305E+03  0.22968913401E+03  0.00000000000E+00 0. -1.
        -13    1    5    5    0    0 -0.19428830826E+02 -0.12210234217E+03  0.75348403097E+02  0.14478896118E+03  0.00000000000E+00 0.  1.
          2    1    6    6  503    0 -0.43034579600E+02  0.24395796960E+03 -0.14454018076E+03  0.28680887334E+03  0.00000000000E+00 0. -1.
         -2    1    6    6    0  503  0.36841101733E+02  0.25773332946E+03 -0.11067599179E+03  0.28290088556E+03  0.00000000000E+00 0.  1.
<mgrwt>
<rscale>  0 0.22505464E+04</rscale>
<asrwt>0</asrwt>
<pdfrwt beam="1">  1        1 0.41243144E+00 0.22505464E+04</pdfrwt>
<pdfrwt beam="2">  1       -1 0.72667043E-01 0.22505464E+04</pdfrwt>
<totfact> 0.17554374E+00</totfact>
</mgrwt>
</event>
<event>
12    3  0.4688899E-008  0.1478776E+04  0.7818608E-02  0.8898690E-01
         -1   -1    0    0    0  501 -0.00000000000E+00  0.00000000000E+00  0.17890629706E+03  0.17890629706E+03  0.00000000000E+00 0. -1.
          1   -1    0    0  501    0  0.00000000000E+00 -0.00000000000E+00 -0.30557602525E+04  0.30557602525E+04  0.00000000000E+00 0.  1.
         23    2    1    2    0    0 -0.26312269091E+03  0.44454454183E+02 -0.93454139692E+02  0.29733052884E+03  0.91989228632E+02 0.  0.
        254    2    1    2    0    0  0.26312269091E+03 -0.44454454183E+02 -0.27833998157E+04  0.29373360207E+04  0.89967695053E+03 0.  0.
         23    2    4    4    0    0  0.25271435908E+03  0.30229184562E+02 -0.28043476531E+04  0.28175015696E+04  0.95765255256E+02 0.  0.
         23    2    4    4    0    0  0.10408331832E+02 -0.74683638745E+02  0.20947837379E+02  0.11983445114E+03  0.90749680552E+02 0.  0.
          4    1    3    3  502    0 -0.16421095948E+03  0.90069319945E+01 -0.99273416851E+02  0.19209782750E+03  0.00000000000E+00 0.  1.
         -4    1    3    3    0  502 -0.98911731432E+02  0.35447522189E+02  0.58192771589E+01  0.10523270134E+03  0.00000000000E+00 0. -1.
         13    1    5    5    0    0  0.74537402918E+02 -0.71923647973E+01 -0.13038840887E+04  0.13060326456E+04  0.00000000000E+00 0. -1.
        -13    1    5    5    0    0  0.17817695616E+03  0.37421549359E+02 -0.15004635644E+04  0.15114689240E+04  0.00000000000E+00 0.  1.
          3    1    6    6  503    0  0.14434913812E+02 -0.97390521419E+00  0.40885471091E+02  0.43369770284E+02  0.00000000000E+00 0. -1.
         -3    1    6    6    0  503 -0.40265819799E+01 -0.73709733531E+02 -0.19937633713E+02  0.76464680851E+02  0.00000000000E+00 0.  1.
<mgrwt>
<rscale>  0 0.14787762E+04</rscale>
<asrwt>0</asrwt>
<pdfrwt beam="1">  1        1 0.47011695E+00 0.14787762E+04</pdfrwt>
<pdfrwt beam="2">  1       -1 0.27524046E-01 0.14787762E+04</pdfrwt>
<totfact> 0.62982350E+00</totfact>
</mgrwt>
</event>
<event>
12    3  0.4688899E-008  0.1690844E+04  0.7818608E-02  0.8766604E-01
          1   -1    0    0  501    0  0.00000000000E+00  0.00000000000E+00  0.15005351829E+04  0.15005351829E+04  0.00000000000E+00 0. -1.
         -1   -1    0    0    0  501 -0.00000000000E+00 -0.00000000000E+00 -0.47632233030E+03  0.47632233030E+03  0.00000000000E+00 0.  1.
         23    2    1    2    0    0 -0.44302799661E+03  0.40196378723E+03  0.54511281779E+03  0.81456560073E+03  0.92306238951E+02 0.  0.
        254    2    1    2    0    0  0.44302799661E+03 -0.40196378723E+03  0.47910003485E+03  0.11622919125E+04  0.87380601649E+03 0.  0.
         23    2    4    4    0    0  0.42473431256E+03  0.16988287582E+03  0.12820077334E+03  0.48477864165E+03  0.96516658395E+02 0.  0.
         23    2    4    4    0    0  0.18293684049E+02 -0.57184666304E+03  0.35089926150E+03  0.67751327085E+03  0.92469862900E+02 0.  0.
          2    1    3    3  502    0 -0.39880071240E+03  0.32158427947E+03  0.48023898919E+03  0.70220221001E+03  0.00000000000E+00 0. -1.
         -2    1    3    3    0  502 -0.44227284215E+02  0.80379507751E+02  0.64873828602E+02  0.11236339071E+03  0.00000000000E+00 0.  1.
         13    1    5    5    0    0  0.12985762600E+03  0.20284905657E+02  0.37677073927E+01  0.13148641012E+03  0.00000000000E+00 0.  1.
        -13    1    5    5    0    0  0.29487668657E+03  0.14959797016E+03  0.12443306595E+03  0.35329223153E+03  0.00000000000E+00 0. -1.
          1    1    6    6  503    0  0.32015501273E+01 -0.44003982566E+03  0.31140873143E+03  0.53909247453E+03  0.00000000000E+00 0.  1.
         -1    1    6    6    0  503  0.15092133921E+02 -0.13180683738E+03  0.39490530078E+02  0.13842079632E+03  0.00000000000E+00 0. -1.
<mgrwt>
<rscale>  0 0.16908441E+04</rscale>
<asrwt>0</asrwt>
<pdfrwt beam="1">  1        1 0.23085156E+00 0.16908441E+04</pdfrwt>
<pdfrwt beam="2">  1       -1 0.73280359E-01 0.16908441E+04</pdfrwt>
<totfact> 0.11680874E+01</totfact>
</mgrwt>
</event>
<event>
12    3  0.4688899E-008  0.1570825E+04  0.7818608E-02  0.8838675E-01
          1   -1    0    0  501    0  0.00000000000E+00  0.00000000000E+00  0.61678224249E+03  0.61678224249E+03  0.00000000000E+00 0. -1.
         -1   -1    0    0    0  501 -0.00000000000E+00 -0.00000000000E+00 -0.10001466740E+04  0.10001466740E+04  0.00000000000E+00 0.  1.
         23    2    1    2    0    0  0.44115377956E+03 -0.82496732104E+02  0.13750411016E+03  0.47816303470E+03  0.91159966090E+02 0.  0.
        254    2    1    2    0    0 -0.44115377956E+03  0.82496732104E+02 -0.52086854164E+03  0.11387658818E+04  0.90777823710E+03 0.  0.
         23    2    4    4    0    0 -0.63807858471E+02 -0.40539555051E+02  0.24408193904E+03  0.27233003618E+03  0.94195314724E+02 0.  0.
         23    2    4    4    0    0 -0.37734592109E+03  0.12303628716E+03 -0.76495048068E+03  0.86643584557E+03  0.89632385273E+02 0.  0.
          2    1    3    3  502    0  0.31766089129E+03 -0.84410746508E+02  0.65333745515E+02  0.33511507618E+03  0.00000000000E+00 0. -1.
         -2    1    3    3    0  502  0.12349288827E+03  0.19140144041E+01  0.72170364641E+02  0.14304795852E+03  0.00000000000E+00 0.  1.
         13    1    5    5    0    0 -0.41143196206E+02 -0.53672427456E+02  0.23510762616E+03  0.24464073238E+03  0.00000000000E+00 0. -1.
        -13    1    5    5    0    0 -0.22664662265E+02  0.13132872405E+02  0.89743128792E+01  0.27689303799E+02  0.00000000000E+00 0.  1.
          3    1    6    6  503    0 -0.32410774243E+03  0.70948687175E+02 -0.64262282867E+03  0.72321756398E+03  0.00000000000E+00 0. -1.
         -3    1    6    6    0  503 -0.53238178657E+02  0.52087599980E+02 -0.12232765200E+03  0.14321828159E+03  0.00000000000E+00 0.  1.
<mgrwt>
<rscale>  0 0.15708249E+04</rscale>
<asrwt>0</asrwt>
<pdfrwt beam="1">  1        1 0.94889577E-01 0.15708249E+04</pdfrwt>
<pdfrwt beam="2">  1       -1 0.15386872E+00 0.15708249E+04</pdfrwt>
<totfact> 0.10303788E+01</totfact>
</mgrwt>
</event>
<event>
12    3  0.4688899E-008  0.1945630E+04  0.7818608E-02  0.8632471E-01
          2   -1    0    0  501    0  0.00000000000E+00  0.00000000000E+00  0.19184982259E+04  0.19184982259E+04  0.00000000000E+00 0. -1.
         -2   -1    0    0    0  501 -0.00000000000E+00 -0.00000000000E+00 -0.49328652106E+03  0.49328652106E+03  0.00000000000E+00 0.  1.
         23    2    1    2    0    0 -0.29994287084E+03  0.60183516580E+03  0.10017557935E+04  0.12097163122E+04  0.87906731833E+02 0.  0.
        254    2    1    2    0    0  0.29994287084E+03 -0.60183516580E+03  0.42345591132E+03  0.12020684348E+04  0.90193254767E+03 0.  0.
         23    2    4    4    0    0  0.48681840358E+03 -0.43350754206E+03 -0.48312776713E+02  0.66013977492E+03  0.92355026719E+02 0.  0.
         23    2    4    4    0    0 -0.18687553273E+03 -0.16832762374E+03  0.47176868804E+03  0.54192865988E+03  0.88681022410E+02 0.  0.
          3    1    3    3  502    0 -0.10822728168E+03  0.18820874812E+03  0.39551805750E+03  0.45118755654E+03  0.00000000000E+00 0. -1.
         -3    1    3    3    0  502 -0.19171558917E+03  0.41362641768E+03  0.60623773600E+03  0.75852875561E+03  0.00000000000E+00 0.  1.
         13    1    5    5    0    0  0.40230127912E+03 -0.31982920399E+03 -0.12800596505E+02  0.51410202701E+03  0.00000000000E+00 0. -1.
        -13    1    5    5    0    0  0.84517124461E+02 -0.11367833807E+03 -0.35512180208E+02  0.14603774792E+03  0.00000000000E+00 0.  1.
          3    1    6    6  503    0 -0.66608301511E+02 -0.11331328495E+03  0.19469847515E+03  0.23491288301E+03  0.00000000000E+00 0. -1.
         -3    1    6    6    0  503 -0.12026723122E+03 -0.55014338790E+02  0.27707021288E+03  0.30701577687E+03  0.00000000000E+00 0.  1.
<mgrwt>
<rscale>  0 0.19456303E+04</rscale>
<asrwt>0</asrwt>
<pdfrwt beam="1">  1        2 0.29515357E+00 0.19456303E+04</pdfrwt>
<pdfrwt beam="2">  1       -2 0.75890235E-01 0.19456303E+04</pdfrwt>
<totfact> 0.10763151E+01</totfact>
</mgrwt>
</event>
<event>
12    3  0.4688899E-008  0.2065674E+04  0.7818608E-02  0.8576517E-01
         -2   -1    0    0    0  501 -0.00000000000E+00  0.00000000000E+00  0.74475067510E+03  0.74475067510E+03  0.00000000000E+00 0. -1.
          2   -1    0    0  501    0  0.00000000000E+00 -0.00000000000E+00 -0.14323609505E+04  0.14323609505E+04  0.00000000000E+00 0.  1.
         23    2    1    2    0    0 -0.23884848673E+02 -0.48257735758E+03 -0.99599894202E+03  0.11114317693E+04  0.99072162173E+02 0.  0.
        254    2    1    2    0    0  0.23884848673E+02  0.48257735758E+03  0.30838866663E+03  0.10656798563E+04  0.89839779292E+03 0.  0.
         23    2    4    4    0    0 -0.27000465983E+03  0.55733078258E+03  0.39215213532E+03  0.73870620903E+03  0.91561173465E+02 0.  0.
         23    2    4    4    0    0  0.29388950850E+03 -0.74753425000E+02 -0.83763468691E+02  0.32697364724E+03  0.89086079431E+02 0.  0.
          4    1    3    3  502    0 -0.16181676551E+02 -0.19771317754E+03 -0.30337414625E+03  0.36247512996E+03  0.00000000000E+00 0. -1.
         -4    1    3    3    0  502 -0.77031721223E+01 -0.28486418004E+03 -0.69262479578E+03  0.74895663937E+03  0.00000000000E+00 0.  1.
         13    1    5    5    0    0 -0.18086292640E+03  0.33840260848E+03  0.29111038506E+03  0.48163573358E+03  0.00000000000E+00 0. -1.
        -13    1    5    5    0    0 -0.89141733422E+02  0.21892817410E+03  0.10104175026E+03  0.25707047545E+03  0.00000000000E+00 0.  1.
          1    1    6    6  503    0  0.11527219048E+02  0.96956502668E+01  0.95485145769E+01  0.17834139837E+02  0.00000000000E+00 0. -1.
         -1    1    6    6    0  503  0.28236228945E+03 -0.84449075267E+02 -0.93311983268E+02  0.30913950740E+03  0.00000000000E+00 0.  1.
<mgrwt>
<rscale>  0 0.20656735E+04</rscale>
<asrwt>0</asrwt>
<pdfrwt beam="1">  1        2 0.22036322E+00 0.20656735E+04</pdfrwt>
<pdfrwt beam="2">  1       -2 0.11457703E+00 0.20656735E+04</pdfrwt>
<totfact> 0.76260025E+00</totfact>
</mgrwt>
</event>
<event>
12    3  0.4688899E-008  0.1898193E+04  0.7818608E-02  0.8655756E-01
         -2   -1    0    0    0  501 -0.00000000000E+00  0.00000000000E+00  0.28274843602E+03  0.28274843602E+03  0.00000000000E+00 0.  1.
          2   -1    0    0  501    0  0.00000000000E+00 -0.00000000000E+00 -0.31858161932E+04  0.31858161932E+04  0.00000000000E+00 0. -1.
         23    2    1    2    0    0  0.61517730851E+03  0.40015103225E+03 -0.12784252212E+04  0.14766808260E+04  0.87471401682E+02 0.  0.
        254    2    1    2    0    0 -0.61517730851E+03 -0.40015103225E+03 -0.16246425360E+04  0.19918838033E+04  0.88857962299E+03 0.  0.
         23    2    4    4    0    0 -0.60612251220E+03 -0.62827941425E+03 -0.10633633535E+04  0.13790252860E+04  0.94072289768E+02 0.  0.
         23    2    4    4    0    0 -0.90547963054E+01  0.22812838200E+03 -0.56127918252E+03  0.61285851727E+03  0.91851474966E+02 0.  0.
          4    1    3    3  502    0  0.41679254235E+03  0.26027353232E+03 -0.93308903038E+03  0.10545679085E+04  0.00000000000E+00 0. -1.
         -4    1    3    3    0  502  0.19838476616E+03  0.13987749994E+03 -0.34533619081E+03  0.42211291749E+03  0.00000000000E+00 0.  1.
         13    1    5    5    0    0 -0.56153090116E+03 -0.61059273963E+03 -0.99368772180E+03  0.12944325920E+04  0.00000000000E+00 0. -1.
        -13    1    5    5    0    0 -0.44591611040E+02 -0.17686674623E+02 -0.69675631719E+02  0.84592694069E+02  0.00000000000E+00 0.  1.
          4    1    6    6  503    0 -0.37139975700E+02  0.18248029220E+03 -0.48594304506E+03  0.52040280348E+03  0.00000000000E+00 0.  1.
         -4    1    6    6    0  503  0.28085179394E+02  0.45648089800E+02 -0.75336137461E+02  0.92455713785E+02  0.00000000000E+00 0. -1.
<mgrwt>
<rscale>  0 0.18981934E+04</rscale>
<asrwt>0</asrwt>
<pdfrwt beam="1">  1        2 0.49012552E+00 0.18981934E+04</pdfrwt>
<pdfrwt beam="2">  1       -2 0.43499764E-01 0.18981934E+04</pdfrwt>
<totfact> 0.62447919E+00</totfact>
</mgrwt>
</event>
<event>
12    3  0.4688899E-008  0.3805392E+04  0.7818608E-02  0.8044999E-01
         -1   -1    0    0    0  501 -0.00000000000E+00  0.00000000000E+00  0.26669947427E+04  0.26669947427E+04  0.00000000000E+00 0.  1.
          1   -1    0    0  501    0  0.00000000000E+00 -0.00000000000E+00 -0.13574277132E+04  0.13574277132E+04  0.00000000000E+00 0. -1.
         23    2    1    2    0    0  0.12342772464E+04 -0.13031154240E+03  0.19949469202E+04  0.23512115065E+04  0.89223957266E+02 0.  0.
        254    2    1    2    0    0 -0.12342772464E+04  0.13031154240E+03 -0.68537989076E+03  0.16732109495E+04  0.88852004348E+03 0.  0.
         23    2    4    4    0    0 -0.58619846968E+03  0.21253735823E+03 -0.78532646840E+03  0.10061575582E+04  0.82550563535E+02 0.  0.
         23    2    4    4    0    0 -0.64807877672E+03 -0.82225815828E+02  0.99946577637E+02  0.66705339122E+03  0.90574404391E+02 0.  0.
          2    1    3    3  502    0  0.25437123195E+03 -0.62472870879E+02  0.43541647015E+03  0.50812900499E+03  0.00000000000E+00 0. -1.
         -2    1    3    3    0  502  0.97990601446E+03 -0.67838671524E+02  0.15595304501E+04  0.18430825015E+04  0.00000000000E+00 0.  1.
         13    1    5    5    0    0 -0.20841040855E+03  0.40567251245E+02 -0.23276556525E+03  0.31505619917E+03  0.00000000000E+00 0. -1.
        -13    1    5    5    0    0 -0.37778806113E+03  0.17197010699E+03 -0.55256090315E+03  0.69110135908E+03  0.00000000000E+00 0.  1.
          1    1    6    6  503    0 -0.65258976302E+01  0.45618323275E+01  0.10993969496E+02  0.13574425194E+02  0.00000000000E+00 0. -1.
         -1    1    6    6    0  503 -0.64155287909E+03 -0.86787648156E+02  0.88952608141E+02  0.65347896603E+03  0.00000000000E+00 0.  1.
<mgrwt>
<rscale>  0 0.38053923E+04</rscale>
<asrwt>0</asrwt>
<pdfrwt beam="1">  1        1 0.20883503E+00 0.38053923E+04</pdfrwt>
<pdfrwt beam="2">  1       -1 0.41030688E+00 0.38053923E+04</pdfrwt>
<totfact> 0.39777779E-02</totfact>
</mgrwt>
</event>
<event>
12    3  0.4688899E-008  0.2516214E+04  0.7818608E-02  0.8397232E-01
         -2   -1    0    0    0  501 -0.00000000000E+00  0.00000000000E+00  0.16032664941E+04  0.16032664941E+04  0.00000000000E+00 0.  1.
          2   -1    0    0  501    0  0.00000000000E+00 -0.00000000000E+00 -0.98725548800E+03  0.98725548800E+03  0.00000000000E+00 0. -1.
         23    2    1    2    0    0  0.69659526629E+03  0.83665055745E+03  0.22161708072E+03  0.11147671861E+04  0.91447407652E+02 0.  0.
        254    2    1    2    0    0 -0.69659526629E+03 -0.83665055745E+03  0.39439392538E+03  0.14757547960E+04  0.91491886488E+03 0.  0.
         23    2    4    4    0    0  0.60699606413E+02 -0.28793873888E+02 -0.18907680188E+03  0.22081508284E+03  0.92172308252E+02 0.  0.
         23    2    4    4    0    0 -0.75729487270E+03 -0.80785668357E+03  0.58347072726E+03  0.12549397132E+04  0.91146304125E+02 0.  0.
          3    1    3    3  502    0  0.26065016163E+03  0.26104637623E+03  0.46839629550E+02  0.37185705344E+03  0.00000000000E+00 0. -1.
         -3    1    3    3    0  502  0.43594510466E+03  0.57560418122E+03  0.17477745117E+03  0.74291013263E+03  0.00000000000E+00 0.  1.
         13    1    5    5    0    0  0.40041615538E+02 -0.31918784567E+02 -0.19289495857E+03  0.19957606276E+03  0.00000000000E+00 0.  1.
        -13    1    5    5    0    0  0.20657990874E+02  0.31249106793E+01  0.38181566888E+01  0.21239020086E+02  0.00000000000E+00 0. -1.
          1    1    6    6  503    0 -0.10481091757E+03 -0.70822238651E+02  0.58940583166E+02  0.13955325246E+03  0.00000000000E+00 0. -1.
         -1    1    6    6    0  503 -0.65248395513E+03 -0.73703444491E+03  0.52453014410E+03  0.11153864607E+04  0.00000000000E+00 0.  1.
<mgrwt>
<rscale>  0 0.25162143E+04</rscale>
<asrwt>0</asrwt>
<pdfrwt beam="1">  1        2 0.15188546E+00 0.25162143E+04</pdfrwt>
<pdfrwt beam="2">  1       -2 0.24665638E+00 0.25162143E+04</pdfrwt>
<totfact> 0.15404823E+00</totfact>
</mgrwt>
</event>
<event>
12    3  0.4688899E-008  0.1851848E+04  0.7818608E-02  0.8679203E-01
         -1   -1    0    0    0  501 -0.00000000000E+00  0.00000000000E+00  0.79298533990E+03  0.79298533990E+03  0.00000000000E+00 0.  1.
          1   -1    0    0  501    0  0.00000000000E+00 -0.00000000000E+00 -0.10811487304E+04  0.10811487304E+04  0.00000000000E+00 0. -1.
         23    2    1    2    0    0 -0.16046335789E+03  0.68563177708E+03 -0.68653603234E+02  0.71357306401E+03  0.92918122412E+02 0.  0.
        254    2    1    2    0    0  0.16046335789E+03 -0.68563177708E+03 -0.21950978731E+03  0.11605610063E+04  0.89603453042E+03 0.  0.
         23    2    4    4    0    0  0.32462985765E+03 -0.63380268947E+03  0.15916528348E+03  0.73492881955E+03  0.87729064019E+02 0.  0.
         23    2    4    4    0    0 -0.16416649977E+03 -0.51829087610E+02 -0.37867507079E+03  0.42563218677E+03  0.90172363915E+02 0.  0.
          2    1    3    3  502    0  0.81217472099E+01  0.38741332452E+02 -0.17012156970E+02  0.43084418328E+02  0.00000000000E+00 0. -1.
         -2    1    3    3    0  502 -0.16858510510E+03  0.64689044463E+03 -0.51641446264E+02  0.67048864568E+03  0.00000000000E+00 0.  1.
         13    1    5    5    0    0  0.25218203589E+03 -0.54724108354E+03  0.15405901649E+03  0.62193469376E+03  0.00000000000E+00 0. -1.
        -13    1    5    5    0    0  0.72447821764E+02 -0.86561605936E+02  0.51062669845E+01  0.11299412579E+03  0.00000000000E+00 0.  1.
          1    1    6    6  503    0 -0.15378449464E+03 -0.62695644536E+02 -0.37504707460E+03  0.41017157727E+03  0.00000000000E+00 0. -1.
         -1    1    6    6    0  503 -0.10382005129E+02  0.10866556926E+02 -0.36279961892E+01  0.15460609505E+02  0.00000000000E+00 0.  1.
<mgrwt>
<rscale>  0 0.18518478E+04</rscale>
<asrwt>0</asrwt>
<pdfrwt beam="1">  1        1 0.16633057E+00 0.18518478E+04</pdfrwt>
<pdfrwt beam="2">  1       -1 0.12199775E+00 0.18518478E+04</pdfrwt>
<totfact> 0.73175669E+00</totfact>
</mgrwt>
</event>
<event>
12    3  0.4688899E-008  0.2406079E+04  0.7818608E-02  0.8437231E-01
          2   -1    0    0  501    0  0.00000000000E+00  0.00000000000E+00  0.24453003898E+04  0.24453003898E+04  0.00000000000E+00 0. -1.
         -2   -1    0    0    0  501 -0.00000000000E+00 -0.00000000000E+00 -0.59187160112E+03  0.59187160112E+03  0.00000000000E+00 0.  1.
         23    2    1    2    0    0 -0.63120629579E+03 -0.23190833589E+03  0.17910921079E+04  0.19153171496E+04  0.90697191761E+02 0.  0.
        254    2    1    2    0    0  0.63120629579E+03  0.23190833589E+03  0.62336680789E+02  0.11218548413E+04  0.89580665273E+03 0.  0.
         23    2    4    4    0    0  0.60538649088E+03  0.71342995634E+02  0.40046011963E+03  0.73504653108E+03  0.91337117752E+02 0.  0.
         23    2    4    4    0    0  0.25819804908E+02  0.16056534026E+03 -0.33812343884E+03  0.38680831021E+03  0.94049551525E+02 0.  0.
          2    1    3    3  502    0 -0.41662650426E+02 -0.41998419056E+02  0.15973160337E+03  0.17033446145E+03  0.00000000000E+00 0.  1.
         -2    1    3    3    0  502 -0.58954364536E+03 -0.18990991684E+03  0.16313605045E+04  0.17449826882E+04  0.00000000000E+00 0. -1.
         13    1    5    5    0    0  0.28774653929E+03  0.74855807930E+02  0.21835960766E+03  0.36889345496E+03  0.00000000000E+00 0. -1.
        -13    1    5    5    0    0  0.31763995159E+03 -0.35128122951E+01  0.18210051196E+03  0.36615307612E+03  0.00000000000E+00 0.  1.
          3    1    6    6  503    0  0.30401076814E+02  0.99938123695E+02 -0.29308422539E+03  0.31114340297E+03  0.00000000000E+00 0. -1.
         -3    1    6    6    0  503 -0.45812719056E+01  0.60627216564E+02 -0.45039213450E+02  0.75664907248E+02  0.00000000000E+00 0.  1.
<mgrwt>
<rscale>  0 0.24060788E+04</rscale>
<asrwt>0</asrwt>
<pdfrwt beam="1">  1        2 0.37620005E+00 0.24060788E+04</pdfrwt>
<pdfrwt beam="2">  1       -2 0.91057171E-01 0.24060788E+04</pdfrwt>
<totfact> 0.34610768E+00</totfact>
</mgrwt>
</event>
<event>
12    3  0.4688899E-008  0.1420835E+04  0.7818608E-02  0.8938874E-01
         -1   -1    0    0    0  501 -0.00000000000E+00  0.00000000000E+00  0.58538085425E+03  0.58538085425E+03  0.00000000000E+00 0.  1.
          1   -1    0    0  501    0  0.00000000000E+00 -0.00000000000E+00 -0.86216140354E+03  0.86216140354E+03  0.00000000000E+00 0. -1.
         23    2    1    2    0    0  0.22231004764E+03  0.18661886900E+03  0.22431176930E+03  0.37852486622E+03  0.93364580806E+02 0.  0.
        254    2    1    2    0    0 -0.22231004764E+03 -0.18661886900E+03 -0.50109231860E+03  0.10690173916E+04  0.89858572889E+03 0.  0.
         23    2    4    4    0    0  0.12855824274E+03 -0.32625974182E+03 -0.56941138587E+03  0.67483470747E+03  0.90553382809E+02 0.  0.
         23    2    4    4    0    0 -0.35086829038E+03  0.13964087282E+03  0.68319067275E+02  0.39418268410E+03  0.90024235255E+02 0.  0.
          1    1    3    3  502    0  0.17708410813E+02  0.14979032149E+02 -0.80260191732E+01  0.24543353508E+02  0.00000000000E+00 0. -1.
         -1    1    3    3    0  502  0.20460163683E+03  0.17163983685E+03  0.23233778848E+03  0.35398151271E+03  0.00000000000E+00 0.  1.
         13    1    5    5    0    0  0.11174755085E+03 -0.16701283097E+03 -0.29063225935E+03  0.35333823881E+03  0.00000000000E+00 0. -1.
        -13    1    5    5    0    0  0.16810691884E+02 -0.15924691086E+03 -0.27877912653E+03  0.32149646867E+03  0.00000000000E+00 0.  1.
          3    1    6    6  503    0 -0.24949288347E+03  0.97290183900E+02  0.89385461388E+02  0.28231514216E+03  0.00000000000E+00 0. -1.
         -3    1    6    6    0  503 -0.10137540691E+03  0.42350688920E+02 -0.21066394114E+02  0.11186754194E+03  0.00000000000E+00 0.  1.
<mgrwt>
<rscale>  0 0.14208347E+04</rscale>
<asrwt>0</asrwt>
<pdfrwt beam="1">  1        1 0.13264022E+00 0.14208347E+04</pdfrwt>
<pdfrwt beam="2">  1       -1 0.90058593E-01 0.14208347E+04</pdfrwt>
<totfact> 0.22977183E+01</totfact>
</mgrwt>
</event>
<event>
12    3  0.4688899E-008  0.2931304E+04  0.7818608E-02  0.8263624E-01
         -1   -1    0    0    0  501 -0.00000000000E+00  0.00000000000E+00  0.10670039374E+04  0.10670039374E+04  0.00000000000E+00 0.  1.
          1   -1    0    0  501    0  0.00000000000E+00 -0.00000000000E+00 -0.20132400771E+04  0.20132400771E+04  0.00000000000E+00 0. -1.
         23    2    1    2    0    0  0.83652499689E+02  0.56965223692E+03  0.82318553448E+03  0.10085097939E+04  0.89197356870E+02 0.  0.
        254    2    1    2    0    0 -0.83652499689E+02 -0.56965223692E+03 -0.17694216742E+04  0.20717342206E+04  0.91089418035E+03 0.  0.
         23    2    4    4    0    0 -0.41911622728E+03 -0.58531359418E+03 -0.12679053636E+04  0.14608808505E+04  0.91315019614E+02 0.  0.
         23    2    4    4    0    0  0.33546372759E+03  0.15661357259E+02 -0.50151631062E+03  0.61085337008E+03  0.94032118375E+02 0.  0.
          4    1    3    3  502    0  0.39337030537E+02  0.65440806793E+02  0.11496371490E+03  0.13800926385E+03  0.00000000000E+00 0. -1.
         -4    1    3    3    0  502  0.44315469152E+02  0.50421143013E+03  0.70822181958E+03  0.87050053005E+03  0.00000000000E+00 0.  1.
         13    1    5    5    0    0 -0.31876139010E+03 -0.47460689340E+03 -0.93434423320E+03  0.10953810630E+04  0.00000000000E+00 0.  1.
        -13    1    5    5    0    0 -0.10035483718E+03 -0.11070670078E+03 -0.33356113039E+03  0.36549978748E+03  0.00000000000E+00 0. -1.
          1    1    6    6  503    0  0.19543032731E+03 -0.28502248316E+02 -0.23879568319E+03  0.30988509047E+03  0.00000000000E+00 0. -1.
         -1    1    6    6    0  503  0.14003340028E+03  0.44163605574E+02 -0.26272062743E+03  0.30096827961E+03  0.00000000000E+00 0.  1.
<mgrwt>
<rscale>  0 0.29313035E+04</rscale>
<asrwt>0</asrwt>
<pdfrwt beam="1">  1        1 0.30972924E+00 0.29313035E+04</pdfrwt>
<pdfrwt beam="2">  1       -1 0.16415445E+00 0.29313035E+04</pdfrwt>
<totfact> 0.67943211E-01</totfact>
</mgrwt>
</event>
<event>
12    3  0.4688899E-008  0.1294883E+04  0.7818608E-02  0.9033632E-01
          2   -1    0    0  501    0  0.00000000000E+00  0.00000000000E+00  0.20638491108E+04  0.20638491108E+04  0.00000000000E+00 0. -1.
         -2   -1    0    0    0  501 -0.00000000000E+00 -0.00000000000E+00 -0.20310632569E+03  0.20310632569E+03  0.00000000000E+00 0.  1.
         23    2    1    2    0    0 -0.11593361821E+03  0.29618068909E+03  0.58540563371E+03  0.67338224435E+03  0.97878938520E+02 0.  0.
        254    2    1    2    0    0  0.11593361821E+03 -0.29618068909E+03  0.12753371514E+04  0.15935731922E+04  0.90101446411E+03 0.  0.
         23    2    4    4    0    0  0.29674359652E+03 -0.75726106227E+02  0.12542334934E+04  0.12936947889E+04  0.82178742033E+02 0.  0.
         23    2    4    4    0    0 -0.18080997831E+03 -0.22045458286E+03  0.21103658071E+02  0.29987840330E+03  0.90494314843E+02 0.  0.
          3    1    3    3  502    0 -0.25151007538E+02  0.15485898290E+03  0.35619305798E+03  0.38921378742E+03  0.00000000000E+00 0. -1.
         -3    1    3    3    0  502 -0.90782610673E+02  0.14132170619E+03  0.22921257573E+03  0.28416845693E+03  0.00000000000E+00 0.  1.
         13    1    5    5    0    0  0.59981803386E+02 -0.13256048304E+02  0.41317150400E+03  0.41771309684E+03  0.00000000000E+00 0.  1.
        -13    1    5    5    0    0  0.23676179313E+03 -0.62470057923E+02  0.84106198935E+03  0.87598169202E+03  0.00000000000E+00 0. -1.
          1    1    6    6  503    0 -0.18224122420E+03 -0.18320752206E+03  0.33549478439E+02  0.26058094221E+03  0.00000000000E+00 0. -1.
         -1    1    6    6    0  503  0.14312458981E+01 -0.37247060804E+02 -0.12445820367E+02  0.39297461088E+02  0.00000000000E+00 0.  1.
<mgrwt>
<rscale>  0 0.12948835E+04</rscale>
<asrwt>0</asrwt>
<pdfrwt beam="1">  1        2 0.31751523E+00 0.12948835E+04</pdfrwt>
<pdfrwt beam="2">  1       -2 0.31247128E-01 0.12948835E+04</pdfrwt>
<totfact> 0.57415612E+01</totfact>
</mgrwt>
</event>
<event>
12    3  0.4688899E-008  0.1544576E+04  0.7818608E-02  0.8855340E-01
          2   -1    0    0  501    0  0.00000000000E+00  0.00000000000E+00  0.11817366752E+04  0.11817366752E+04  0.00000000000E+00 0. -1.
         -2   -1    0    0    0  501 -0.00000000000E+00 -0.00000000000E+00 -0.50470518967E+03  0.50470518967E+03  0.00000000000E+00 0.  1.
         23    2    1    2    0    0 -0.23138107348E+03  0.21826752682E+02  0.71651401948E+03  0.75892225458E+03  0.92504270645E+02 0.  0.
        254    2    1    2    0    0  0.23138107348E+03 -0.21826752682E+02 -0.39482533957E+02  0.92751961029E+03  0.89706195365E+03 0.  0.
         23    2    4    4    0    0  0.29876442022E+03 -0.40789452363E+03  0.44349937154E+02  0.51616117191E+03  0.93900571147E+02 0.  0.
         23    2    4    4    0    0 -0.67383346736E+02  0.38606777095E+03 -0.83832471112E+02  0.41135843838E+03  0.92731021933E+02 0.  0.
          3    1    3    3  502    0 -0.22482510044E+03  0.19097263090E+02  0.71713506672E+03  0.75179367859E+03  0.00000000000E+00 0. -1.
         -3    1    3    3    0  502 -0.65559730423E+01  0.27294895918E+01 -0.62104724279E+00  0.71285759897E+01  0.00000000000E+00 0.  1.
         13    1    5    5    0    0  0.94868048392E+02 -0.79973446614E+02 -0.16783748244E+02  0.12520939651E+03  0.00000000000E+00 0.  1.
        -13    1    5    5    0    0  0.20389637183E+03 -0.32792107702E+03  0.61133685399E+02  0.39095177540E+03  0.00000000000E+00 0. -1.
          2    1    6    6  503    0 -0.21653352938E+02  0.32806583174E+03 -0.71711335506E+02  0.33650939555E+03  0.00000000000E+00 0. -1.
         -2    1    6    6    0  503 -0.45729993798E+02  0.58001939206E+02 -0.12121135606E+02  0.74849042832E+02  0.00000000000E+00 0.  1.
<mgrwt>
<rscale>  0 0.15445758E+04</rscale>
<asrwt>0</asrwt>
<pdfrwt beam="1">  1        2 0.18180564E+00 0.15445758E+04</pdfrwt>
<pdfrwt beam="2">  1       -2 0.77646953E-01 0.15445758E+04</pdfrwt>
<totfact> 0.27651755E+01</totfact>
</mgrwt>
</event>
<event>
12    3  0.4688899E-008  0.1747783E+04  0.7818608E-02  0.8734572E-01
          2   -1    0    0  501    0  0.00000000000E+00  0.00000000000E+00  0.20858648031E+04  0.20858648031E+04  0.00000000000E+00 0. -1.
         -2   -1    0    0    0  501 -0.00000000000E+00 -0.00000000000E+00 -0.36612439434E+03  0.36612439434E+03  0.00000000000E+00 0.  1.
         23    2    1    2    0    0  0.54057294224E+03  0.23363543308E+03  0.25271584851E+03  0.64733680887E+03  0.91515149346E+02 0.  0.
        254    2    1    2    0    0 -0.54057294224E+03 -0.23363543308E+03  0.14670245602E+04  0.18046523885E+04  0.87051970782E+03 0.  0.
         23    2    4    4    0    0 -0.50341299876E+03 -0.30655667790E+03  0.15478940577E+04  0.16588030187E+04  0.90828393825E+02 0.  0.
         23    2    4    4    0    0 -0.37159943475E+02  0.72921244829E+02 -0.80869497434E+02  0.14584936981E+03  0.89631432616E+02 0.  0.
          1    1    3    3  502    0  0.43283622566E+03  0.18086546400E+03  0.23932113675E+03  0.52662521855E+03  0.00000000000E+00 0. -1.
         -1    1    3    3    0  502  0.10773671658E+03  0.52769969072E+02  0.13394711756E+02  0.12071159032E+03  0.00000000000E+00 0.  1.
         13    1    5    5    0    0 -0.25093463860E+03 -0.99943234405E+02  0.70733624954E+03  0.75715349360E+03  0.00000000000E+00 0. -1.
        -13    1    5    5    0    0 -0.25247836016E+03 -0.20661344350E+03  0.84055780813E+03  0.90164952514E+03  0.00000000000E+00 0.  1.
          2    1    6    6  503    0 -0.12309051798E+02  0.84789172964E+02 -0.81574592977E+02  0.11830101786E+03  0.00000000000E+00 0. -1.
         -2    1    6    6    0  503 -0.24850891677E+02 -0.11867928135E+02  0.70509554291E+00  0.27548351949E+02  0.00000000000E+00 0.  1.
<mgrwt>
<rscale>  0 0.17477826E+04</rscale>
<asrwt>0</asrwt>
<pdfrwt beam="1">  1        2 0.32090227E+00 0.17477826E+04</pdfrwt>
<pdfrwt beam="2">  1       -2 0.56326831E-01 0.17477826E+04</pdfrwt>
<totfact> 0.16782894E+01</totfact>
</mgrwt>
</event>
<event>
12    3  0.4688899E-008  0.1217561E+04  0.7818608E-02  0.9097623E-01
          2   -1    0    0  501    0  0.00000000000E+00  0.00000000000E+00  0.19863377905E+04  0.19863377905E+04  0.00000000000E+00 0. -1.
         -2   -1    0    0    0  501 -0.00000000000E+00 -0.00000000000E+00 -0.18658133831E+03  0.18658133831E+03  0.00000000000E+00 0.  1.
         23    2    1    2    0    0  0.11420043474E+03  0.82672530724E+02  0.13447603537E+02  0.16790624945E+03  0.90195254479E+02 0.  0.
        254    2    1    2    0    0 -0.11420043474E+03 -0.82672530724E+02  0.17863088486E+04  0.20050128793E+04  0.89961150335E+03 0.  0.
         23    2    4    4    0    0  0.33569964947E+03 -0.16610277015E+03  0.11704392252E+04  0.12322153432E+04  0.90234622600E+02 0.  0.
         23    2    4    4    0    0 -0.44990008422E+03  0.83430239427E+02  0.61586962342E+03  0.77279753617E+03  0.92465930077E+02 0.  0.
          1    1    3    3  502    0  0.24627782373E+02  0.40045540886E+02 -0.33926957972E+02  0.57975956109E+02  0.00000000000E+00 0. -1.
         -1    1    3    3    0  502  0.89572652369E+02  0.42626989838E+02  0.47374561509E+02  0.10993029334E+03  0.00000000000E+00 0.  1.
         13    1    5    5    0    0  0.11177719135E+03 -0.19947737516E+02  0.43846987261E+03  0.45293253573E+03  0.00000000000E+00 0.  1.
        -13    1    5    5    0    0  0.22392245813E+03 -0.14615503264E+03  0.73196935260E+03  0.77928280744E+03  0.00000000000E+00 0. -1.
          2    1    6    6  503    0 -0.25894184583E+03  0.71301374051E+02  0.42339605928E+03  0.50139703676E+03  0.00000000000E+00 0. -1.
         -2    1    6    6    0  503 -0.19095823839E+03  0.12128865376E+02  0.19247356415E+03  0.27140049941E+03  0.00000000000E+00 0.  1.
<mgrwt>
<rscale>  0 0.12175608E+04</rscale>
<asrwt>0</asrwt>
<pdfrwt beam="1">  1        2 0.30559041E+00 0.12175608E+04</pdfrwt>
<pdfrwt beam="2">  1       -2 0.28704823E-01 0.12175608E+04</pdfrwt>
<totfact> 0.74691382E+01</totfact>
</mgrwt>
</event>
<event>
12    3  0.4688899E-008  0.1344207E+04  0.7818608E-02  0.8995225E-01
         -1   -1    0    0    0  501 -0.00000000000E+00  0.00000000000E+00  0.51194632454E+03  0.51194632454E+03  0.00000000000E+00 0.  1.
          1   -1    0    0  501    0  0.00000000000E+00 -0.00000000000E+00 -0.88236399571E+03  0.88236399571E+03  0.00000000000E+00 0. -1.
         23    2    1    2    0    0  0.15490314035E+03  0.19600755012E+03  0.17519282932E+03  0.31839014482E+03  0.90916523668E+02 0.  0.
        254    2    1    2    0    0 -0.15490314035E+03 -0.19600755012E+03 -0.54561050049E+03  0.10759201754E+04  0.89302825434E+03 0.  0.
         23    2    4    4    0    0 -0.79932662786E+02  0.10818484022E+03 -0.69788036422E+03  0.71633008451E+03  0.89434875582E+02 0.  0.
         23    2    4    4    0    0 -0.74970477566E+02 -0.30419239034E+03  0.15226986373E+03  0.35959009092E+03  0.89248749231E+02 0.  0.
          1    1    3    3  502    0  0.33976285326E+02  0.24463837369E+00  0.10997225288E+02  0.35712557687E+02  0.00000000000E+00 0. -1.
         -1    1    3    3    0  502  0.12092685503E+03  0.19576291174E+03  0.16419560404E+03  0.28267758713E+03  0.00000000000E+00 0.  1.
         13    1    5    5    0    0 -0.22340406621E+02  0.46464062296E+02 -0.47848081526E+03  0.48125034382E+03  0.00000000000E+00 0.  1.
        -13    1    5    5    0    0 -0.57592256165E+02  0.61720777928E+02 -0.21939954896E+03  0.23507974069E+03  0.00000000000E+00 0. -1.
          1    1    6    6  503    0 -0.61535712080E+02 -0.84712385336E+02  0.63518670523E+02  0.12246409105E+03  0.00000000000E+00 0.  1.
         -1    1    6    6    0  503 -0.13434765486E+02 -0.21948000501E+03  0.88751193205E+02  0.23712599987E+03  0.00000000000E+00 0. -1.
<mgrwt>
<rscale>  0 0.13442068E+04</rscale>
<asrwt>0</asrwt>
<pdfrwt beam="1">  1        1 0.13574831E+00 0.13442068E+04</pdfrwt>
<pdfrwt beam="2">  1       -1 0.78760974E-01 0.13442068E+04</pdfrwt>
<totfact> 0.29724171E+01</totfact>
</mgrwt>
</event>
<event>
12    3  0.4688899E-008  0.1775384E+04  0.7818608E-02  0.8719501E-01
         -1   -1    0    0    0  501 -0.00000000000E+00  0.00000000000E+00  0.71250725671E+03  0.71250725671E+03  0.00000000000E+00 0.  1.
          1   -1    0    0  501    0  0.00000000000E+00 -0.00000000000E+00 -0.11059496581E+04  0.11059496581E+04  0.00000000000E+00 0. -1.
         23    2    1    2    0    0 -0.18173254848E+03  0.22780742836E+03 -0.74720473212E+03  0.80711843832E+03  0.90566650533E+02 0.  0.
        254    2    1    2    0    0  0.18173254848E+03 -0.22780742836E+03  0.35376233077E+03  0.10113384764E+04  0.90151804401E+03 0.  0.
         23    2    4    4    0    0 -0.17296320391E+03 -0.12796547425E+03  0.53993121360E+03  0.58836448075E+03  0.91409049244E+02 0.  0.
         23    2    4    4    0    0  0.35469575239E+03 -0.99841954113E+02 -0.18616888283E+03  0.42297399569E+03  0.92036164274E+02 0.  0.
          1    1    3    3  502    0 -0.12027127312E+03  0.12712544132E+03 -0.55163216406E+03  0.57872627502E+03  0.00000000000E+00 0. -1.
         -1    1    3    3    0  502 -0.61461275362E+02  0.10068198704E+03 -0.19557256806E+03  0.22839216330E+03  0.00000000000E+00 0.  1.
         13    1    5    5    0    0 -0.24538025283E+02 -0.69251158805E+02  0.14991473333E+03  0.16694988755E+03  0.00000000000E+00 0.  1.
        -13    1    5    5    0    0 -0.14842517863E+03 -0.58714315444E+02  0.39001648026E+03  0.42141459320E+03  0.00000000000E+00 0. -1.
          1    1    6    6  503    0  0.35109924953E+03 -0.10481120516E+03 -0.19271832104E+03  0.41400051088E+03  0.00000000000E+00 0. -1.
         -1    1    6    6    0  503  0.35965028593E+01  0.49692510427E+01  0.65494382116E+01  0.89734848097E+01  0.00000000000E+00 0.  1.
<mgrwt>
<rscale>  0 0.17753841E+04</rscale>
<asrwt>0</asrwt>
<pdfrwt beam="1">  1        1 0.17014610E+00 0.17753841E+04</pdfrwt>
<pdfrwt beam="2">  1       -1 0.10961650E+00 0.17753841E+04</pdfrwt>
<totfact> 0.91322391E+00</totfact>
</mgrwt>
</event>
<event>
12    3  0.4688899E-008  0.1869242E+04  0.7818608E-02  0.8670320E-01
          2   -1    0    0  501    0  0.00000000000E+00  0.00000000000E+00  0.13640404067E+04  0.13640404067E+04  0.00000000000E+00 0.  1.
         -2   -1    0    0    0  501 -0.00000000000E+00 -0.00000000000E+00 -0.64038876434E+03  0.64038876434E+03  0.00000000000E+00 0. -1.
         23    2    1    2    0    0  0.47863970871E+03 -0.37140886819E+03  0.68389077722E+03  0.91844509297E+03  0.93777798586E+02 0.  0.
        254    2    1    2    0    0 -0.47863970871E+03  0.37140886819E+03  0.39760865163E+02  0.10859840781E+04  0.90041100246E+03 0.  0.
         23    2    4    4    0    0 -0.22092576387E+03  0.56355234355E+03 -0.23239397539E+03  0.65509688168E+03  0.93517525244E+02 0.  0.
         23    2    4    4    0    0 -0.25771394484E+03 -0.19214347536E+03  0.27215484055E+03  0.43088719641E+03  0.90884136743E+02 0.  0.
          3    1    3    3  502    0  0.54654785478E+02 -0.63349927492E+02  0.14034035261E+03  0.16338841286E+03  0.00000000000E+00 0. -1.
         -3    1    3    3    0  502  0.42398492323E+03 -0.30805894070E+03  0.54355042462E+03  0.75505668010E+03  0.00000000000E+00 0.  1.
         13    1    5    5    0    0 -0.77153212866E+02  0.14152356821E+03 -0.24047616087E+02  0.16297185786E+03  0.00000000000E+00 0. -1.
        -13    1    5    5    0    0 -0.14377255100E+03  0.42202877534E+03 -0.20834635930E+03  0.49212502382E+03  0.00000000000E+00 0.  1.
          4    1    6    6  503    0 -0.39542222016E+02 -0.78029522951E+02  0.62578090495E+02  0.10755561903E+03  0.00000000000E+00 0. -1.
         -4    1    6    6    0  503 -0.21817172282E+03 -0.11411395241E+03  0.20957675005E+03  0.32333157739E+03  0.00000000000E+00 0.  1.
<mgrwt>
<rscale>  0 0.18692417E+04</rscale>
<asrwt>0</asrwt>
<pdfrwt beam="1">  1        2 0.20985237E+00 0.18692417E+04</pdfrwt>
<pdfrwt beam="2">  1       -2 0.98521349E-01 0.18692417E+04</pdfrwt>
<totfact> 0.12192831E+01</totfact>
</mgrwt>
</event>
<event>
12    3  0.4688899E-008  0.1476263E+04  0.7818608E-02  0.8900393E-01
          2   -1    0    0  501    0  0.00000000000E+00  0.00000000000E+00  0.48928372536E+03  0.48928372536E+03  0.00000000000E+00 0. -1.
         -2   -1    0    0    0  501 -0.00000000000E+00 -0.00000000000E+00 -0.11135426666E+04  0.11135426666E+04  0.00000000000E+00 0.  1.
         23    2    1    2    0    0 -0.30617995824E+03 -0.16796819842E+03 -0.52633518537E+03  0.63823631436E+03  0.91418724042E+02 0.  0.
        254    2    1    2    0    0  0.30617995824E+03  0.16796819842E+03 -0.97923755853E+02  0.96459007758E+03  0.89380393448E+03 0.  0.
         23    2    4    4    0    0  0.58233211082E+03 -0.13964221369E+02 -0.17138419368E+03  0.61383912085E+03  0.90112361369E+02 0.  0.
         23    2    4    4    0    0 -0.27615215258E+03  0.18193241979E+03  0.73460437825E+02  0.35075095673E+03  0.90941634989E+02 0.  0.
          2    1    3    3  502    0 -0.18755035205E+03 -0.50919257130E+02 -0.28261641989E+03  0.34298680163E+03  0.00000000000E+00 0. -1.
         -2    1    3    3    0  502 -0.11862960618E+03 -0.11704894129E+03 -0.24371876549E+03  0.29524951274E+03  0.00000000000E+00 0.  1.
         13    1    5    5    0    0  0.55710402782E+02 -0.15076044387E+02 -0.42500112157E+02  0.71674232649E+02  0.00000000000E+00 0. -1.
        -13    1    5    5    0    0  0.52662170804E+03  0.11118230180E+01 -0.12888408152E+03  0.54216488820E+03  0.00000000000E+00 0.  1.
          3    1    6    6  503    0 -0.10112194574E+02  0.39767353977E+02  0.13585602303E+02  0.43223460196E+02  0.00000000000E+00 0. -1.
         -3    1    6    6    0  503 -0.26603995801E+03  0.14216506581E+03  0.59874835522E+02  0.30752749653E+03  0.00000000000E+00 0.  1.
<mgrwt>
<rscale>  0 0.14762633E+04</rscale>
<asrwt>0</asrwt>
<pdfrwt beam="1">  1        2 0.75274420E-01 0.14762633E+04</pdfrwt>
<pdfrwt beam="2">  1       -2 0.17131425E+00 0.14762633E+04</pdfrwt>
<totfact> 0.12736535E+01</totfact>
</mgrwt>
</event>
<event>
12    3  0.4688899E-008  0.2083726E+04  0.7818608E-02  0.8568446E-01
         -1   -1    0    0    0  501 -0.00000000000E+00  0.00000000000E+00  0.60573799647E+03  0.60573799647E+03  0.00000000000E+00 0.  1.
          1   -1    0    0  501    0  0.00000000000E+00 -0.00000000000E+00 -0.17919929506E+04  0.17919929506E+04  0.00000000000E+00 0. -1.
         23    2    1    2    0    0  0.16738662624E+03  0.73406429414E+03 -0.92894908791E+03  0.11991831818E+04  0.90693026122E+02 0.  0.
        254    2    1    2    0    0 -0.16738662624E+03 -0.73406429414E+03 -0.25730586621E+03  0.11985477653E+04  0.89634913191E+03 0.  0.
         23    2    4    4    0    0  0.24496085352E+03 -0.55476065034E+03  0.91969757233E+02  0.62009218034E+03  0.91053154508E+02 0.  0.
         23    2    4    4    0    0 -0.41234747976E+03 -0.17930364380E+03 -0.34927562344E+03  0.57845558494E+03  0.10216242886E+03 0.  0.
          2    1    3    3  502    0  0.15349858788E+03  0.69608341401E+03 -0.90562916640E+03  0.11525008125E+04  0.00000000000E+00 0. -1.
         -2    1    3    3    0  502  0.13888038361E+02  0.37980880130E+02 -0.23319921510E+02  0.46682369308E+02  0.00000000000E+00 0.  1.
         13    1    5    5    0    0  0.22136651962E+03 -0.54397007128E+03  0.87780787733E+02  0.59381145253E+03  0.00000000000E+00 0.  1.
        -13    1    5    5    0    0  0.23594333901E+02 -0.10790579058E+02  0.41889694997E+01  0.26280727808E+02  0.00000000000E+00 0. -1.
          3    1    6    6  503    0 -0.94708211457E+02 -0.21841184010E+02 -0.30987838926E+02  0.10201435584E+03  0.00000000000E+00 0. -1.
         -3    1    6    6    0  503 -0.31763926830E+03 -0.15746245979E+03 -0.31828778451E+03  0.47644122910E+03  0.00000000000E+00 0.  1.
<mgrwt>
<rscale>  0 0.20837257E+04</rscale>
<asrwt>0</asrwt>
<pdfrwt beam="1">  1        1 0.27569122E+00 0.20837257E+04</pdfrwt>
<pdfrwt beam="2">  1       -1 0.93190463E-01 0.20837257E+04</pdfrwt>
<totfact> 0.42470124E+00</totfact>
</mgrwt>
</event>
<event>
12    3  0.4688899E-008  0.2461921E+04  0.7818608E-02  0.8416678E-01
          2   -1    0    0  501    0  0.00000000000E+00  0.00000000000E+00  0.13760609668E+04  0.13760609668E+04  0.00000000000E+00 0. -1.
         -2   -1    0    0    0  501 -0.00000000000E+00 -0.00000000000E+00 -0.11011600736E+04  0.11011600736E+04  0.00000000000E+00 0.  1.
         23    2    1    2    0    0  0.56249515456E+03  0.57582492198E+03  0.81986508637E+03  0.11525740379E+04  0.90956106007E+02 0.  0.
        254    2    1    2    0    0 -0.56249515456E+03 -0.57582492198E+03 -0.54496419321E+03  0.13246470025E+04  0.89984919277E+03 0.  0.
         23    2    4    4    0    0 -0.26920834300E+03 -0.78528881490E+03 -0.36248250816E+03  0.91040939837E+03  0.91104605708E+02 0.  0.
         23    2    4    4    0    0 -0.29328681156E+03  0.20946389292E+03 -0.18248168505E+03  0.41423760415E+03  0.91656702112E+02 0.  0.
          1    1    3    3  502    0  0.43189124476E+03  0.44492225042E+03  0.68325250885E+03  0.92266995565E+03  0.00000000000E+00 0. -1.
         -1    1    3    3    0  502  0.13060390981E+03  0.13090267156E+03  0.13661257752E+03  0.22990408221E+03  0.00000000000E+00 0.  1.
         13    1    5    5    0    0 -0.41333556715E+02 -0.66085715324E+02 -0.13275312744E+02  0.79069707279E+02  0.00000000000E+00 0. -1.
        -13    1    5    5    0    0 -0.22787478629E+03 -0.71920309957E+03 -0.34920719542E+03  0.83133969110E+03  0.00000000000E+00 0.  1.
          1    1    6    6  503    0 -0.15783114594E+03  0.13974640689E+03 -0.14929919560E+03  0.25832146383E+03  0.00000000000E+00 0. -1.
         -1    1    6    6    0  503 -0.13545566562E+03  0.69717486023E+02 -0.33182489447E+02  0.15591614032E+03  0.00000000000E+00 0.  1.
<mgrwt>
<rscale>  0 0.24619207E+04</rscale>
<asrwt>0</asrwt>
<pdfrwt beam="1">  1        2 0.21170169E+00 0.24619207E+04</pdfrwt>
<pdfrwt beam="2">  1       -2 0.16940924E+00 0.24619207E+04</pdfrwt>
<totfact> 0.28761584E+00</totfact>
</mgrwt>
</event>
<event>
12    3  0.4688899E-008  0.1639595E+04  0.7818608E-02  0.8796586E-01
         -2   -1    0    0    0  501 -0.00000000000E+00  0.00000000000E+00  0.22449446919E+03  0.22449446919E+03  0.00000000000E+00 0. -1.
          2   -1    0    0  501    0  0.00000000000E+00 -0.00000000000E+00 -0.29936957847E+04  0.29936957847E+04  0.00000000000E+00 0.  1.
         23    2    1    2    0    0  0.14824401080E+03  0.48666066889E+03 -0.47087145641E+03  0.69939934939E+03  0.92868875726E+02 0.  0.
        254    2    1    2    0    0 -0.14824401080E+03 -0.48666066889E+03 -0.22983298591E+04  0.25187909045E+04  0.89619896562E+03 0.  0.
         23    2    4    4    0    0 -0.47574231824E+03 -0.47994035748E+03 -0.13713938009E+04  0.15315754299E+04  0.91262479979E+02 0.  0.
         23    2    4    4    0    0  0.32749830745E+03 -0.67203114120E+01 -0.92693605826E+03  0.98721547464E+03  0.89909027935E+02 0.  0.
          3    1    3    3  502    0  0.14509830914E+03  0.35908307447E+03 -0.32503668583E+03  0.50561153154E+03  0.00000000000E+00 0. -1.
         -3    1    3    3    0  502  0.31457016526E+01  0.12757759442E+03 -0.14583477058E+03  0.19378781785E+03  0.00000000000E+00 0.  1.
         13    1    5    5    0    0 -0.12119460752E+03 -0.82172388780E+02 -0.35411086538E+03  0.38319047398E+03  0.00000000000E+00 0.  1.
        -13    1    5    5    0    0 -0.35454771073E+03 -0.39776796870E+03 -0.10172829355E+04  0.11483849559E+04  0.00000000000E+00 0. -1.
          4    1    6    6  503    0  0.14211495326E+03  0.22964070323E+02 -0.29965875720E+03  0.33244455062E+03  0.00000000000E+00 0. -1.
         -4    1    6    6    0  503  0.18538335419E+03 -0.29684381735E+02 -0.62727730106E+03  0.65477092403E+03  0.00000000000E+00 0.  1.
<mgrwt>
<rscale>  0 0.16395953E+04</rscale>
<asrwt>0</asrwt>
<pdfrwt beam="1">  1        2 0.46056853E+00 0.16395953E+04</pdfrwt>
<pdfrwt beam="2">  1       -2 0.34537615E-01 0.16395953E+04</pdfrwt>
<totfact> 0.13272490E+01</totfact>
</mgrwt>
</event>
<event>
12    3  0.4688899E-008  0.1801996E+04  0.7818608E-02  0.8705239E-01
          2   -1    0    0  501    0  0.00000000000E+00  0.00000000000E+00  0.19579553663E+04  0.19579553663E+04  0.00000000000E+00 0. -1.
         -2   -1    0    0    0  501 -0.00000000000E+00 -0.00000000000E+00 -0.41461474248E+03  0.41461474248E+03  0.00000000000E+00 0.  1.
         23    2    1    2    0    0  0.52257231626E+03  0.78938097747E+02 -0.36595706213E+02  0.53768985345E+03  0.91967841061E+02 0.  0.
        254    2    1    2    0    0 -0.52257231626E+03 -0.78938097747E+02  0.15799363301E+04  0.18348802554E+04  0.76894323295E+03 0.  0.
         23    2    4    4    0    0 -0.44844422646E+03 -0.38971647513E+03  0.10062767190E+04  0.11720836623E+04  0.90587642576E+02 0.  0.
         23    2    4    4    0    0 -0.74128089797E+02  0.31077837738E+03  0.57365961104E+03  0.66279659305E+03  0.90198674473E+02 0.  0.
          3    1    3    3  502    0  0.79696629774E+01 -0.62329089155E+00 -0.14436298905E+02  0.16501840673E+02  0.00000000000E+00 0. -1.
         -3    1    3    3    0  502  0.51460265328E+03  0.79561388639E+02 -0.22159407308E+02  0.52118801278E+03  0.00000000000E+00 0.  1.
         13    1    5    5    0    0 -0.24183297168E+03 -0.23014281846E+03  0.48084866658E+03  0.58537538659E+03  0.00000000000E+00 0.  1.
        -13    1    5    5    0    0 -0.20661125479E+03 -0.15957365667E+03  0.52542805244E+03  0.58670827572E+03  0.00000000000E+00 0. -1.
          3    1    6    6  503    0 -0.92992653091E+02  0.28590276764E+03  0.51433781959E+03  0.59576120949E+03  0.00000000000E+00 0. -1.
         -3    1    6    6    0  503  0.18864563294E+02  0.24875609741E+02  0.59321791449E+02  0.67035383560E+02  0.00000000000E+00 0.  1.
<mgrwt>
<rscale>  0 0.18019957E+04</rscale>
<asrwt>0</asrwt>
<pdfrwt beam="1">  1        2 0.30122390E+00 0.18019957E+04</pdfrwt>
<pdfrwt beam="2">  1       -2 0.63786884E-01 0.18019957E+04</pdfrwt>
<totfact> 0.15129322E+01</totfact>
</mgrwt>
</event>
<event>
12    3  0.4688899E-008  0.1219626E+04  0.7818608E-02  0.9095850E-01
          2   -1    0    0  501    0  0.00000000000E+00  0.00000000000E+00  0.50409644647E+03  0.50409644647E+03  0.00000000000E+00 0. -1.
         -2   -1    0    0    0  501 -0.00000000000E+00 -0.00000000000E+00 -0.73769956832E+03  0.73769956832E+03  0.00000000000E+00 0.  1.
         23    2    1    2    0    0  0.24222910410E+02 -0.94565792813E+02 -0.30464685085E+03  0.33241642611E+03  0.90341231192E+02 0.  0.
        254    2    1    2    0    0 -0.24222910410E+02  0.94565792813E+02  0.71043728999E+02  0.90937958869E+03  0.90132934399E+03 0.  0.
         23    2    4    4    0    0  0.15182179844E+03  0.43138474353E+03 -0.10926980443E+03  0.47917993932E+03  0.92362701625E+02 0.  0.
         23    2    4    4    0    0 -0.17604470885E+03 -0.33681895072E+03  0.18031353343E+03  0.43019964937E+03  0.90111169666E+02 0.  0.
          4    1    3    3  502    0  0.27848301629E+01 -0.45077517998E+01 -0.16370462252E+03  0.16379034935E+03  0.00000000000E+00 0.  1.
         -4    1    3    3    0  502  0.21438080247E+02 -0.90058041014E+02 -0.14094222833E+03  0.16862607675E+03  0.00000000000E+00 0. -1.
         13    1    5    5    0    0  0.10513227305E+03  0.29086097512E+03 -0.11756846201E+03  0.33087043528E+03  0.00000000000E+00 0. -1.
        -13    1    5    5    0    0  0.46689525396E+02  0.14052376842E+03  0.82986575808E+01  0.14830950404E+03  0.00000000000E+00 0.  1.
          4    1    6    6  503    0 -0.12652661306E+03 -0.15010425217E+03  0.10702396065E+03  0.22359427204E+03  0.00000000000E+00 0. -1.
         -4    1    6    6    0  503 -0.49518095792E+02 -0.18671469855E+03  0.73289572771E+02  0.20660537733E+03  0.00000000000E+00 0.  1.
<mgrwt>
<rscale>  0 0.12196257E+04</rscale>
<asrwt>0</asrwt>
<pdfrwt beam="1">  1        2 0.77553300E-01 0.12196257E+04</pdfrwt>
<pdfrwt beam="2">  1       -2 0.11349224E+00 0.12196257E+04</pdfrwt>
<totfact> 0.36600657E+01</totfact>
</mgrwt>
</event>
<event>
12    3  0.4688899E-008  0.1864040E+04  0.7818608E-02  0.8672966E-01
          2   -1    0    0  501    0  0.00000000000E+00  0.00000000000E+00  0.24249548864E+04  0.24249548864E+04  0.00000000000E+00 0. -1.
         -2   -1    0    0    0  501 -0.00000000000E+00 -0.00000000000E+00 -0.35821759742E+03  0.35821759742E+03  0.00000000000E+00 0.  1.
         23    2    1    2    0    0  0.63751786556E+03  0.25484516676E+03  0.10567850223E+04  0.12648432550E+04  0.10797586943E+03 0.  0.
        254    2    1    2    0    0 -0.63751786556E+03 -0.25484516676E+03  0.10099522667E+04  0.15183292288E+04  0.90218899254E+03 0.  0.
         23    2    4    4    0    0 -0.32645387523E+03 -0.64884220136E+02  0.10823095290E+04  0.11359259284E+04  0.90286785074E+02 0.  0.
         23    2    4    4    0    0 -0.31106399033E+03 -0.18996094662E+03 -0.72357262345E+02  0.38240330043E+03  0.90281467898E+02 0.  0.
          3    1    3    3  502    0  0.33632269566E+03  0.18826360546E+03  0.62232048686E+03  0.73201019741E+03  0.00000000000E+00 0. -1.
         -3    1    3    3    0  502  0.30119516990E+03  0.66581561297E+02  0.43446453549E+03  0.53283305760E+03  0.00000000000E+00 0.  1.
         13    1    5    5    0    0 -0.17699127231E+03  0.73928040975E+01  0.61483639346E+03  0.63984713390E+03  0.00000000000E+00 0.  1.
        -13    1    5    5    0    0 -0.14946260292E+03 -0.72277024233E+02  0.46747313554E+03  0.49607879451E+03  0.00000000000E+00 0. -1.
          3    1    6    6  503    0 -0.61447755715E+02 -0.53988813254E+02  0.18738692884E+02  0.83915178901E+02  0.00000000000E+00 0. -1.
         -3    1    6    6    0  503 -0.24961623462E+03 -0.13597213337E+03 -0.91095955229E+02  0.29848812153E+03  0.00000000000E+00 0.  1.
<mgrwt>
<rscale>  0 0.18640402E+04</rscale>
<asrwt>0</asrwt>
<pdfrwt beam="1">  1        2 0.37306997E+00 0.18640402E+04</pdfrwt>
<pdfrwt beam="2">  1       -2 0.55110401E-01 0.18640402E+04</pdfrwt>
<totfact> 0.11193187E+01</totfact>
</mgrwt>
</event>
<event>
12    3  0.4688899E-008  0.1415074E+04  0.7818608E-02  0.8942979E-01
          2   -1    0    0  501    0  0.00000000000E+00  0.00000000000E+00  0.97257689100E+03  0.97257689100E+03  0.00000000000E+00 0. -1.
         -2   -1    0    0    0  501 -0.00000000000E+00 -0.00000000000E+00 -0.51472368564E+03  0.51472368564E+03  0.00000000000E+00 0.  1.
         23    2    1    2    0    0  0.29937649953E+03 -0.26034574578E+03  0.26507275331E+02  0.40790944471E+03  0.91001558323E+02 0.  0.
        254    2    1    2    0    0 -0.29937649953E+03  0.26034574578E+03  0.43134593003E+03  0.10793911319E+04  0.90643240704E+03 0.  0.
         23    2    4    4    0    0 -0.55005289771E+03  0.16595741572E+03  0.52309362461E+03  0.78209345846E+03  0.89124539505E+02 0.  0.
         23    2    4    4    0    0  0.25067639818E+03  0.94388330061E+02 -0.91747694577E+02  0.29729767348E+03  0.90666717941E+02 0.  0.
          1    1    3    3  502    0  0.19023565527E+03 -0.14462595140E+03  0.57641279919E+02  0.24582267492E+03  0.00000000000E+00 0. -1.
         -1    1    3    3    0  502  0.10914084426E+03 -0.11571979439E+03 -0.31134004588E+02  0.16208676979E+03  0.00000000000E+00 0.  1.
         13    1    5    5    0    0 -0.17935645728E+03  0.32177329070E+02  0.21518440420E+03  0.28197242256E+03  0.00000000000E+00 0.  1.
        -13    1    5    5    0    0 -0.37069644043E+03  0.13378008665E+03  0.30790922041E+03  0.50012103590E+03  0.00000000000E+00 0. -1.
          1    1    6    6  503    0  0.19563699923E+03  0.29913509441E+02 -0.60532883230E+02  0.20696106751E+03  0.00000000000E+00 0. -1.
         -1    1    6    6    0  503  0.55039398954E+02  0.64474820619E+02 -0.31214811347E+02  0.90336605972E+02  0.00000000000E+00 0.  1.
<mgrwt>
<rscale>  0 0.14150737E+04</rscale>
<asrwt>0</asrwt>
<pdfrwt beam="1">  1        2 0.14962721E+00 0.14150737E+04</pdfrwt>
<pdfrwt beam="2">  1       -2 0.79188260E-01 0.14150737E+04</pdfrwt>
<totfact> 0.36093101E+01</totfact>
</mgrwt>
</event>
<event>
12    3  0.4688899E-008  0.1976034E+04  0.7818608E-02  0.8617908E-01
         -2   -1    0    0    0  501 -0.00000000000E+00  0.00000000000E+00  0.51731712934E+03  0.51731712934E+03  0.00000000000E+00 0.  1.
          2   -1    0    0  501    0  0.00000000000E+00 -0.00000000000E+00 -0.18870001511E+04  0.18870001511E+04  0.00000000000E+00 0. -1.
         23    2    1    2    0    0 -0.49091426174E+03 -0.54354900273E+03 -0.89089002652E+03  0.11570122789E+04  0.92466444865E+02 0.  0.
        254    2    1    2    0    0  0.49091426174E+03  0.54354900273E+03 -0.47879299522E+03  0.12473050015E+04  0.88886709006E+03 0.  0.
         23    2    4    4    0    0  0.40856315947E+03  0.74953771222E+03 -0.51896456429E+03  0.10031651139E+04  0.91024114768E+02 0.  0.
         23    2    4    4    0    0  0.82351102266E+02 -0.20598870949E+03  0.40171569070E+02  0.24413988761E+03  0.93688191779E+02 0.  0.
          3    1    3    3  502    0 -0.16031374729E+03 -0.17076485697E+03 -0.35466287365E+03  0.42502574968E+03  0.00000000000E+00 0. -1.
         -3    1    3    3    0  502 -0.33060051445E+03 -0.37278414576E+03 -0.53622715287E+03  0.73198652922E+03  0.00000000000E+00 0.  1.
         13    1    5    5    0    0  0.30213222178E+03  0.61069678956E+03 -0.38312186049E+03  0.78167564130E+03  0.00000000000E+00 0.  1.
        -13    1    5    5    0    0  0.10643093769E+03  0.13884092266E+03 -0.13584270380E+03  0.22148947261E+03  0.00000000000E+00 0. -1.
          3    1    6    6  503    0 -0.20190956603E+02 -0.20352242689E+02  0.29029374788E+01  0.28815196633E+02  0.00000000000E+00 0. -1.
         -3    1    6    6    0  503  0.10254205887E+03 -0.18563646680E+03  0.37268631591E+02  0.21532469097E+03  0.00000000000E+00 0.  1.
<mgrwt>
<rscale>  0 0.19760339E+04</rscale>
<asrwt>0</asrwt>
<pdfrwt beam="1">  1        2 0.29030772E+00 0.19760339E+04</pdfrwt>
<pdfrwt beam="2">  1       -2 0.79587250E-01 0.19760339E+04</pdfrwt>
<totfact> 0.10049859E+01</totfact>
</mgrwt>
</event>
<event>
12    3  0.4688899E-008  0.2027422E+04  0.7818608E-02  0.8593906E-01
         -2   -1    0    0    0  501 -0.00000000000E+00  0.00000000000E+00  0.80189019384E+03  0.80189019384E+03  0.00000000000E+00 0. -1.
          2   -1    0    0  501    0  0.00000000000E+00 -0.00000000000E+00 -0.12814849063E+04  0.12814849063E+04  0.00000000000E+00 0.  1.
         23    2    1    2    0    0 -0.70595487237E+03 -0.55096395680E+02  0.20694691180E+03  0.74330483878E+03  0.90923948474E+02 0.  0.
        254    2    1    2    0    0  0.70595487237E+03  0.55096395680E+02 -0.68654162430E+03  0.13400702614E+04  0.90721607622E+03 0.  0.
         23    2    4    4    0    0  0.32629890216E+03 -0.39458004001E+02 -0.84261051265E+03  0.90903780141E+03  0.91265221915E+02 0.  0.
         23    2    4    4    0    0  0.37965597021E+03  0.94554399681E+02  0.15606888835E+03  0.43103245999E+03  0.91390882661E+02 0.  0.
          4    1    3    3  502    0 -0.59670398587E+02 -0.14795191925E+02  0.43932167943E+02  0.75561164309E+02  0.00000000000E+00 0. -1.
         -4    1    3    3    0  502 -0.64628447379E+03 -0.40301203755E+02  0.16301474386E+03  0.66774367447E+03  0.00000000000E+00 0.  1.
         13    1    5    5    0    0  0.27749172680E+02 -0.51966628120E+01 -0.24145855849E+02  0.37148946735E+02  0.00000000000E+00 0.  1.
        -13    1    5    5    0    0  0.29854972948E+03 -0.34261341189E+02 -0.81846465681E+03  0.87188885468E+03  0.00000000000E+00 0. -1.
          4    1    6    6  503    0  0.37901246981E+03  0.80260272939E+02  0.15186426022E+03  0.41611887390E+03  0.00000000000E+00 0. -1.
         -4    1    6    6    0  503  0.64350039618E+00  0.14294126741E+02  0.42046281312E+01  0.14913586080E+02  0.00000000000E+00 0.  1.
<mgrwt>
<rscale>  0 0.20274222E+04</rscale>
<asrwt>0</asrwt>
<pdfrwt beam="1">  1        2 0.19715152E+00 0.20274222E+04</pdfrwt>
<pdfrwt beam="2">  1       -2 0.12336772E+00 0.20274222E+04</pdfrwt>
<totfact> 0.77873400E+00</totfact>
</mgrwt>
</event>
<event>
12    3  0.4688899E-008  0.2224940E+04  0.7818608E-02  0.8508119E-01
          2   -1    0    0  501    0  0.00000000000E+00  0.00000000000E+00  0.14649214879E+04  0.14649214879E+04  0.00000000000E+00 0. -1.
         -2   -1    0    0    0  501 -0.00000000000E+00 -0.00000000000E+00 -0.84481640866E+03  0.84481640866E+03  0.00000000000E+00 0.  1.
         23    2    1    2    0    0  0.44695192723E+03  0.28302773821E+03  0.10523345059E+04  0.11803865124E+04  0.77676769894E+02 0.  0.
        254    2    1    2    0    0 -0.44695192723E+03 -0.28302773821E+03 -0.43222942664E+03  0.11293513841E+04  0.89930058700E+03 0.  0.
         23    2    4    4    0    0 -0.69060145693E+03 -0.31892285725E+03 -0.40227563652E+03  0.86531250242E+03  0.91092688536E+02 0.  0.
         23    2    4    4    0    0  0.24364952970E+03  0.35895119045E+02 -0.29953790113E+02  0.26403888173E+03  0.90364531894E+02 0.  0.
          1    1    3    3  502    0  0.31457150070E+03  0.20878649874E+03  0.82173525699E+03  0.90432066420E+03  0.00000000000E+00 0. -1.
         -1    1    3    3    0  502  0.13238042653E+03  0.74241239468E+02  0.23059924888E+03  0.27606584821E+03  0.00000000000E+00 0.  1.
         13    1    5    5    0    0 -0.11248212567E+03 -0.37819092353E+02 -0.29780064645E+02  0.12234935468E+03  0.00000000000E+00 0.  1.
        -13    1    5    5    0    0 -0.57811933127E+03 -0.28110376490E+03 -0.37249557188E+03  0.74296314774E+03  0.00000000000E+00 0. -1.
          4    1    6    6  503    0  0.18248856492E+02  0.28402404950E+02 -0.17852230953E+02  0.38189259226E+02  0.00000000000E+00 0.  1.
         -4    1    6    6    0  503  0.22540067321E+03  0.74927140944E+01 -0.12101559160E+02  0.22584962250E+03  0.00000000000E+00 0. -1.
<mgrwt>
<rscale>  0 0.22249402E+04</rscale>
<asrwt>0</asrwt>
<pdfrwt beam="1">  1        2 0.22537254E+00 0.22249402E+04</pdfrwt>
<pdfrwt beam="2">  1       -2 0.12997176E+00 0.22249402E+04</pdfrwt>
<totfact> 0.52680365E+00</totfact>
</mgrwt>
</event>
<event>
12    3  0.4688899E-008  0.1234599E+04  0.7818608E-02  0.9083100E-01
          2   -1    0    0  501    0  0.00000000000E+00  0.00000000000E+00  0.95006029668E+03  0.95006029668E+03  0.00000000000E+00 0. -1.
         -2   -1    0    0    0  501 -0.00000000000E+00 -0.00000000000E+00 -0.40108892824E+03  0.40108892824E+03  0.00000000000E+00 0.  1.
         23    2    1    2    0    0  0.19995844391E+03  0.59611771422E+02  0.34136250509E+03  0.40972982689E+03  0.88392469034E+02 0.  0.
        254    2    1    2    0    0 -0.19995844391E+03 -0.59611771422E+02  0.20760886336E+03  0.94141939803E+03  0.89422150515E+03 0.  0.
         23    2    4    4    0    0  0.27090487172E+03 -0.13903338081E+03  0.31097154986E+03  0.44453585851E+03  0.90493614047E+02 0.  0.
         23    2    4    4    0    0 -0.47086331563E+03  0.79421609392E+02 -0.10336268650E+03  0.49688353952E+03  0.90495043185E+02 0.  0.
          3    1    3    3  502    0  0.20423210993E+03  0.64331656379E+02  0.34181719238E+03  0.40334638928E+03  0.00000000000E+00 0. -1.
         -3    1    3    3    0  502 -0.42736660181E+01 -0.47198849569E+01 -0.45468729018E+00  0.63834376140E+01  0.00000000000E+00 0.  1.
         13    1    5    5    0    0  0.23887870620E+03 -0.15175766229E+03  0.28188438892E+03  0.39943989918E+03  0.00000000000E+00 0. -1.
        -13    1    5    5    0    0  0.32026165519E+02  0.12724281478E+02  0.29087160941E+02  0.45095959338E+02  0.00000000000E+00 0.  1.
          3    1    6    6  503    0 -0.46427685943E+03  0.78765046801E+02 -0.11385394168E+03  0.48447874549E+03  0.00000000000E+00 0. -1.
         -3    1    6    6    0  503 -0.65864562008E+01  0.65656259076E+00  0.10491255175E+02  0.12404794028E+02  0.00000000000E+00 0.  1.
<mgrwt>
<rscale>  0 0.12345990E+04</rscale>
<asrwt>0</asrwt>
<pdfrwt beam="1">  1        2 0.14616312E+00 0.12345990E+04</pdfrwt>
<pdfrwt beam="2">  1       -2 0.61705989E-01 0.12345990E+04</pdfrwt>
<totfact> 0.65233691E+01</totfact>
</mgrwt>
</event>
<event>
12    3  0.4688899E-008  0.1696783E+04  0.7818608E-02  0.8763201E-01
         -2   -1    0    0    0  501 -0.00000000000E+00  0.00000000000E+00  0.65967927730E+03  0.65967927730E+03  0.00000000000E+00 0.  1.
          2   -1    0    0  501    0  0.00000000000E+00 -0.00000000000E+00 -0.10910886328E+04  0.10910886328E+04  0.00000000000E+00 0. -1.
         23    2    1    2    0    0 -0.69971541700E+02  0.25627496198E+03  0.40674777126E+03  0.49404856727E+03  0.89818509255E+02 0.  0.
        254    2    1    2    0    0  0.69971541700E+02 -0.25627496198E+03 -0.83815712673E+03  0.12567193428E+04  0.89792163616E+03 0.  0.
         23    2    4    4    0    0  0.10943251045E+03  0.29042181701E+03 -0.11137069850E+03  0.34202101417E+03  0.90855024665E+02 0.  0.
         23    2    4    4    0    0 -0.39460968754E+02 -0.54669677899E+03 -0.72678642823E+03  0.91469832863E+03  0.89554362941E+02 0.  0.
          1    1    3    3  502    0 -0.32266674677E+02  0.16861037759E+02  0.36690447551E+02  0.51687733850E+02  0.00000000000E+00 0. -1.
         -1    1    3    3    0  502 -0.37704867023E+02  0.23941392422E+03  0.37005732371E+03  0.44236083342E+03  0.00000000000E+00 0.  1.
         13    1    5    5    0    0  0.16880649006E+02  0.14896161665E+03 -0.24312144472E+02  0.15187363140E+03  0.00000000000E+00 0.  1.
        -13    1    5    5    0    0  0.92551861447E+02  0.14146020036E+03 -0.87058554025E+02  0.19014738277E+03  0.00000000000E+00 0. -1.
          2    1    6    6  503    0 -0.65462107157E+02 -0.42377043804E+03 -0.53907688476E+03  0.68881823387E+03  0.00000000000E+00 0. -1.
         -2    1    6    6    0  503  0.26001138404E+02 -0.12292634095E+03 -0.18770954347E+03  0.22588009476E+03  0.00000000000E+00 0.  1.
<mgrwt>
<rscale>  0 0.16967835E+04</rscale>
<asrwt>0</asrwt>
<pdfrwt beam="1">  1        2 0.16785979E+00 0.16967835E+04</pdfrwt>
<pdfrwt beam="2">  1       -2 0.10148912E+00 0.16967835E+04</pdfrwt>
<totfact> 0.16750045E+01</totfact>
</mgrwt>
</event>
<event>
12    3  0.4688899E-008  0.1353535E+04  0.7818608E-02  0.8988157E-01
          1   -1    0    0  501    0  0.00000000000E+00  0.00000000000E+00  0.90953124847E+03  0.90953124847E+03  0.00000000000E+00 0. -1.
         -1   -1    0    0    0  501 -0.00000000000E+00 -0.00000000000E+00 -0.50357159505E+03  0.50357159505E+03  0.00000000000E+00 0.  1.
         23    2    1    2    0    0 -0.22537432306E+03  0.21384983400E+03  0.28365479060E+03  0.43031090891E+03  0.90454967226E+02 0.  0.
        254    2    1    2    0    0  0.22537432306E+03 -0.21384983400E+03  0.12230486282E+03  0.98279193461E+03  0.92433552905E+03 0.  0.
         23    2    4    4    0    0  0.38601305746E+03 -0.53932763917E+02 -0.29666092438E+03  0.49771468702E+03  0.88302786306E+02 0.  0.
         23    2    4    4    0    0 -0.16063873440E+03 -0.15991707009E+03  0.41896578720E+03  0.48507724759E+03  0.91593302096E+02 0.  0.
          1    1    3    3  502    0 -0.19413753355E+03  0.20153938963E+03  0.28109525656E+03  0.39663843834E+03  0.00000000000E+00 0. -1.
         -1    1    3    3    0  502 -0.31236789515E+02  0.12310444374E+02  0.25595340370E+01  0.33672470571E+02  0.00000000000E+00 0.  1.
         13    1    5    5    0    0  0.29203847433E+03 -0.11834103823E+02 -0.25021197763E+03  0.38474998408E+03  0.00000000000E+00 0.  1.
        -13    1    5    5    0    0  0.93974583123E+02 -0.42098660094E+02 -0.46448946755E+02  0.11296470294E+03  0.00000000000E+00 0. -1.
          4    1    6    6  503    0 -0.32929604027E+02 -0.92040177657E+02  0.20075031347E+03  0.22328556040E+03  0.00000000000E+00 0.  1.
         -4    1    6    6    0  503 -0.12770913037E+03 -0.67876892429E+02  0.21821547374E+03  0.26179168719E+03  0.00000000000E+00 0. -1.
<mgrwt>
<rscale>  0 0.13535348E+04</rscale>
<asrwt>0</asrwt>
<pdfrwt beam="1">  1        1 0.13992788E+00 0.13535348E+04</pdfrwt>
<pdfrwt beam="2">  1       -1 0.77472553E-01 0.13535348E+04</pdfrwt>
<totfact> 0.29214580E+01</totfact>
</mgrwt>
</event>
<event>
12    3  0.4688899E-008  0.2245399E+04  0.7818608E-02  0.8499766E-01
          1   -1    0    0  501    0  0.00000000000E+00  0.00000000000E+00  0.11334808406E+04  0.11334808406E+04  0.00000000000E+00 0. -1.
         -1   -1    0    0    0  501 -0.00000000000E+00 -0.00000000000E+00 -0.11120203765E+04  0.11120203765E+04  0.00000000000E+00 0.  1.
         23    2    1    2    0    0 -0.66783186165E+03 -0.60900365847E+03  0.25279826742E+03  0.94473892449E+03  0.10835044983E+03 0.  0.
        254    2    1    2    0    0  0.66783186165E+03  0.60900365847E+03 -0.23133780327E+03  0.13007622926E+04  0.90641078497E+03 0.  0.
         23    2    4    4    0    0  0.66361604820E+03  0.96989774115E+01 -0.65956078373E+02  0.67293719889E+03  0.89520610987E+02 0.  0.
         23    2    4    4    0    0  0.42158134493E+01  0.59930468105E+03 -0.16538172489E+03  0.62782509368E+03  0.87346204923E+02 0.  0.
          2    1    3    3  502    0 -0.42003432010E+03 -0.35836851530E+03  0.20544255693E+03  0.58912092733E+03  0.00000000000E+00 0. -1.
         -2    1    3    3    0  502 -0.24779754155E+03 -0.25063514317E+03  0.47355710484E+02  0.35561799716E+03  0.00000000000E+00 0.  1.
         13    1    5    5    0    0  0.25428877823E+03  0.44152866826E+02 -0.41763563852E+02  0.26145067154E+03  0.00000000000E+00 0. -1.
        -13    1    5    5    0    0  0.40932726996E+03 -0.34453889415E+02 -0.24192514520E+02  0.41148652735E+03  0.00000000000E+00 0.  1.
          3    1    6    6  503    0 -0.37076085914E+02  0.42090708125E+03 -0.11512027031E+03  0.43793844754E+03  0.00000000000E+00 0. -1.
         -3    1    6    6    0  503  0.41291899364E+02  0.17839759980E+03 -0.50261454588E+02  0.18988664615E+03  0.00000000000E+00 0.  1.
<mgrwt>
<rscale>  0 0.22453987E+04</rscale>
<asrwt>0</asrwt>
<pdfrwt beam="1">  1        1 0.17438167E+00 0.22453987E+04</pdfrwt>
<pdfrwt beam="2">  1       -1 0.17108006E+00 0.22453987E+04</pdfrwt>
<totfact> 0.26257460E+00</totfact>
</mgrwt>
</event>
<event>
12    3  0.4688899E-008  0.1576090E+04  0.7818608E-02  0.8835373E-01
         -2   -1    0    0    0  501 -0.00000000000E+00  0.00000000000E+00  0.11398842412E+04  0.11398842412E+04  0.00000000000E+00 0.  1.
          2   -1    0    0  501    0  0.00000000000E+00 -0.00000000000E+00 -0.54480537842E+03  0.54480537842E+03  0.00000000000E+00 0. -1.
         23    2    1    2    0    0 -0.11362215576E+03  0.36589949544E+03 -0.18294067262E+03  0.43433777528E+03  0.91594641200E+02 0.  0.
        254    2    1    2    0    0  0.11362215576E+03 -0.36589949544E+03  0.77801953545E+03  0.12503518444E+04  0.90070689027E+03 0.  0.
         23    2    4    4    0    0 -0.63310910978E+02 -0.34536749821E+03  0.93080778645E+03  0.99935193821E+03  0.94943039825E+02 0.  0.
         23    2    4    4    0    0  0.17693306674E+03 -0.20531997229E+02 -0.15278825101E+03  0.25099990617E+03  0.89049594263E+02 0.  0.
          1    1    3    3  502    0  0.43432328744E+01  0.11517325945E+03 -0.71788399409E+02  0.13578408469E+03  0.00000000000E+00 0. -1.
         -1    1    3    3    0  502 -0.11796538864E+03  0.25072623599E+03 -0.11115227321E+03  0.29855369060E+03  0.00000000000E+00 0.  1.
         13    1    5    5    0    0 -0.55021576524E+02 -0.29935915467E+03  0.69154075575E+03  0.75556064895E+03  0.00000000000E+00 0. -1.
        -13    1    5    5    0    0 -0.82893344543E+01 -0.46008343545E+02  0.23926703070E+03  0.24379128926E+03  0.00000000000E+00 0.  1.
          1    1    6    6  503    0  0.79405953130E+02  0.37265315764E+01 -0.12250691628E+03  0.14603813532E+03  0.00000000000E+00 0. -1.
         -1    1    6    6    0  503  0.97527113608E+02 -0.24258528806E+02 -0.30281334722E+02  0.10496177086E+03  0.00000000000E+00 0.  1.
<mgrwt>
<rscale>  0 0.15760902E+04</rscale>
<asrwt>0</asrwt>
<pdfrwt beam="1">  1        2 0.83816212E-01 0.15760902E+04</pdfrwt>
<pdfrwt beam="2">  1       -2 0.17536681E+00 0.15760902E+04</pdfrwt>
<totfact> 0.10436073E+01</totfact>
</mgrwt>
</event>
<event>
12    3  0.4688899E-008  0.2608292E+04  0.7818608E-02  0.8365390E-01
         -2   -1    0    0    0  501 -0.00000000000E+00  0.00000000000E+00  0.13814777116E+04  0.13814777116E+04  0.00000000000E+00 0. -1.
          2   -1    0    0  501    0  0.00000000000E+00 -0.00000000000E+00 -0.12311428427E+04  0.12311428427E+04  0.00000000000E+00 0.  1.
         23    2    1    2    0    0 -0.69656621391E+02  0.68943523918E+03 -0.83758862116E+03  0.10908507938E+04  0.90707012619E+02 0.  0.
        254    2    1    2    0    0  0.69656621391E+02 -0.68943523918E+03  0.98792349004E+03  0.15217697605E+04  0.92715553592E+03 0.  0.
         23    2    4    4    0    0 -0.34558777555E+03 -0.21465552939E+02  0.39021904468E+03  0.52970482077E+03  0.91785694678E+02 0.  0.
         23    2    4    4    0    0  0.41524439694E+03 -0.66796968624E+03  0.59770444535E+03  0.99206493970E+03  0.91273378700E+02 0.  0.
          2    1    3    3  502    0 -0.30124478606E+02  0.11232049920E+03 -0.99207637935E+02  0.15285788883E+03  0.00000000000E+00 0. -1.
         -2    1    3    3    0  502 -0.39532142784E+02  0.57711473998E+03 -0.73838098322E+03  0.93799290498E+03  0.00000000000E+00 0.  1.
         13    1    5    5    0    0 -0.16921721377E+03  0.36969816523E+01  0.12588785266E+03  0.21094047634E+03  0.00000000000E+00 0. -1.
        -13    1    5    5    0    0 -0.17637056177E+03 -0.25162534592E+02  0.26433119202E+03  0.31876434444E+03  0.00000000000E+00 0.  1.
          3    1    6    6  503    0  0.34817345012E+03 -0.52284704054E+03  0.51368609232E+03  0.81145990697E+03  0.00000000000E+00 0. -1.
         -3    1    6    6    0  503  0.67070946820E+02 -0.14512264570E+03  0.84018353032E+02  0.18060503273E+03  0.00000000000E+00 0.  1.
<mgrwt>
<rscale>  0 0.26082917E+04</rscale>
<asrwt>0</asrwt>
<pdfrwt beam="1">  1        2 0.18940659E+00 0.26082917E+04</pdfrwt>
<pdfrwt beam="2">  1       -2 0.21253503E+00 0.26082917E+04</pdfrwt>
<totfact> 0.17692740E+00</totfact>
</mgrwt>
</event>
<event>
12    3  0.4688899E-008  0.2191599E+04  0.7818608E-02  0.8521933E-01
          2   -1    0    0  501    0  0.00000000000E+00  0.00000000000E+00  0.74062204448E+03  0.74062204448E+03  0.00000000000E+00 0. -1.
         -2   -1    0    0    0  501 -0.00000000000E+00 -0.00000000000E+00 -0.16213085835E+04  0.16213085835E+04  0.00000000000E+00 0.  1.
         23    2    1    2    0    0 -0.64592465030E+03 -0.46326010019E+03  0.10211443267E+03  0.80639026055E+03  0.89494807936E+02 0.  0.
        254    2    1    2    0    0  0.64592465030E+03  0.46326010019E+03 -0.98280097174E+03  0.15555403675E+04  0.90663085680E+03 0.  0.
         23    2    4    4    0    0  0.12800052606E+03 -0.44046881733E+02 -0.77942136684E+03  0.79683692120E+03  0.95536115860E+02 0.  0.
         23    2    4    4    0    0  0.51792412424E+03  0.50730698193E+03 -0.20337960489E+03  0.75870344628E+03  0.93069239395E+02 0.  0.
          4    1    3    3  502    0 -0.58318949598E+03 -0.38848002878E+03  0.72970742796E+02  0.70452214322E+03  0.00000000000E+00 0. -1.
         -4    1    3    3    0  502 -0.62735154321E+02 -0.74780071419E+02  0.29143689870E+02  0.10186811733E+03  0.00000000000E+00 0.  1.
         13    1    5    5    0    0 -0.67524532050E+01  0.79731416537E+01 -0.17824664923E+03  0.17855261010E+03  0.00000000000E+00 0. -1.
        -13    1    5    5    0    0  0.13475297927E+03 -0.52020023387E+02 -0.60117471762E+03  0.61828431110E+03  0.00000000000E+00 0.  1.
          1    1    6    6  503    0  0.19218878369E+03  0.13063609266E+03 -0.50791831463E+02  0.23786998008E+03  0.00000000000E+00 0. -1.
         -1    1    6    6    0  503  0.32573534055E+03  0.37667088927E+03 -0.15258777343E+03  0.52083346620E+03  0.00000000000E+00 0.  1.
<mgrwt>
<rscale>  0 0.21915993E+04</rscale>
<asrwt>0</asrwt>
<pdfrwt beam="1">  1        2 0.11394185E+00 0.21915993E+04</pdfrwt>
<pdfrwt beam="2">  1       -2 0.24943209E+00 0.21915993E+04</pdfrwt>
<totfact> 0.22580874E+00</totfact>
</mgrwt>
</event>
<event>
12    3  0.4688899E-008  0.1829474E+04  0.7818608E-02  0.8690781E-01
         -2   -1    0    0    0  501 -0.00000000000E+00  0.00000000000E+00  0.44157451941E+03  0.44157451941E+03  0.00000000000E+00 0.  1.
          2   -1    0    0  501    0  0.00000000000E+00 -0.00000000000E+00 -0.18949095617E+04  0.18949095617E+04  0.00000000000E+00 0. -1.
         23    2    1    2    0    0 -0.48060712531E+03 -0.26469740676E+03 -0.22783022165E+02  0.55675092921E+03  0.91676632982E+02 0.  0.
        254    2    1    2    0    0  0.48060712531E+03  0.26469740676E+03 -0.14305520201E+04  0.17797331519E+04  0.90549604285E+03 0.  0.
         23    2    4    4    0    0  0.27039840419E+03  0.22299381187E+03 -0.34626152159E+02  0.36436464149E+03  0.93386746579E+02 0.  0.
         23    2    4    4    0    0  0.21020872112E+03  0.41703594892E+02 -0.13959258680E+04  0.14153685104E+04  0.93445679991E+02 0.  0.
          2    1    3    3  502    0 -0.44869773605E+03 -0.23920765201E+03 -0.44632472696E+02  0.51043316579E+03  0.00000000000E+00 0. -1.
         -2    1    3    3    0  502 -0.31909389262E+02 -0.25489754750E+02  0.21849450531E+02  0.46317763426E+02  0.00000000000E+00 0.  1.
         13    1    5    5    0    0  0.23419018971E+03  0.16977943498E+03 -0.59583425305E+02  0.29533080786E+03  0.00000000000E+00 0.  1.
        -13    1    5    5    0    0  0.36208214477E+02  0.53214376887E+02  0.24957273146E+02  0.69033833632E+02  0.00000000000E+00 0. -1.
          1    1    6    6  503    0  0.31905254666E+01  0.25889156300E+02 -0.16831745360E+03  0.17032672442E+03  0.00000000000E+00 0. -1.
         -1    1    6    6    0  503  0.20701819565E+03  0.15814438591E+02 -0.12276084144E+04  0.12450417860E+04  0.00000000000E+00 0.  1.
<mgrwt>
<rscale>  0 0.18294740E+04</rscale>
<asrwt>0</asrwt>
<pdfrwt beam="1">  1        2 0.29152455E+00 0.18294740E+04</pdfrwt>
<pdfrwt beam="2">  1       -2 0.67934541E-01 0.18294740E+04</pdfrwt>
<totfact> 0.14282981E+01</totfact>
</mgrwt>
</event>
<event>
12    3  0.4688899E-008  0.1454514E+04  0.7818608E-02  0.8915277E-01
         -2   -1    0    0    0  501 -0.00000000000E+00  0.00000000000E+00  0.24704100770E+03  0.24704100770E+03  0.00000000000E+00 0.  1.
          2   -1    0    0  501    0  0.00000000000E+00 -0.00000000000E+00 -0.21409501769E+04  0.21409501769E+04  0.00000000000E+00 0. -1.
         23    2    1    2    0    0 -0.18249844980E+03  0.89025905635E+02  0.62688299152E+02  0.23909147135E+03  0.10956100021E+03 0.  0.
        254    2    1    2    0    0  0.18249844980E+03 -0.89025905635E+02 -0.19565974684E+04  0.21488997133E+04  0.86502313749E+03 0.  0.
         23    2    4    4    0    0  0.24544929915E+03  0.33780219541E+03 -0.73743387655E+03  0.85267398119E+03  0.94278917199E+02 0.  0.
         23    2    4    4    0    0 -0.62950849357E+02 -0.42682810105E+03 -0.12191635918E+04  0.12962257321E+04  0.87728260015E+02 0.  0.
          4    1    3    3  502    0 -0.10652462549E+03  0.18267603296E+02 -0.15414118513E+02  0.10917323947E+03  0.00000000000E+00 0.  1.
         -4    1    3    3    0  502 -0.75973824304E+02  0.70758302339E+02  0.78102417665E+02  0.12991823188E+03  0.00000000000E+00 0. -1.
         13    1    5    5    0    0  0.40614297884E+02  0.12744476357E+03 -0.20865956298E+03  0.24785177461E+03  0.00000000000E+00 0. -1.
        -13    1    5    5    0    0  0.20483500127E+03  0.21035743184E+03 -0.52877431357E+03  0.60482220657E+03  0.00000000000E+00 0.  1.
          4    1    6    6  503    0  0.32184141251E+01 -0.19219701774E+03 -0.62828461916E+03  0.65703243032E+03  0.00000000000E+00 0. -1.
         -4    1    6    6    0  503 -0.66169263482E+02 -0.23463108330E+03 -0.59087897268E+03  0.63919330178E+03  0.00000000000E+00 0.  1.
<mgrwt>
<rscale>  0 0.14545136E+04</rscale>
<asrwt>0</asrwt>
<pdfrwt beam="1">  1        2 0.32937694E+00 0.14545136E+04</pdfrwt>
<pdfrwt beam="2">  1       -2 0.38006310E-01 0.14545136E+04</pdfrwt>
<totfact> 0.35346391E+01</totfact>
</mgrwt>
</event>
<event>
12    3  0.4688899E-008  0.1433967E+04  0.7818608E-02  0.8929592E-01
         -1   -1    0    0    0  501 -0.00000000000E+00  0.00000000000E+00  0.27236332983E+03  0.27236332983E+03  0.00000000000E+00 0.  1.
          1   -1    0    0  501    0  0.00000000000E+00 -0.00000000000E+00 -0.18874245547E+04  0.18874245547E+04  0.00000000000E+00 0. -1.
         23    2    1    2    0    0 -0.41155135282E+03 -0.75147801128E+02 -0.65382841200E+03  0.78159904104E+03  0.91562877764E+02 0.  0.
        254    2    1    2    0    0  0.41155135282E+03  0.75147801128E+02 -0.96123281283E+03  0.13781888435E+04  0.89465873927E+03 0.  0.
         23    2    4    4    0    0  0.44649346600E+03  0.19093593860E+02 -0.48451762323E+02  0.45857274776E+03  0.90666483389E+02 0.  0.
         23    2    4    4    0    0 -0.34942113180E+02  0.56054207268E+02 -0.91278105051E+03  0.91961609570E+03  0.90340975617E+02 0.  0.
          2    1    3    3  502    0 -0.39197466112E+03 -0.53207324778E+02 -0.57923131163E+03  0.70141575883E+03  0.00000000000E+00 0. -1.
         -2    1    3    3    0  502 -0.19576691699E+02 -0.21940476351E+02 -0.74597100374E+02  0.80183282201E+02  0.00000000000E+00 0.  1.
         13    1    5    5    0    0  0.25454371991E+03 -0.30386305580E+02 -0.93057415871E+01  0.25651984278E+03  0.00000000000E+00 0. -1.
        -13    1    5    5    0    0  0.19194974609E+03  0.49479899441E+02 -0.39146020736E+02  0.20205290498E+03  0.00000000000E+00 0.  1.
          3    1    6    6  503    0 -0.18904738821E+01 -0.12735121547E+02 -0.21402696230E+02  0.24976641452E+02  0.00000000000E+00 0. -1.
         -3    1    6    6    0  503 -0.33051639298E+02  0.68789328815E+02 -0.89137835428E+03  0.89463945425E+03  0.00000000000E+00 0.  1.
<mgrwt>
<rscale>  0 0.14339669E+04</rscale>
<asrwt>0</asrwt>
<pdfrwt beam="1">  1        1 0.29037301E+00 0.14339669E+04</pdfrwt>
<pdfrwt beam="2">  1       -1 0.41902050E-01 0.14339669E+04</pdfrwt>
<totfact> 0.19331484E+01</totfact>
</mgrwt>
</event>
<event>
12    3  0.4688899E-008  0.2254127E+04  0.7818608E-02  0.8496231E-01
          2   -1    0    0  501    0  0.00000000000E+00  0.00000000000E+00  0.20798570319E+04  0.20798570319E+04  0.00000000000E+00 0. -1.
         -2   -1    0    0    0  501 -0.00000000000E+00 -0.00000000000E+00 -0.61074965719E+03  0.61074965719E+03  0.00000000000E+00 0.  1.
         23    2    1    2    0    0 -0.14660741212E+03 -0.48301459835E+02  0.17217308738E+04  0.17309968550E+04  0.90366730311E+02 0.  0.
        254    2    1    2    0    0  0.14660741212E+03  0.48301459835E+02 -0.25262349905E+03  0.95960983413E+03  0.91280098443E+03 0.  0.
         23    2    4    4    0    0  0.45576798696E+03 -0.21141154323E+03 -0.11845917803E+03  0.52438173346E+03  0.92327281883E+02 0.  0.
         23    2    4    4    0    0 -0.30916057484E+03  0.25971300307E+03 -0.13416432102E+03  0.43522810067E+03  0.91609658775E+02 0.  0.
          2    1    3    3  502    0 -0.78106609391E+02 -0.65686481369E+02  0.12280190889E+04  0.12322525062E+04  0.00000000000E+00 0. -1.
         -2    1    3    3    0  502 -0.68500802725E+02  0.17385021534E+02  0.49371178488E+03  0.49874434882E+03  0.00000000000E+00 0.  1.
         13    1    5    5    0    0  0.31535244145E+03 -0.10845942016E+03 -0.49622858655E+02  0.33715432112E+03  0.00000000000E+00 0. -1.
        -13    1    5    5    0    0  0.14041554550E+03 -0.10295212307E+03 -0.68836319377E+02  0.18722741234E+03  0.00000000000E+00 0.  1.
          3    1    6    6  503    0 -0.21354973727E+03  0.13169552596E+03 -0.10871186112E+03  0.27343275333E+03  0.00000000000E+00 0. -1.
         -3    1    6    6    0  503 -0.95610837566E+02  0.12801747710E+03 -0.25452459897E+02  0.16179534733E+03  0.00000000000E+00 0.  1.
<mgrwt>
<rscale>  0 0.22541269E+04</rscale>
<asrwt>0</asrwt>
<pdfrwt beam="1">  1        2 0.31997800E+00 0.22541269E+04</pdfrwt>
<pdfrwt beam="2">  1       -2 0.93961487E-01 0.22541269E+04</pdfrwt>
<totfact> 0.52468753E+00</totfact>
</mgrwt>
</event>
<event>
12    3  0.4688899E-008  0.2335437E+04  0.7818608E-02  0.8464078E-01
          2   -1    0    0  501    0  0.00000000000E+00  0.00000000000E+00  0.23630652271E+04  0.23630652271E+04  0.00000000000E+00 0. -1.
         -2   -1    0    0    0  501 -0.00000000000E+00 -0.00000000000E+00 -0.57703307005E+03  0.57703307005E+03  0.00000000000E+00 0.  1.
         23    2    1    2    0    0  0.81097481169E+03  0.43018892297E+02  0.42492182005E+02  0.81833800784E+03  0.91327647845E+02 0.  0.
        254    2    1    2    0    0 -0.81097481169E+03 -0.43018892297E+02  0.17435399751E+04  0.21217602894E+04  0.89577023306E+03 0.  0.
         23    2    4    4    0    0  0.34849660952E+02 -0.14047137613E+03 -0.80298765432E+01  0.17208611120E+03  0.92749363187E+02 0.  0.
         23    2    4    4    0    0 -0.84582447264E+03  0.97452483834E+02  0.17515698516E+04  0.19496741781E+04  0.91194466096E+02 0.  0.
          4    1    3    3  502    0  0.50177436240E+03  0.43264089310E+02  0.67446148070E+02  0.50813214332E+03  0.00000000000E+00 0. -1.
         -4    1    3    3    0  502  0.30920044929E+03 -0.24519701324E+00 -0.24953966065E+02  0.31020586452E+03  0.00000000000E+00 0.  1.
         13    1    5    5    0    0 -0.25425918588E+02 -0.21712564597E+02  0.15484249542E+02  0.36846638670E+02  0.00000000000E+00 0.  1.
        -13    1    5    5    0    0  0.60275579539E+02 -0.11875881153E+03 -0.23514126086E+02  0.13523947253E+03  0.00000000000E+00 0. -1.
          1    1    6    6  503    0 -0.57810547074E+03  0.64708671969E+02  0.10964915305E+04  0.12412440630E+04  0.00000000000E+00 0. -1.
         -1    1    6    6    0  503 -0.26771900190E+03  0.32743811866E+02  0.65507832113E+03  0.70843011512E+03  0.00000000000E+00 0.  1.
<mgrwt>
<rscale>  0 0.23354372E+04</rscale>
<asrwt>0</asrwt>
<pdfrwt beam="1">  1        2 0.36354849E+00 0.23354372E+04</pdfrwt>
<pdfrwt beam="2">  1       -2 0.88774320E-01 0.23354372E+04</pdfrwt>
<totfact> 0.41150189E+00</totfact>
</mgrwt>
</event>
<event>
12    3  0.4688899E-008  0.1386635E+04  0.7818608E-02  0.8963550E-01
         -2   -1    0    0    0  501 -0.00000000000E+00  0.00000000000E+00  0.84640044633E+03  0.84640044633E+03  0.00000000000E+00 0.  1.
          2   -1    0    0  501    0  0.00000000000E+00 -0.00000000000E+00 -0.56792128168E+03  0.56792128168E+03  0.00000000000E+00 0. -1.
         23    2    1    2    0    0 -0.96327548436E+02  0.40561179453E+02  0.47175147179E+03  0.49141263999E+03  0.89513829902E+02 0.  0.
        254    2    1    2    0    0  0.96327548436E+02 -0.40561179453E+02 -0.19327230714E+03  0.92290908802E+03  0.89637201774E+03 0.  0.
         23    2    4    4    0    0 -0.27294506073E+02  0.97661680317E+02  0.33150348381E+03  0.35865680200E+03  0.91963840632E+02 0.  0.
         23    2    4    4    0    0  0.12362205451E+03 -0.13822285977E+03 -0.52477579095E+03  0.56425228602E+03  0.92752575116E+02 0.  0.
          3    1    3    3  502    0 -0.21049389128E+02  0.41651521048E+02  0.81066279104E+02  0.93539657878E+02  0.00000000000E+00 0. -1.
         -3    1    3    3    0  502 -0.75278159308E+02 -0.10903415950E+01  0.39068519269E+03  0.39787298212E+03  0.00000000000E+00 0.  1.
         13    1    5    5    0    0  0.23619497821E+01  0.11538508624E+02 -0.28504757972E+01  0.12117805094E+02  0.00000000000E+00 0. -1.
        -13    1    5    5    0    0 -0.29656455855E+02  0.86123171693E+02  0.33435395960E+03  0.34653899691E+03  0.00000000000E+00 0.  1.
          1    1    6    6  503    0  0.15850701979E+02 -0.16899742690E+02 -0.19851206010E+03  0.19985966091E+03  0.00000000000E+00 0. -1.
         -1    1    6    6    0  503  0.10777135253E+03 -0.12132311708E+03 -0.32626373085E+03  0.36439262510E+03  0.00000000000E+00 0.  1.
<mgrwt>
<rscale>  0 0.13866345E+04</rscale>
<asrwt>0</asrwt>
<pdfrwt beam="1">  1        2 0.87372505E-01 0.13866345E+04</pdfrwt>
<pdfrwt beam="2">  1       -2 0.13021545E+00 0.13866345E+04</pdfrwt>
<totfact> 0.22315993E+01</totfact>
</mgrwt>
</event>
<event>
12    3  0.4688899E-008  0.1407223E+04  0.7818608E-02  0.8948607E-01
          2   -1    0    0  501    0  0.00000000000E+00  0.00000000000E+00  0.14943790247E+04  0.14943790247E+04  0.00000000000E+00 0. -1.
         -2   -1    0    0    0  501 -0.00000000000E+00 -0.00000000000E+00 -0.33128747521E+03  0.33128747521E+03  0.00000000000E+00 0.  1.
         23    2    1    2    0    0 -0.58867446472E+02 -0.26727730709E+03  0.73718150591E+03  0.79149246120E+03  0.90117747057E+02 0.  0.
        254    2    1    2    0    0  0.58867446472E+02  0.26727730709E+03  0.42591004362E+03  0.10341740388E+04  0.90178381114E+03 0.  0.
         23    2    4    4    0    0 -0.38921953599E+03  0.16515576744E+03  0.35663563017E+03  0.56041584354E+03  0.90048155276E+02 0.  0.
         23    2    4    4    0    0  0.44808698246E+03  0.10212153965E+03  0.69274413454E+02  0.47375819521E+03  0.91853853804E+02 0.  0.
          2    1    3    3  502    0  0.47683476277E+00  0.69013833427E+01  0.28027837377E+02  0.28868947529E+02  0.00000000000E+00 0.  1.
         -2    1    3    3    0  502 -0.59344281235E+02 -0.27417869044E+03  0.70915366853E+03  0.76262351367E+03  0.00000000000E+00 0. -1.
         13    1    5    5    0    0 -0.23823307853E+03  0.83273658121E+02  0.26419106388E+03  0.36535793419E+03  0.00000000000E+00 0.  1.
        -13    1    5    5    0    0 -0.15098645746E+03  0.81882109323E+02  0.92444566291E+02  0.19505790935E+03  0.00000000000E+00 0. -1.
          3    1    6    6  503    0  0.41796958972E+03  0.10864987427E+03  0.83430570021E+02  0.43984546504E+03  0.00000000000E+00 0. -1.
         -3    1    6    6    0  503  0.30117392749E+02 -0.65283346173E+01 -0.14156156567E+02  0.33912730171E+02  0.00000000000E+00 0.  1.
<mgrwt>
<rscale>  0 0.14072229E+04</rscale>
<asrwt>0</asrwt>
<pdfrwt beam="1">  1        2 0.22990446E+00 0.14072229E+04</pdfrwt>
<pdfrwt beam="2">  1       -2 0.50967305E-01 0.14072229E+04</pdfrwt>
<totfact> 0.45252822E+01</totfact>
</mgrwt>
</event>
<event>
12    3  0.4688899E-008  0.1571401E+04  0.7818608E-02  0.8838313E-01
          2   -1    0    0  501    0  0.00000000000E+00  0.00000000000E+00  0.20282793493E+04  0.20282793493E+04  0.00000000000E+00 0. -1.
         -2   -1    0    0    0  501 -0.00000000000E+00 -0.00000000000E+00 -0.30435905570E+03  0.30435905570E+03  0.00000000000E+00 0.  1.
         23    2    1    2    0    0  0.68532600629E+02  0.40191625900E+03  0.10567240874E+04  0.11363486520E+04  0.91591841828E+02 0.  0.
        254    2    1    2    0    0 -0.68532600629E+02 -0.40191625900E+03  0.66719620623E+03  0.11962897530E+04  0.90538665714E+03 0.  0.
         23    2    4    4    0    0  0.58956655812E+02 -0.57581700931E+03  0.11607725311E+03  0.59752692412E+03  0.92322158170E+02 0.  0.
         23    2    4    4    0    0 -0.12748925644E+03  0.17390075031E+03  0.55111895312E+03  0.59876282888E+03  0.91048576537E+02 0.  0.
          1    1    3    3  502    0  0.84190133536E+02  0.37547155046E+03  0.10054861290E+04  0.10766007707E+04  0.00000000000E+00 0. -1.
         -1    1    3    3    0  502 -0.15657532907E+02  0.26444708541E+02  0.51237958369E+02  0.59747881337E+02  0.00000000000E+00 0.  1.
         13    1    5    5    0    0  0.47809431142E+02 -0.56555060423E+03  0.10164119083E+03  0.57659705109E+03  0.00000000000E+00 0.  1.
        -13    1    5    5    0    0  0.11147224670E+02 -0.10266405082E+02  0.14436062283E+02  0.20929873038E+02  0.00000000000E+00 0. -1.
          1    1    6    6  503    0  0.80707905467E+01  0.48627074798E+02  0.10660731625E+03  0.11745147910E+03  0.00000000000E+00 0. -1.
         -1    1    6    6    0  503 -0.13556004699E+03  0.12527367551E+03  0.44451163687E+03  0.48131134978E+03  0.00000000000E+00 0.  1.
<mgrwt>
<rscale>  0 0.15714009E+04</rscale>
<asrwt>0</asrwt>
<pdfrwt beam="1">  1        2 0.31204297E+00 0.15714009E+04</pdfrwt>
<pdfrwt beam="2">  1       -2 0.46824471E-01 0.15714009E+04</pdfrwt>
<totfact> 0.26780754E+01</totfact>
</mgrwt>
</event>
<event>
12    3  0.4688899E-008  0.1380505E+04  0.7818608E-02  0.8968052E-01
         -1   -1    0    0    0  501 -0.00000000000E+00  0.00000000000E+00  0.17728629263E+04  0.17728629263E+04  0.00000000000E+00 0.  1.
          1   -1    0    0  501    0  0.00000000000E+00 -0.00000000000E+00 -0.26874542005E+03  0.26874542005E+03  0.00000000000E+00 0. -1.
         23    2    1    2    0    0  0.72137575621E+02 -0.32786868586E+03  0.98990449264E+03  0.10490532386E+04  0.88882438373E+02 0.  0.
        254    2    1    2    0    0 -0.72137575621E+02  0.32786868586E+03  0.51421301356E+03  0.99255510773E+03  0.77977491212E+03 0.  0.
         23    2    4    4    0    0 -0.38863526732E+03  0.32072153887E+03  0.24783535322E+03  0.56835732850E+03  0.87795296274E+02 0.  0.
         23    2    4    4    0    0  0.31649769170E+03  0.71471469814E+01  0.26637766034E+03  0.42419777923E+03  0.93620656957E+02 0.  0.
          2    1    3    3  502    0 -0.12281017984E+02 -0.33168503789E+02  0.57089798000E+02  0.67158157226E+02  0.00000000000E+00 0. -1.
         -2    1    3    3    0  502  0.84418593606E+02 -0.29470018207E+03  0.93281469464E+03  0.98189508136E+03  0.00000000000E+00 0.  1.
         13    1    5    5    0    0 -0.21915431726E+03  0.18119509440E+03  0.18777735006E+03  0.34076474319E+03  0.00000000000E+00 0. -1.
        -13    1    5    5    0    0 -0.16948095007E+03  0.13952644447E+03  0.60058003158E+02  0.22759258531E+03  0.00000000000E+00 0.  1.
          1    1    6    6  503    0  0.38128026248E+02  0.22407070177E+02  0.71424844992E+02  0.84007926183E+02  0.00000000000E+00 0. -1.
         -1    1    6    6    0  503  0.27836966546E+03 -0.15259923196E+02  0.19495281535E+03  0.34018985304E+03  0.00000000000E+00 0.  1.
<mgrwt>
<rscale>  0 0.13805054E+04</rscale>
<asrwt>0</asrwt>
<pdfrwt beam="1">  1        1 0.41345450E-01 0.13805054E+04</pdfrwt>
<pdfrwt beam="2">  1       -1 0.27274813E+00 0.13805054E+04</pdfrwt>
<totfact> 0.49118841E+00</totfact>
</mgrwt>
</event>
<event>
12    3  0.4688899E-008  0.1312706E+04  0.7818608E-02  0.9019550E-01
         -1   -1    0    0    0  501 -0.00000000000E+00  0.00000000000E+00  0.36466647511E+03  0.36466647511E+03  0.00000000000E+00 0.  1.
          1   -1    0    0  501    0  0.00000000000E+00 -0.00000000000E+00 -0.11813508320E+04  0.11813508320E+04  0.00000000000E+00 0. -1.
         23    2    1    2    0    0 -0.34980880046E+02 -0.31354917392E+03 -0.10464470210E+03  0.34537282321E+03  0.93782337896E+02 0.  0.
        254    2    1    2    0    0  0.34980880046E+02  0.31354917392E+03 -0.71203965476E+03  0.12006444839E+04  0.91378879413E+03 0.  0.
         23    2    4    4    0    0  0.43900048315E+03  0.19836871244E+01 -0.32565023051E+03  0.55430653837E+03  0.92099438795E+02 0.  0.
         23    2    4    4    0    0 -0.40401960310E+03  0.31156548679E+03 -0.38638942425E+03  0.64633794551E+03  0.90283223121E+02 0.  0.
          3    1    3    3  502    0 -0.17581670771E+02 -0.37840355313E+02 -0.47578843946E+02  0.63283125938E+02  0.00000000000E+00 0. -1.
         -3    1    3    3    0  502 -0.17399209275E+02 -0.27570881861E+03 -0.57065858153E+02  0.28208969727E+03  0.00000000000E+00 0.  1.
         13    1    5    5    0    0  0.24156399199E+03 -0.15738801840E+02 -0.12577376036E+03  0.27280012996E+03  0.00000000000E+00 0. -1.
        -13    1    5    5    0    0  0.19743649116E+03  0.17722488965E+02 -0.19987647015E+03  0.28150640841E+03  0.00000000000E+00 0.  1.
          2    1    6    6  503    0 -0.20909650129E+03  0.12399545783E+03 -0.22557998138E+03  0.33163616874E+03  0.00000000000E+00 0. -1.
         -2    1    6    6    0  503 -0.19492310181E+03  0.18757002897E+03 -0.16080944287E+03  0.31470177677E+03  0.00000000000E+00 0.  1.
<mgrwt>
<rscale>  0 0.13127057E+04</rscale>
<asrwt>0</asrwt>
<pdfrwt beam="1">  1        1 0.18174628E+00 0.13127057E+04</pdfrwt>
<pdfrwt beam="2">  1       -1 0.56102535E-01 0.13127057E+04</pdfrwt>
<totfact> 0.34791728E+01</totfact>
</mgrwt>
</event>
<event>
12    3  0.4688899E-008  0.1398512E+04  0.7818608E-02  0.8954896E-01
         -1   -1    0    0    0  501 -0.00000000000E+00  0.00000000000E+00  0.50274297430E+03  0.50274297430E+03  0.00000000000E+00 0.  1.
          1   -1    0    0  501    0  0.00000000000E+00 -0.00000000000E+00 -0.97258243387E+03  0.97258243387E+03  0.00000000000E+00 0. -1.
         23    2    1    2    0    0  0.12044452064E+03  0.32714054323E+03  0.13029401339E+03  0.38311859919E+03  0.90969849630E+02 0.  0.
        254    2    1    2    0    0 -0.12044452064E+03 -0.32714054323E+03 -0.60013347296E+03  0.10922068090E+04  0.84334317489E+03 0.  0.
         23    2    4    4    0    0  0.19641024845E+03 -0.21899291303E+03  0.88920208770E+02  0.32032710781E+03  0.90375720265E+02 0.  0.
         23    2    4    4    0    0 -0.31685476909E+03 -0.10814763021E+03 -0.68905368173E+03  0.77187970117E+03  0.94395138446E+02 0.  0.
          2    1    3    3  502    0  0.42788836747E+02  0.11995501875E+03  0.20411003869E+01  0.12737447611E+03  0.00000000000E+00 0. -1.
         -2    1    3    3    0  502  0.77655683893E+02  0.20718552448E+03  0.12825291301E+03  0.25574412308E+03  0.00000000000E+00 0.  1.
         13    1    5    5    0    0  0.93808851313E+02 -0.90072552028E+02  0.85287434353E+02  0.15552206169E+03  0.00000000000E+00 0. -1.
        -13    1    5    5    0    0  0.10260139714E+03 -0.12892036100E+03  0.36327744171E+01  0.16480504612E+03  0.00000000000E+00 0.  1.
          4    1    6    6  503    0 -0.19013253902E+03 -0.86073163308E+02 -0.51309349104E+03  0.55391687317E+03  0.00000000000E+00 0. -1.
         -4    1    6    6    0  503 -0.12672223007E+03 -0.22074466897E+02 -0.17596019069E+03  0.21796282800E+03  0.00000000000E+00 0.  1.
<mgrwt>
<rscale>  0 0.13985120E+04</rscale>
<asrwt>0</asrwt>
<pdfrwt beam="1">  1        1 0.14962807E+00 0.13985120E+04</pdfrwt>
<pdfrwt beam="2">  1       -1 0.77345073E-01 0.13985120E+04</pdfrwt>
<totfact> 0.25993233E+01</totfact>
</mgrwt>
</event>
<event>
12    3  0.4688899E-008  0.1410752E+04  0.7818608E-02  0.8946072E-01
         -2   -1    0    0    0  501 -0.00000000000E+00  0.00000000000E+00  0.55899906740E+03  0.55899906740E+03  0.00000000000E+00 0.  1.
          2   -1    0    0  501    0  0.00000000000E+00 -0.00000000000E+00 -0.89008240298E+03  0.89008240298E+03  0.00000000000E+00 0. -1.
         23    2    1    2    0    0 -0.24545038232E+03  0.24858221617E+03  0.12359858904E+03  0.37979098943E+03  0.83220046011E+02 0.  0.
        254    2    1    2    0    0  0.24545038232E+03 -0.24858221617E+03 -0.45468192462E+03  0.10692904810E+04  0.90255607676E+03 0.  0.
         23    2    4    4    0    0 -0.21658972851E+03 -0.14383653666E+03  0.13515653747E+03  0.30716553778E+03  0.92104930377E+02 0.  0.
         23    2    4    4    0    0  0.46204011084E+03 -0.10474567951E+03 -0.58983846209E+03  0.76212494317E+03  0.92045077236E+02 0.  0.
          3    1    3    3  502    0 -0.25072601892E+03  0.24500896703E+03  0.11470377359E+03  0.36884940852E+03  0.00000000000E+00 0. -1.
         -3    1    3    3    0  502  0.52756365940E+01  0.35732491342E+01  0.88948154486E+01  0.10941580905E+02  0.00000000000E+00 0.  1.
         13    1    5    5    0    0 -0.43542647631E+02  0.94842679197E+01  0.24420961598E+02  0.50816305120E+02  0.00000000000E+00 0.  1.
        -13    1    5    5    0    0 -0.17304708088E+03 -0.15332080458E+03  0.11073557588E+03  0.25634923266E+03  0.00000000000E+00 0. -1.
          4    1    6    6  503    0  0.82657691404E+02 -0.96320558549E+01 -0.16412363922E+03  0.18401532381E+03  0.00000000000E+00 0.  1.
         -4    1    6    6    0  503  0.37938241943E+03 -0.95113623651E+02 -0.42571482288E+03  0.57810961936E+03  0.00000000000E+00 0. -1.
<mgrwt>
<rscale>  0 0.14107519E+04</rscale>
<asrwt>0</asrwt>
<pdfrwt beam="1">  1        2 0.13693575E+00 0.14107519E+04</pdfrwt>
<pdfrwt beam="2">  1       -2 0.85999857E-01 0.14107519E+04</pdfrwt>
<totfact> 0.33989071E+01</totfact>
</mgrwt>
</event>
<event>
12    3  0.4688899E-008  0.3295290E+04  0.7818608E-02  0.8164095E-01
          2   -1    0    0  501    0  0.00000000000E+00  0.00000000000E+00  0.26287054522E+04  0.26287054522E+04  0.00000000000E+00 0.  1.
         -2   -1    0    0    0  501 -0.00000000000E+00 -0.00000000000E+00 -0.10327265059E+04  0.10327265059E+04  0.00000000000E+00 0. -1.
         23    2    1    2    0    0 -0.14794032028E+04 -0.88225590678E+02  0.37678982412E+03  0.15320013958E+04  0.92952213156E+02 0.  0.
        254    2    1    2    0    0  0.14794032028E+04  0.88225590678E+02  0.12191891222E+04  0.21294305623E+04  0.92284062146E+03 0.  0.
         23    2    4    4    0    0  0.99189875065E+03  0.48600524014E+03  0.82483629540E+03  0.13813773044E+04  0.88227648381E+02 0.  0.
         23    2    4    4    0    0  0.48750445216E+03 -0.39777964946E+03  0.39435282681E+03  0.74805325790E+03  0.90444923728E+02 0.  0.
          2    1    3    3  502    0 -0.22440825962E+03  0.18324298203E+02  0.46544859142E+02  0.22991579067E+03  0.00000000000E+00 0. -1.
         -2    1    3    3    0  502 -0.12549949432E+04 -0.10654988888E+03  0.33024496498E+03  0.13020856052E+04  0.00000000000E+00 0.  1.
         13    1    5    5    0    0  0.41548240104E+03  0.20986908811E+03  0.29412747199E+03  0.55061931449E+03  0.00000000000E+00 0. -1.
        -13    1    5    5    0    0  0.57641634962E+03  0.27613615203E+03  0.53070882341E+03  0.83075798992E+03  0.00000000000E+00 0.  1.
          1    1    6    6  503    0  0.26408323522E+03 -0.20533717586E+03  0.15704929209E+03  0.36955079632E+03  0.00000000000E+00 0. -1.
         -1    1    6    6    0  503  0.22342121694E+03 -0.19244247360E+03  0.23730353473E+03  0.37850246158E+03  0.00000000000E+00 0.  1.
<mgrwt>
<rscale>  0 0.32952898E+04</rscale>
<asrwt>0</asrwt>
<pdfrwt beam="1">  1        2 0.40441622E+00 0.32952898E+04</pdfrwt>
<pdfrwt beam="2">  1       -2 0.15888100E+00 0.32952898E+04</pdfrwt>
<totfact> 0.62773970E-01</totfact>
</mgrwt>
</event>
<event>
12    3  0.4688899E-008  0.1553815E+04  0.7818608E-02  0.8849434E-01
         -2   -1    0    0    0  501 -0.00000000000E+00  0.00000000000E+00  0.63543519739E+03  0.63543519739E+03  0.00000000000E+00 0.  1.
          2   -1    0    0  501    0  0.00000000000E+00 -0.00000000000E+00 -0.94987729588E+03  0.94987729588E+03  0.00000000000E+00 0. -1.
         23    2    1    2    0    0  0.29488463060E+03  0.17452100653E+02  0.32138713321E+03  0.44609872620E+03  0.91939452604E+02 0.  0.
        254    2    1    2    0    0 -0.29488463060E+03 -0.17452100653E+02 -0.63582923170E+03  0.11392137671E+04  0.89792409144E+03 0.  0.
         23    2    4    4    0    0  0.30000290064E+03  0.10245678882E+03 -0.19176842942E+03  0.38171354321E+03  0.91820284133E+02 0.  0.
         23    2    4    4    0    0 -0.59488753124E+03 -0.11990888947E+03 -0.44406080228E+03  0.75750022385E+03  0.91363430368E+02 0.  0.
          2    1    3    3  502    0  0.93174106578E+02  0.48255170199E+02  0.98534312109E+02  0.14394091236E+03  0.00000000000E+00 0. -1.
         -2    1    3    3    0  502  0.20171052402E+03 -0.30803069546E+02  0.22285282110E+03  0.30215781385E+03  0.00000000000E+00 0.  1.
         13    1    5    5    0    0  0.13597717965E+03  0.88213678025E+02 -0.12214223206E+03  0.20295361842E+03  0.00000000000E+00 0. -1.
        -13    1    5    5    0    0  0.16402572100E+03  0.14243110792E+02 -0.69626197357E+02  0.17875992479E+03  0.00000000000E+00 0.  1.
          2    1    6    6  503    0 -0.33018359509E+02  0.11252219022E+02 -0.12778575811E+02  0.37149919210E+02  0.00000000000E+00 0. -1.
         -2    1    6    6    0  503 -0.56186917174E+03 -0.13116110849E+03 -0.43128222647E+03  0.72035030464E+03  0.00000000000E+00 0.  1.
<mgrwt>
<rscale>  0 0.15538153E+04</rscale>
<asrwt>0</asrwt>
<pdfrwt beam="1">  1        2 0.14613497E+00 0.15538153E+04</pdfrwt>
<pdfrwt beam="2">  1       -2 0.97759261E-01 0.15538153E+04</pdfrwt>
<totfact> 0.22776447E+01</totfact>
</mgrwt>
</event>
<event>
12    3  0.4688899E-008  0.1818275E+04  0.7818608E-02  0.8696641E-01
         -2   -1    0    0    0  501 -0.00000000000E+00  0.00000000000E+00  0.29637435852E+03  0.29637435852E+03  0.00000000000E+00 0.  1.
          2   -1    0    0  501    0  0.00000000000E+00 -0.00000000000E+00 -0.27888086215E+04  0.27888086215E+04  0.00000000000E+00 0. -1.
         23    2    1    2    0    0 -0.37145322273E+03  0.36220494931E+03 -0.20420873374E+03  0.56480354105E+03  0.90177109456E+02 0.  0.
        254    2    1    2    0    0  0.37145322273E+03 -0.36220494931E+03 -0.22882255292E+04  0.25203794390E+04  0.92041649362E+03 0.  0.
         23    2    4    4    0    0  0.14904492581E+03 -0.52204063111E+03 -0.62664850317E+03  0.83391255244E+03  0.89336376389E+02 0.  0.
         23    2    4    4    0    0  0.22240829692E+03  0.15983568180E+03 -0.16615770261E+04  0.16864668865E+04  0.91211019547E+02 0.  0.
          3    1    3    3  502    0 -0.34724629465E+02  0.79519669684E+02 -0.28408211230E+02  0.91302816077E+02  0.00000000000E+00 0. -1.
         -3    1    3    3    0  502 -0.33672859326E+03  0.28268527962E+03 -0.17580052251E+03  0.47350072497E+03  0.00000000000E+00 0.  1.
         13    1    5    5    0    0 -0.10858894556E+02 -0.59118988721E+02 -0.59739940591E+02  0.84745683785E+02  0.00000000000E+00 0. -1.
        -13    1    5    5    0    0  0.15990382036E+03 -0.46292164239E+03 -0.56690856258E+03  0.74916686865E+03  0.00000000000E+00 0.  1.
          4    1    6    6  503    0  0.95880484086E+02  0.36978825713E+02 -0.83396214221E+03  0.84026981109E+03  0.00000000000E+00 0. -1.
         -4    1    6    6    0  503  0.12652781283E+03  0.12285685609E+03 -0.82761488385E+03  0.84619707543E+03  0.00000000000E+00 0.  1.
<mgrwt>
<rscale>  0 0.18182754E+04</rscale>
<asrwt>0</asrwt>
<pdfrwt beam="1">  1        2 0.42904746E+00 0.18182754E+04</pdfrwt>
<pdfrwt beam="2">  1       -2 0.45596057E-01 0.18182754E+04</pdfrwt>
<totfact> 0.10123611E+01</totfact>
</mgrwt>
</event>
<event>
12    3  0.4688899E-008  0.1288857E+04  0.7818608E-02  0.9038448E-01
          1   -1    0    0  501    0  0.00000000000E+00  0.00000000000E+00  0.17150731893E+04  0.17150731893E+04  0.00000000000E+00 0. -1.
         -1   -1    0    0    0  501 -0.00000000000E+00 -0.00000000000E+00 -0.24214033854E+03  0.24214033854E+03  0.00000000000E+00 0.  1.
         23    2    1    2    0    0 -0.17547646560E+03 -0.24531621596E+03  0.39450113307E+03  0.50463986579E+03  0.89767557355E+02 0.  0.
        254    2    1    2    0    0  0.17547646560E+03  0.24531621596E+03  0.10784317177E+04  0.14525736620E+04  0.92519362199E+03 0.  0.
         23    2    4    4    0    0  0.19099454903E+03  0.25386032455E+03  0.12306919270E+04  0.12745229519E+04  0.94245177865E+02 0.  0.
         23    2    4    4    0    0 -0.15518083436E+02 -0.85441085906E+01 -0.15226020937E+03  0.17805071012E+03  0.90581848680E+02 0.  0.
          2    1    3    3  502    0 -0.15890243160E+02 -0.68119332592E+02  0.13607213523E+03  0.15299793883E+03  0.00000000000E+00 0. -1.
         -2    1    3    3    0  502 -0.15958622244E+03 -0.17719688337E+03  0.25842899784E+03  0.35164192696E+03  0.00000000000E+00 0.  1.
         13    1    5    5    0    0  0.18181189151E+03  0.23623250096E+03  0.10136701753E+04  0.10565929125E+04  0.00000000000E+00 0. -1.
        -13    1    5    5    0    0  0.91826575181E+01  0.17627823588E+02  0.21702175171E+03  0.21793003941E+03  0.00000000000E+00 0.  1.
          1    1    6    6  503    0 -0.14831895461E+02  0.60255786852E+01 -0.16050129771E+03  0.16129773491E+03  0.00000000000E+00 0. -1.
         -1    1    6    6    0  503 -0.68618797546E+00 -0.14569687276E+02  0.82410883374E+01  0.16752975206E+02  0.00000000000E+00 0.  1.
<mgrwt>
<rscale>  0 0.12888575E+04</rscale>
<asrwt>0</asrwt>
<pdfrwt beam="1">  1        1 0.26385741E+00 0.12888575E+04</pdfrwt>
<pdfrwt beam="2">  1       -1 0.37252361E-01 0.12888575E+04</pdfrwt>
<totfact> 0.31745013E+01</totfact>
</mgrwt>
</event>
<event>
12    3  0.4688899E-008  0.1325805E+04  0.7818608E-02  0.9009348E-01
         -1   -1    0    0    0  501 -0.00000000000E+00  0.00000000000E+00  0.68878242583E+03  0.68878242583E+03  0.00000000000E+00 0.  1.
          1   -1    0    0  501    0  0.00000000000E+00 -0.00000000000E+00 -0.63799487416E+03  0.63799487416E+03  0.00000000000E+00 0. -1.
         23    2    1    2    0    0 -0.93706000231E+02  0.34868007773E+03  0.41745677175E+02  0.37511186916E+03  0.92777161726E+02 0.  0.
        254    2    1    2    0    0  0.93706000231E+02 -0.34868007773E+03  0.90418744966E+01  0.95166543082E+03  0.88046960517E+03 0.  0.
         23    2    4    4    0    0 -0.38491938079E+03 -0.18752606570E+03 -0.57448407602E+01  0.43790415046E+03  0.91641075790E+02 0.  0.
         23    2    4    4    0    0  0.47862538102E+03 -0.16115401203E+03  0.14786715257E+02  0.51376128036E+03  0.93161876834E+02 0.  0.
          1    1    3    3  502    0  0.16528413061E+02  0.19348603518E+02  0.14025164167E+01  0.25485759724E+02  0.00000000000E+00 0. -1.
         -1    1    3    3    0  502 -0.11023441329E+03  0.32933147422E+03  0.40343160758E+02  0.34962610944E+03  0.00000000000E+00 0.  1.
         13    1    5    5    0    0 -0.11846951792E+03 -0.48718575408E+02  0.39569020989E+02  0.13406801889E+03  0.00000000000E+00 0. -1.
        -13    1    5    5    0    0 -0.26644986287E+03 -0.13880749029E+03 -0.45313861749E+02  0.30383613158E+03  0.00000000000E+00 0.  1.
          4    1    6    6  503    0  0.40470145516E+03 -0.13673317468E+03  0.46494631665E+02  0.42969870798E+03  0.00000000000E+00 0. -1.
         -4    1    6    6    0  503  0.73923925859E+02 -0.24420837357E+02 -0.31707916408E+02  0.84062572376E+02  0.00000000000E+00 0.  1.
<mgrwt>
<rscale>  0 0.13258049E+04</rscale>
<asrwt>0</asrwt>
<pdfrwt beam="1">  1        1 0.98153057E-01 0.13258049E+04</pdfrwt>
<pdfrwt beam="2">  1       -1 0.10596653E+00 0.13258049E+04</pdfrwt>
<totfact> 0.25597232E+01</totfact>
</mgrwt>
</event>
<event>
12    3  0.4688899E-008  0.2835324E+04  0.7818608E-02  0.8292385E-01
         -2   -1    0    0    0  501 -0.00000000000E+00  0.00000000000E+00  0.14022318783E+04  0.14022318783E+04  0.00000000000E+00 0.  1.
          2   -1    0    0  501    0  0.00000000000E+00 -0.00000000000E+00 -0.14332617289E+04  0.14332617289E+04  0.00000000000E+00 0. -1.
         23    2    1    2    0    0  0.28848990808E+03  0.11447199556E+04  0.44401467508E+03  0.12646435692E+04  0.92542539494E+02 0.  0.
        254    2    1    2    0    0 -0.28848990808E+03 -0.11447199556E+04 -0.47504452571E+03  0.15708500380E+04  0.92102786962E+03 0.  0.
         23    2    4    4    0    0 -0.33080643836E+03 -0.12532986381E+04 -0.54542161852E+03  0.14090752342E+04  0.88418876941E+02 0.  0.
         23    2    4    4    0    0  0.42316530278E+02  0.10857868252E+03  0.70377092819E+02  0.16177480376E+03  0.87396412417E+02 0.  0.
          2    1    3    3  502    0  0.23578385620E+03  0.10427114173E+04  0.40896191841E+03  0.11445920572E+04  0.00000000000E+00 0.  1.
         -2    1    3    3    0  502  0.52706051884E+02  0.10200853826E+03  0.35052756668E+02  0.12005151200E+03  0.00000000000E+00 0. -1.
         13    1    5    5    0    0 -0.10774208000E+03 -0.57588656457E+03 -0.23492675421E+03  0.63122442197E+03  0.00000000000E+00 0. -1.
        -13    1    5    5    0    0 -0.22306435836E+03 -0.67741207353E+03 -0.31049486432E+03  0.77785081224E+03  0.00000000000E+00 0.  1.
          3    1    6    6  503    0  0.23191382850E+02  0.60430599402E+02 -0.10652823120E+02  0.65598629734E+02  0.00000000000E+00 0. -1.
         -3    1    6    6    0  503  0.19125147427E+02  0.48148083121E+02  0.81029915939E+02  0.96176174022E+02  0.00000000000E+00 0.  1.
<mgrwt>
<rscale>  0 0.28353238E+04</rscale>
<asrwt>0</asrwt>
<pdfrwt beam="1">  1        2 0.22050180E+00 0.28353238E+04</pdfrwt>
<pdfrwt beam="2">  1       -2 0.21572798E+00 0.28353238E+04</pdfrwt>
<totfact> 0.12645518E+00</totfact>
</mgrwt>
</event>
<event>
12    3  0.4688899E-008  0.2120884E+04  0.7818608E-02  0.8552099E-01
         -2   -1    0    0    0  501 -0.00000000000E+00  0.00000000000E+00  0.41240364951E+03  0.41240364951E+03  0.00000000000E+00 0.  1.
          2   -1    0    0  501    0  0.00000000000E+00 -0.00000000000E+00 -0.27267883180E+04  0.27267883180E+04  0.00000000000E+00 0. -1.
         23    2    1    2    0    0 -0.55093034130E+03 -0.20077661472E+03 -0.52130092080E+01  0.59432748246E+03  0.96759965697E+02 0.  0.
        254    2    1    2    0    0  0.55093034130E+03  0.20077661472E+03 -0.23091716593E+04  0.25448644850E+04  0.89455352282E+03 0.  0.
         23    2    4    4    0    0  0.36129474680E+03 -0.26881655239E+03 -0.57299011823E+03  0.73441201801E+03  0.90813565618E+02 0.  0.
         23    2    4    4    0    0  0.18963559450E+03  0.46959316711E+03 -0.17361815410E+04  0.18104524670E+04  0.83260978813E+02 0.  0.
          2    1    3    3  502    0 -0.45465126016E+03 -0.17500324588E+03 -0.39886508077E+02  0.48879938416E+03  0.00000000000E+00 0. -1.
         -2    1    3    3    0  502 -0.96279081140E+02 -0.25773368844E+02  0.34673498869E+02  0.10552809830E+03  0.00000000000E+00 0.  1.
         13    1    5    5    0    0  0.33890483000E+03 -0.26929837058E+03 -0.51813000010E+03  0.67515686563E+03  0.00000000000E+00 0.  1.
        -13    1    5    5    0    0  0.22389916798E+02  0.48181818448E+00 -0.54860118130E+02  0.59255152385E+02  0.00000000000E+00 0. -1.
          4    1    6    6  503    0  0.15607652956E+03  0.30770463443E+03 -0.10805931474E+04  0.11343383866E+04  0.00000000000E+00 0.  1.
         -4    1    6    6    0  503  0.33559064939E+02  0.16188853268E+03 -0.65558839365E+03  0.67611408042E+03  0.00000000000E+00 0. -1.
<mgrwt>
<rscale>  0 0.21208842E+04</rscale>
<asrwt>0</asrwt>
<pdfrwt beam="1">  1        2 0.41950589E+00 0.21208842E+04</pdfrwt>
<pdfrwt beam="2">  1       -2 0.63446717E-01 0.21208842E+04</pdfrwt>
<totfact> 0.54186292E+00</totfact>
</mgrwt>
</event>
<event>
12    3  0.4688899E-008  0.1811707E+04  0.7818608E-02  0.8700099E-01
         -2   -1    0    0    0  501 -0.00000000000E+00  0.00000000000E+00  0.46565178274E+03  0.46565178274E+03  0.00000000000E+00 0. -1.
          2   -1    0    0  501    0  0.00000000000E+00 -0.00000000000E+00 -0.17621971695E+04  0.17621971695E+04  0.00000000000E+00 0.  1.
         23    2    1    2    0    0  0.56541653644E+03  0.16238026097E+03 -0.85471345391E+02  0.60088865408E+03  0.87741751095E+02 0.  0.
        254    2    1    2    0    0 -0.56541653644E+03 -0.16238026097E+03 -0.12110740414E+04  0.16269602981E+04  0.91336535366E+03 0.  0.
         23    2    4    4    0    0 -0.14644881921E+03  0.36198763372E+03 -0.36145817187E+03  0.54020638931E+03  0.93212817885E+02 0.  0.
         23    2    4    4    0    0 -0.41896771722E+03 -0.52436789469E+03 -0.84961586949E+03  0.10867539088E+04  0.93227118577E+02 0.  0.
          2    1    3    3  502    0  0.54528215840E+03  0.17120846790E+03 -0.74644424852E+02  0.57638247884E+03  0.00000000000E+00 0. -1.
         -2    1    3    3    0  502  0.20134378031E+02 -0.88282069259E+01 -0.10826920539E+02  0.24506175234E+02  0.00000000000E+00 0.  1.
         13    1    5    5    0    0 -0.31957783024E+01  0.59786381378E+02 -0.96364175733E+02  0.11344901393E+03  0.00000000000E+00 0. -1.
        -13    1    5    5    0    0 -0.14325304091E+03  0.30220125234E+03 -0.26509399614E+03  0.42675737537E+03  0.00000000000E+00 0.  1.
          3    1    6    6  503    0 -0.22176069333E+03 -0.21202443822E+03 -0.35048389460E+03  0.46580159712E+03  0.00000000000E+00 0. -1.
         -3    1    6    6    0  503 -0.19720702390E+03 -0.31234345647E+03 -0.49913197488E+03  0.62095231172E+03  0.00000000000E+00 0.  1.
<mgrwt>
<rscale>  0 0.18117067E+04</rscale>
<asrwt>0</asrwt>
<pdfrwt beam="1">  1        2 0.27110725E+00 0.18117067E+04</pdfrwt>
<pdfrwt beam="2">  1       -2 0.71638738E-01 0.18117067E+04</pdfrwt>
<totfact> 0.15091346E+01</totfact>
</mgrwt>
</event>
<event>
12    3  0.4688899E-008  0.2008374E+04  0.7818608E-02  0.8602716E-01
          1   -1    0    0  501    0  0.00000000000E+00  0.00000000000E+00  0.32536836613E+04  0.32536836613E+04  0.00000000000E+00 0. -1.
         -1   -1    0    0    0  501 -0.00000000000E+00 -0.00000000000E+00 -0.30992295782E+03  0.30992295782E+03  0.00000000000E+00 0.  1.
         23    2    1    2    0    0  0.93420013107E+02  0.21544053385E+02 -0.22983899202E+03  0.26534737070E+03  0.91606876378E+02 0.  0.
        254    2    1    2    0    0 -0.93420013107E+02 -0.21544053385E+02  0.31735996955E+04  0.32982592484E+04  0.89307759872E+03 0.  0.
         23    2    4    4    0    0 -0.75614584298E+02 -0.21531244369E+03  0.30279879748E+04  0.30379068318E+04  0.89942922072E+02 0.  0.
         23    2    4    4    0    0 -0.17805428809E+02  0.19376839031E+03  0.14561172074E+03  0.26035241667E+03  0.93366938860E+02 0.  0.
          1    1    3    3  502    0  0.69928883097E+01  0.16908016272E+02  0.14894070148E+01  0.18357555241E+02  0.00000000000E+00 0. -1.
         -1    1    3    3    0  502  0.86427124797E+02  0.46360371133E+01 -0.23132839904E+03  0.24698981546E+03  0.00000000000E+00 0.  1.
         13    1    5    5    0    0 -0.30434392578E+02 -0.15395058269E+03  0.24335599473E+04  0.24386145762E+04  0.00000000000E+00 0. -1.
        -13    1    5    5    0    0 -0.45180191720E+02 -0.61361861000E+02  0.59442802748E+03  0.59929225555E+03  0.00000000000E+00 0.  1.
          3    1    6    6  503    0 -0.46435610410E+02  0.16349290612E+03  0.13578572548E+03  0.21754070771E+03  0.00000000000E+00 0. -1.
         -3    1    6    6    0  503  0.28630181602E+02  0.30275484189E+02  0.98259952545E+01  0.42811708961E+02  0.00000000000E+00 0.  1.
<mgrwt>
<rscale>  0 0.20083737E+04</rscale>
<asrwt>0</asrwt>
<pdfrwt beam="1">  1        1 0.50056669E+00 0.20083737E+04</pdfrwt>
<pdfrwt beam="2">  1       -1 0.47680457E-01 0.20083737E+04</pdfrwt>
<totfact> 0.15815751E+00</totfact>
</mgrwt>
</event>
<event>
12    3  0.4688899E-008  0.1450084E+04  0.7818608E-02  0.8918342E-01
          1   -1    0    0  501    0  0.00000000000E+00  0.00000000000E+00  0.13602148188E+04  0.13602148188E+04  0.00000000000E+00 0. -1.
         -1   -1    0    0    0  501 -0.00000000000E+00 -0.00000000000E+00 -0.38647273904E+03  0.38647273904E+03  0.00000000000E+00 0.  1.
         23    2    1    2    0    0  0.41297244732E+03 -0.19630327952E+02  0.12071775290E+03  0.43977524381E+03  0.88870114131E+02 0.  0.
        254    2    1    2    0    0 -0.41297244732E+03  0.19630327952E+02  0.85302432688E+03  0.13069123140E+04  0.89968755816E+03 0.  0.
         23    2    4    4    0    0  0.56367162231E+01  0.39678158535E+03  0.45879236254E+03  0.61321684519E+03  0.89872511138E+02 0.  0.
         23    2    4    4    0    0 -0.41860916354E+03 -0.37715125740E+03  0.39423196434E+03  0.69369546885E+03  0.91202297301E+02 0.  0.
          4    1    3    3  502    0  0.85432805315E+02  0.22416869893E+02  0.44133892225E+00  0.88325959150E+02  0.00000000000E+00 0. -1.
         -4    1    3    3    0  502  0.32753964200E+03 -0.42047197845E+02  0.12027641398E+03  0.35144928466E+03  0.00000000000E+00 0.  1.
         13    1    5    5    0    0  0.38752550833E+02  0.23172978184E+03  0.30666960529E+03  0.38632460289E+03  0.00000000000E+00 0. -1.
        -13    1    5    5    0    0 -0.33115834610E+02  0.16505180351E+03  0.15212275724E+03  0.22689224230E+03  0.00000000000E+00 0.  1.
          4    1    6    6  503    0 -0.22052661265E+03 -0.14126089406E+03  0.16216892057E+03  0.30803471537E+03  0.00000000000E+00 0. -1.
         -4    1    6    6    0  503 -0.19808255089E+03 -0.23589036334E+03  0.23206304377E+03  0.38566075347E+03  0.00000000000E+00 0.  1.
<mgrwt>
<rscale>  0 0.14500841E+04</rscale>
<asrwt>0</asrwt>
<pdfrwt beam="1">  1        1 0.20926382E+00 0.14500841E+04</pdfrwt>
<pdfrwt beam="2">  1       -1 0.59457345E-01 0.14500841E+04</pdfrwt>
<totfact> 0.22824949E+01</totfact>
</mgrwt>
</event>
<event>
12    3  0.4688899E-008  0.1673389E+04  0.7818608E-02  0.8776689E-01
          1   -1    0    0  501    0  0.00000000000E+00  0.00000000000E+00  0.18110257505E+04  0.18110257505E+04  0.00000000000E+00 0. -1.
         -1   -1    0    0    0  501 -0.00000000000E+00 -0.00000000000E+00 -0.38655314965E+03  0.38655314965E+03  0.00000000000E+00 0.  1.
         23    2    1    2    0    0  0.11968736037E+03 -0.26872559660E+03 -0.16009592356E+03  0.34811026831E+03  0.94929150745E+02 0.  0.
        254    2    1    2    0    0 -0.11968736037E+03  0.26872559660E+03  0.15845685244E+04  0.18494686319E+04  0.90726969589E+03 0.  0.
         23    2    4    4    0    0 -0.43395453372E+03  0.24697604220E+03  0.13607930115E+04  0.14523940876E+04  0.91527388192E+02 0.  0.
         23    2    4    4    0    0  0.31426717335E+03  0.21749554396E+02  0.22377551293E+03  0.39707454425E+03  0.91410142434E+02 0.  0.
          3    1    3    3  502    0  0.71894480625E+02 -0.23143218729E+03 -0.98227802709E+02  0.26149259049E+03  0.00000000000E+00 0. -1.
         -3    1    3    3    0  502  0.47792879747E+02 -0.37293409311E+02 -0.61868120854E+02  0.86617677818E+02  0.00000000000E+00 0.  1.
         13    1    5    5    0    0 -0.16307368952E+03  0.64584742640E+02  0.58340145798E+03  0.60919740509E+03  0.00000000000E+00 0.  1.
        -13    1    5    5    0    0 -0.27088084421E+03  0.18239129957E+03  0.77739155354E+03  0.84319668253E+03  0.00000000000E+00 0. -1.
          1    1    6    6  503    0  0.21695120785E+03  0.54516411240E+02  0.17135110185E+03  0.28178194724E+03  0.00000000000E+00 0. -1.
         -1    1    6    6    0  503  0.97315965498E+02 -0.32766856844E+02  0.52424411075E+02  0.11529259701E+03  0.00000000000E+00 0.  1.
<mgrwt>
<rscale>  0 0.16733890E+04</rscale>
<asrwt>0</asrwt>
<pdfrwt beam="1">  1        1 0.27861934E+00 0.16733890E+04</pdfrwt>
<pdfrwt beam="2">  1       -1 0.59469716E-01 0.16733890E+04</pdfrwt>
<totfact> 0.10947898E+01</totfact>
</mgrwt>
</event>
<event>
12    3  0.4688899E-008  0.1961968E+04  0.7818608E-02  0.8624611E-01
          1   -1    0    0  501    0  0.00000000000E+00  0.00000000000E+00  0.37786734598E+03  0.37786734598E+03  0.00000000000E+00 0. -1.
         -1   -1    0    0    0  501 -0.00000000000E+00 -0.00000000000E+00 -0.25467394147E+04  0.25467394147E+04  0.00000000000E+00 0.  1.
         23    2    1    2    0    0  0.30107149985E+03 -0.54625272206E+02 -0.19179847206E+04  0.19444444053E+04  0.92578013433E+02 0.  0.
        254    2    1    2    0    0 -0.30107149985E+03  0.54625272206E+02 -0.25088734810E+03  0.98016235534E+03  0.89674177610E+03 0.  0.
         23    2    4    4    0    0 -0.32598155889E+03 -0.33149337279E+03 -0.32694833569E+03  0.57552634826E+03  0.90462867483E+02 0.  0.
         23    2    4    4    0    0  0.24910059039E+02  0.38611864500E+03  0.76060987597E+02  0.40463600707E+03  0.90757398219E+02 0.  0.
          1    1    3    3  502    0  0.64574259195E+00 -0.12009643438E+02 -0.16116681760E+03  0.16161494861E+03  0.00000000000E+00 0. -1.
         -1    1    3    3    0  502  0.30042575726E+03 -0.42615628767E+02 -0.17568179030E+04  0.17828294567E+04  0.00000000000E+00 0.  1.
         13    1    5    5    0    0 -0.97635569037E+02 -0.67174933897E+02 -0.12412391176E+03  0.17161562154E+03  0.00000000000E+00 0.  1.
        -13    1    5    5    0    0 -0.22834598985E+03 -0.26431843889E+03 -0.20282442394E+03  0.40391072673E+03  0.00000000000E+00 0. -1.
          2    1    6    6  503    0  0.36510422936E+02  0.36765507579E+03  0.53599451021E+02  0.37333117589E+03  0.00000000000E+00 0. -1.
         -2    1    6    6    0  503 -0.11600363897E+02  0.18463569202E+02  0.22461536576E+02  0.31304831186E+02  0.00000000000E+00 0.  1.
<mgrwt>
<rscale>  0 0.19619681E+04</rscale>
<asrwt>0</asrwt>
<pdfrwt beam="1">  1        1 0.58133436E-01 0.19619681E+04</pdfrwt>
<pdfrwt beam="2">  1       -1 0.39180607E+00 0.19619681E+04</pdfrwt>
<totfact> 0.49109329E-01</totfact>
</mgrwt>
</event>
<event>
12    3  0.4688899E-008  0.1611915E+04  0.7818608E-02  0.8813261E-01
         -2   -1    0    0    0  501 -0.00000000000E+00  0.00000000000E+00  0.24439111299E+03  0.24439111299E+03  0.00000000000E+00 0.  1.
          2   -1    0    0  501    0  0.00000000000E+00 -0.00000000000E+00 -0.26579014405E+04  0.26579014405E+04  0.00000000000E+00 0. -1.
         23    2    1    2    0    0 -0.32202277086E+03 -0.42685782690E+03 -0.10872146924E+04  0.12159440235E+04  0.10284848774E+03 0.  0.
        254    2    1    2    0    0  0.32202277086E+03  0.42685782690E+03 -0.13262956351E+04  0.16863485300E+04  0.89375890693E+03 0.  0.
         23    2    4    4    0    0 -0.29227661089E+03  0.76995948272E+02 -0.29086760661E+03  0.42924245741E+03  0.91055638702E+02 0.  0.
         23    2    4    4    0    0  0.61429938176E+03  0.34986187862E+03 -0.10354280285E+04  0.12571060726E+04  0.91855381504E+02 0.  0.
          3    1    3    3  502    0 -0.84245293037E+02 -0.49071065310E+02 -0.21799452789E+03  0.23880295861E+03  0.00000000000E+00 0. -1.
         -3    1    3    3    0  502 -0.23777747783E+03 -0.37778676159E+03 -0.86922016453E+03  0.97714106485E+03  0.00000000000E+00 0.  1.
         13    1    5    5    0    0 -0.14653254492E+03  0.14756906118E+02 -0.87099145797E+02  0.17110176562E+03  0.00000000000E+00 0.  1.
        -13    1    5    5    0    0 -0.14574406597E+03  0.62239042154E+02 -0.20376846082E+03  0.25814069179E+03  0.00000000000E+00 0. -1.
          3    1    6    6  503    0  0.48408003655E+03  0.27967566813E+03 -0.74794194166E+03  0.93379286205E+03  0.00000000000E+00 0. -1.
         -3    1    6    6    0  503  0.13021934521E+03  0.70186210489E+02 -0.28748608683E+03  0.32331321057E+03  0.00000000000E+00 0.  1.
<mgrwt>
<rscale>  0 0.16119150E+04</rscale>
<asrwt>0</asrwt>
<pdfrwt beam="1">  1        2 0.40890788E+00 0.16119150E+04</pdfrwt>
<pdfrwt beam="2">  1       -2 0.37598636E-01 0.16119150E+04</pdfrwt>
<totfact> 0.18039168E+01</totfact>
</mgrwt>
</event>
<event>
12    3  0.4688899E-008  0.1355993E+04  0.7818608E-02  0.8986304E-01
         -2   -1    0    0    0  501 -0.00000000000E+00  0.00000000000E+00  0.21842529830E+03  0.21842529830E+03  0.00000000000E+00 0. -1.
          2   -1    0    0  501    0  0.00000000000E+00 -0.00000000000E+00 -0.21045142092E+04  0.21045142092E+04  0.00000000000E+00 0.  1.
         23    2    1    2    0    0  0.10825869177E+03 -0.34326507091E+03 -0.36957799182E+03  0.52401647423E+03  0.91948463690E+02 0.  0.
        254    2    1    2    0    0 -0.10825869177E+03  0.34326507091E+03 -0.15165109191E+04  0.17989230333E+04  0.89820257109E+03 0.  0.
         23    2    4    4    0    0 -0.21270162444E+02 -0.20185161240E+03 -0.10398352881E+04  0.10635832045E+04  0.93569831999E+02 0.  0.
         23    2    4    4    0    0 -0.86988529324E+02  0.54511668331E+03 -0.47667563106E+03  0.73533982877E+03  0.93732618971E+02 0.  0.
          2    1    3    3  502    0  0.32542750289E+02 -0.22913022090E+02 -0.22742341996E+02  0.45839407687E+02  0.00000000000E+00 0. -1.
         -2    1    3    3    0  502  0.75715941479E+02 -0.32035204882E+03 -0.34683564982E+03  0.47817706654E+03  0.00000000000E+00 0.  1.
         13    1    5    5    0    0 -0.36821337802E+02 -0.12218042711E+03 -0.80645864988E+03  0.81649214427E+03  0.00000000000E+00 0.  1.
        -13    1    5    5    0    0  0.15551175358E+02 -0.79671185296E+02 -0.23337663817E+03  0.24709106027E+03  0.00000000000E+00 0. -1.
          1    1    6    6  503    0 -0.12809064376E+02  0.73561063478E+02 -0.11208566629E+03  0.13467924405E+03  0.00000000000E+00 0. -1.
         -1    1    6    6    0  503 -0.74179464948E+02  0.47155561983E+03 -0.36458996478E+03  0.60066058472E+03  0.00000000000E+00 0.  1.
<mgrwt>
<rscale>  0 0.13559928E+04</rscale>
<asrwt>0</asrwt>
<pdfrwt beam="1">  1        2 0.32377142E+00 0.13559928E+04</pdfrwt>
<pdfrwt beam="2">  1       -2 0.33603892E-01 0.13559928E+04</pdfrwt>
<totfact> 0.47284328E+01</totfact>
</mgrwt>
</event>
<event>
12    3  0.4688899E-008  0.1842768E+04  0.7818608E-02  0.8683881E-01
          2   -1    0    0  501    0  0.00000000000E+00  0.00000000000E+00  0.23137959921E+04  0.23137959921E+04  0.00000000000E+00 0. -1.
         -2   -1    0    0    0  501 -0.00000000000E+00 -0.00000000000E+00 -0.36690723800E+03  0.36690723800E+03  0.00000000000E+00 0.  1.
         23    2    1    2    0    0  0.32511941595E+03 -0.58574266631E+03  0.45765833221E+03  0.81681551622E+03  0.94548044542E+02 0.  0.
        254    2    1    2    0    0 -0.32511941595E+03  0.58574266631E+03  0.14892304219E+04  0.18638877139E+04  0.89859504490E+03 0.  0.
         23    2    4    4    0    0  0.15568955561E+03  0.43595027198E+03  0.11725295442E+04  0.12635685311E+04  0.86533365661E+02 0.  0.
         23    2    4    4    0    0 -0.48080897156E+03  0.14979239433E+03  0.31670087773E+03  0.60031918283E+03  0.80427898029E+02 0.  0.
          1    1    3    3  502    0  0.25912786956E+03 -0.53050094409E+03  0.40396315076E+03  0.71537733514E+03  0.00000000000E+00 0. -1.
         -1    1    3    3    0  502  0.65991546392E+02 -0.55241722225E+02  0.53695181450E+02  0.10143818108E+03  0.00000000000E+00 0.  1.
         13    1    5    5    0    0  0.15992006830E+03  0.40114885986E+03  0.11204110511E+04  0.12007563281E+04  0.00000000000E+00 0. -1.
        -13    1    5    5    0    0 -0.42305126930E+01  0.34801412117E+02  0.52118493101E+02  0.62812203003E+02  0.00000000000E+00 0.  1.
          1    1    6    6  503    0 -0.32000152740E+03  0.10104119460E+03  0.25440553037E+03  0.42110862545E+03  0.00000000000E+00 0. -1.
         -1    1    6    6    0  503 -0.16080744416E+03  0.48751199732E+02  0.62295347361E+02  0.17921055738E+03  0.00000000000E+00 0.  1.
<mgrwt>
<rscale>  0 0.18427680E+04</rscale>
<asrwt>0</asrwt>
<pdfrwt beam="1">  1        2 0.35596861E+00 0.18427680E+04</pdfrwt>
<pdfrwt beam="2">  1       -2 0.56447269E-01 0.18427680E+04</pdfrwt>
<totfact> 0.12342275E+01</totfact>
</mgrwt>
</event>
<event>
12    3  0.4688899E-008  0.1350154E+04  0.7818608E-02  0.8990711E-01
          3   -1    0    0  501    0  0.00000000000E+00  0.00000000000E+00  0.11637223828E+04  0.11637223828E+04  0.00000000000E+00 0. -1.
         -3   -1    0    0    0  501 -0.00000000000E+00 -0.00000000000E+00 -0.39161328148E+03  0.39161328148E+03  0.00000000000E+00 0.  1.
         23    2    1    2    0    0  0.29657870215E+03 -0.16118949596E+03  0.40011012095E+03  0.53151527305E+03  0.92083638140E+02 0.  0.
        254    2    1    2    0    0 -0.29657870215E+03  0.16118949596E+03  0.37199898039E+03  0.10238203913E+04  0.89212329416E+03 0.  0.
         23    2    4    4    0    0 -0.40345645826E+02  0.12831978368E+03 -0.27611002553E+03  0.32011825623E+03  0.90250837957E+02 0.  0.
         23    2    4    4    0    0 -0.25623305633E+03  0.32869712283E+02  0.64810900592E+03  0.70370213503E+03  0.91736656515E+02 0.  0.
          1    1    3    3  502    0  0.22057939693E+03 -0.16116560124E+03  0.32647996616E+03  0.42569800290E+03  0.00000000000E+00 0. -1.
         -1    1    3    3    0  502  0.75999305225E+02 -0.23894721915E-01  0.73630154793E+02  0.10581727014E+03  0.00000000000E+00 0.  1.
         13    1    5    5    0    0 -0.63922967439E+02  0.10829670576E+03 -0.18331272270E+03  0.22230131927E+03  0.00000000000E+00 0.  1.
        -13    1    5    5    0    0  0.23577321613E+02  0.20023077920E+02 -0.92797302832E+02  0.97816936963E+02  0.00000000000E+00 0. -1.
          1    1    6    6  503    0 -0.19471502354E+02  0.17941877293E+02  0.22930448428E+02  0.35026501821E+02  0.00000000000E+00 0. -1.
         -1    1    6    6    0  503 -0.23676155397E+03  0.14927834990E+02  0.62517855749E+03  0.66867563321E+03  0.00000000000E+00 0.  1.
<mgrwt>
<rscale>  0 0.13501543E+04</rscale>
<asrwt>0</asrwt>
<pdfrwt beam="1">  1        3 0.17903421E+00 0.13501543E+04</pdfrwt>
<pdfrwt beam="2">  1       -3 0.60248198E-01 0.13501543E+04</pdfrwt>
<totfact> 0.13892214E+00</totfact>
</mgrwt>
</event>
<event>
12    3  0.4688899E-008  0.3344884E+04  0.7818608E-02  0.8151568E-01
         -2   -1    0    0    0  501 -0.00000000000E+00  0.00000000000E+00  0.11097786989E+04  0.11097786989E+04  0.00000000000E+00 0.  1.
          2   -1    0    0  501    0  0.00000000000E+00 -0.00000000000E+00 -0.25203787133E+04  0.25203787133E+04  0.00000000000E+00 0. -1.
         23    2    1    2    0    0 -0.10432836922E+04 -0.10988365117E+04 -0.99652126796E+03  0.18158497222E+04  0.91504286034E+02 0.  0.
        254    2    1    2    0    0  0.10432836922E+04  0.10988365117E+04 -0.41407874650E+03  0.18143076900E+04  0.90794748963E+03 0.  0.
         23    2    4    4    0    0  0.10842922023E+03  0.16954439847E+03  0.25075278516E+03  0.33465554047E+03  0.92817954347E+02 0.  0.
         23    2    4    4    0    0  0.93485447195E+03  0.92929211318E+03 -0.66483153165E+03  0.14796521495E+04  0.99160489866E+02 0.  0.
          4    1    3    3  502    0 -0.15309362947E+03 -0.18921733139E+03 -0.12785475047E+03  0.27493216454E+03  0.00000000000E+00 0. -1.
         -4    1    3    3    0  502 -0.89019006271E+03 -0.90961918027E+03 -0.86866651749E+03  0.15409175576E+04  0.00000000000E+00 0.  1.
         13    1    5    5    0    0  0.11364450813E+03  0.17760156671E+03  0.24583664143E+03  0.32387195772E+03  0.00000000000E+00 0.  1.
        -13    1    5    5    0    0 -0.52152878964E+01 -0.80571682359E+01  0.49161437220E+01  0.10783582750E+02  0.00000000000E+00 0. -1.
          1    1    6    6  503    0  0.26483142124E+03  0.21562432308E+03 -0.14178441910E+03  0.36977337908E+03  0.00000000000E+00 0. -1.
         -1    1    6    6    0  503  0.67002305070E+03  0.71366779010E+03 -0.52304711255E+03  0.11098787704E+04  0.00000000000E+00 0.  1.
<mgrwt>
<rscale>  0 0.33448842E+04</rscale>
<asrwt>0</asrwt>
<pdfrwt beam="1">  1        2 0.38775057E+00 0.33448842E+04</pdfrwt>
<pdfrwt beam="2">  1       -2 0.17073518E+00 0.33448842E+04</pdfrwt>
<totfact> 0.59352345E-01</totfact>
</mgrwt>
</event>
<event>
12    3  0.4688899E-008  0.2295734E+04  0.7818608E-02  0.8479605E-01
          1   -1    0    0  501    0  0.00000000000E+00  0.00000000000E+00  0.90125664074E+03  0.90125664074E+03  0.00000000000E+00 0. -1.
         -1   -1    0    0    0  501 -0.00000000000E+00 -0.00000000000E+00 -0.14619571655E+04  0.14619571655E+04  0.00000000000E+00 0.  1.
         23    2    1    2    0    0  0.16816551953E+03  0.65669805557E+03  0.47556439997E+03  0.83311294301E+03  0.91562542292E+02 0.  0.
        254    2    1    2    0    0 -0.16816551953E+03 -0.65669805557E+03 -0.10362649248E+04  0.15301008632E+04  0.89879457012E+03 0.  0.
         23    2    4    4    0    0 -0.51924880717E+03 -0.47162805951E+03 -0.76007767734E+03  0.10384675456E+04  0.92975358687E+02 0.  0.
         23    2    4    4    0    0  0.35108328764E+03 -0.18506999605E+03 -0.27618724742E+03  0.49163331769E+03  0.88958108794E+02 0.  0.
          1    1    3    3  502    0  0.15789818928E+03  0.45430858956E+03  0.34792744108E+03  0.59361741634E+03  0.00000000000E+00 0. -1.
         -1    1    3    3    0  502  0.10267330248E+02  0.20238946600E+03  0.12763695889E+03  0.23949552667E+03  0.00000000000E+00 0.  1.
         13    1    5    5    0    0 -0.90711432903E+02 -0.10890501725E+03 -0.10934892712E+03  0.17901411873E+03  0.00000000000E+00 0. -1.
        -13    1    5    5    0    0 -0.42853737427E+03 -0.36272304227E+03 -0.65072875021E+03  0.85945342683E+03  0.00000000000E+00 0.  1.
          1    1    6    6  503    0  0.34322779280E+03 -0.15689477181E+03 -0.25888626759E+03  0.45764985166E+03  0.00000000000E+00 0.  1.
         -1    1    6    6    0  503  0.78554948423E+01 -0.28175224246E+02 -0.17300979829E+02  0.33983466032E+02  0.00000000000E+00 0. -1.
<mgrwt>
<rscale>  0 0.22957340E+04</rscale>
<asrwt>0</asrwt>
<pdfrwt beam="1">  1        1 0.13865487E+00 0.22957340E+04</pdfrwt>
<pdfrwt beam="2">  1       -1 0.22491649E+00 0.22957340E+04</pdfrwt>
<totfact> 0.16746786E+00</totfact>
</mgrwt>
</event>
<event>
12    3  0.4688899E-008  0.2413447E+04  0.7818608E-02  0.8434486E-01
          2   -1    0    0  501    0  0.00000000000E+00  0.00000000000E+00  0.16642576227E+04  0.16642576227E+04  0.00000000000E+00 0. -1.
         -2   -1    0    0    0  501 -0.00000000000E+00 -0.00000000000E+00 -0.87497375628E+03  0.87497375628E+03  0.00000000000E+00 0.  1.
         23    2    1    2    0    0  0.67180887636E+03 -0.54021661786E+03  0.98205489914E+03  0.13098282980E+04  0.89761822691E+02 0.  0.
        254    2    1    2    0    0 -0.67180887636E+03  0.54021661786E+03 -0.19277103271E+03  0.12294030810E+04  0.85504976690E+03 0.  0.
         23    2    4    4    0    0 -0.19689244774E+02 -0.11275981358E+03 -0.26116899251E+03  0.29925484218E+03  0.90784227716E+02 0.  0.
         23    2    4    4    0    0 -0.65211963159E+03  0.65297643144E+03  0.68397959803E+02  0.93014823878E+03  0.94123489587E+02 0.  0.
          3    1    3    3  502    0  0.14804196893E+03 -0.12844184649E+03  0.28187517246E+03  0.34331814013E+03  0.00000000000E+00 0. -1.
         -3    1    3    3    0  502  0.52376690743E+03 -0.41177477137E+03  0.70017972668E+03  0.96651015790E+03  0.00000000000E+00 0.  1.
         13    1    5    5    0    0 -0.31705956158E+02 -0.12135958053E+03 -0.25295925016E+03  0.28235048731E+03  0.00000000000E+00 0.  1.
        -13    1    5    5    0    0  0.12016711384E+02  0.85997669542E+01 -0.82097423507E+01  0.16904354871E+02  0.00000000000E+00 0. -1.
          1    1    6    6  503    0 -0.79245486393E+02  0.12099974973E+03  0.27979487684E+02  0.14732154724E+03  0.00000000000E+00 0. -1.
         -1    1    6    6    0  503 -0.57287414520E+03  0.53197668171E+03  0.40418472119E+02  0.78282669155E+03  0.00000000000E+00 0.  1.
<mgrwt>
<rscale>  0 0.24134471E+04</rscale>
<asrwt>0</asrwt>
<pdfrwt beam="1">  1        2 0.25603963E+00 0.24134471E+04</pdfrwt>
<pdfrwt beam="2">  1       -2 0.13461135E+00 0.24134471E+04</pdfrwt>
<totfact> 0.36658038E+00</totfact>
</mgrwt>
</event>
<event>
12    3  0.4688899E-008  0.1311514E+04  0.7818608E-02  0.9020484E-01
         -2   -1    0    0    0  501 -0.00000000000E+00  0.00000000000E+00  0.24840005493E+03  0.24840005493E+03  0.00000000000E+00 0.  1.
          2   -1    0    0  501    0  0.00000000000E+00 -0.00000000000E+00 -0.17311484436E+04  0.17311484436E+04  0.00000000000E+00 0. -1.
         23    2    1    2    0    0 -0.14752829549E+03 -0.12665652535E+03 -0.81053770891E+03  0.83886186984E+03  0.94400136236E+02 0.  0.
        254    2    1    2    0    0  0.14752829549E+03  0.12665652535E+03 -0.67221067981E+03  0.11406866287E+04  0.90082868158E+03 0.  0.
         23    2    4    4    0    0 -0.29033488001E+03  0.12303589270E+03  0.51524439718E+01  0.32906544549E+03  0.93943314258E+02 0.  0.
         23    2    4    4    0    0  0.43786317550E+03  0.36206326421E+01 -0.67736312378E+03  0.81162118325E+03  0.90392888018E+02 0.  0.
          1    1    3    3  502    0 -0.12580073955E+03 -0.74312657146E+02 -0.69475473990E+03  0.70995235453E+03  0.00000000000E+00 0. -1.
         -1    1    3    3    0  502 -0.21727555942E+02 -0.52343868200E+02 -0.11578296900E+03  0.12890951531E+03  0.00000000000E+00 0.  1.
         13    1    5    5    0    0 -0.24440177469E+03  0.66522823596E+02 -0.14267834754E+02  0.25369486522E+03  0.00000000000E+00 0. -1.
        -13    1    5    5    0    0 -0.45933105316E+02  0.56513069109E+02  0.19420278726E+02  0.75370580268E+02  0.00000000000E+00 0.  1.
          3    1    6    6  503    0  0.35706512652E+03  0.33863818328E+02 -0.57568858127E+03  0.67827693855E+03  0.00000000000E+00 0. -1.
         -3    1    6    6    0  503  0.80798048979E+02 -0.30243185686E+02 -0.10167454252E+03  0.13334424470E+03  0.00000000000E+00 0.  1.
<mgrwt>
<rscale>  0 0.13115142E+04</rscale>
<asrwt>0</asrwt>
<pdfrwt beam="1">  1        2 0.26633053E+00 0.13115142E+04</pdfrwt>
<pdfrwt beam="2">  1       -2 0.38215393E-01 0.13115142E+04</pdfrwt>
<totfact> 0.59665870E+01</totfact>
</mgrwt>
</event>
<event>
12    3  0.4688899E-008  0.1824336E+04  0.7818608E-02  0.8693464E-01
          2   -1    0    0  501    0  0.00000000000E+00  0.00000000000E+00  0.15392136159E+04  0.15392136159E+04  0.00000000000E+00 0. -1.
         -2   -1    0    0    0  501 -0.00000000000E+00 -0.00000000000E+00 -0.54056861422E+03  0.54056861422E+03  0.00000000000E+00 0.  1.
         23    2    1    2    0    0  0.66152678441E+03 -0.15677888367E+03  0.48492001452E+03  0.83981815695E+03  0.89161714938E+02 0.  0.
        254    2    1    2    0    0 -0.66152678441E+03  0.15677888367E+03  0.51372498711E+03  0.12399640731E+04  0.90077757265E+03 0.  0.
         23    2    4    4    0    0 -0.52832598497E+03  0.16758055275E+03 -0.12965510182E+03  0.57653822836E+03  0.91511175690E+02 0.  0.
         23    2    4    4    0    0 -0.13320079944E+03 -0.10801669079E+02  0.64338008893E+03  0.66342584476E+03  0.91305989051E+02 0.  0.
          1    1    3    3  502    0  0.31882753529E+03 -0.11620417637E+03  0.26562938555E+03  0.43094475090E+03  0.00000000000E+00 0. -1.
         -1    1    3    3    0  502  0.34269924912E+03 -0.40574707301E+02  0.21929062897E+03  0.40887340605E+03  0.00000000000E+00 0.  1.
         13    1    5    5    0    0 -0.48241532989E+03  0.14494010195E+03 -0.14302774045E+03  0.52363070785E+03  0.00000000000E+00 0. -1.
        -13    1    5    5    0    0 -0.45910655082E+02  0.22640450799E+02  0.13372638631E+02  0.52907520509E+02  0.00000000000E+00 0.  1.
          1    1    6    6  503    0 -0.12957990263E+03 -0.18820878088E+02  0.64110186625E+03  0.65433690063E+03  0.00000000000E+00 0. -1.
         -1    1    6    6    0  503 -0.36208968057E+01  0.80192090089E+01  0.22782226820E+01  0.90889441298E+01  0.00000000000E+00 0.  1.
<mgrwt>
<rscale>  0 0.18243361E+04</rscale>
<asrwt>0</asrwt>
<pdfrwt beam="1">  1        2 0.23680209E+00 0.18243361E+04</pdfrwt>
<pdfrwt beam="2">  1       -2 0.83164403E-01 0.18243361E+04</pdfrwt>
<totfact> 0.14392794E+01</totfact>
</mgrwt>
</event>
<event>
12    3  0.4688899E-008  0.1694290E+04  0.7818608E-02  0.8764627E-01
         -2   -1    0    0    0  501 -0.00000000000E+00  0.00000000000E+00  0.66256573506E+03  0.66256573506E+03  0.00000000000E+00 0.  1.
          2   -1    0    0  501    0  0.00000000000E+00 -0.00000000000E+00 -0.10831454229E+04  0.10831454229E+04  0.00000000000E+00 0. -1.
         23    2    1    2    0    0 -0.19725155708E+03 -0.48666313682E+03  0.18116585659E+03  0.56290041916E+03  0.91030922159E+02 0.  0.
        254    2    1    2    0    0  0.19725155708E+03  0.48666313682E+03 -0.60174554445E+03  0.11828107388E+04  0.87246453112E+03 0.  0.
         23    2    4    4    0    0  0.38873343607E+03  0.60679703361E+03 -0.27840626335E+03  0.77790886852E+03  0.91191205328E+02 0.  0.
         23    2    4    4    0    0 -0.19148187899E+03 -0.12013389679E+03 -0.32333928110E+03  0.40490187029E+03  0.91103077415E+02 0.  0.
          3    1    3    3  502    0 -0.15295354793E+03 -0.28942059104E+03  0.14276998497E+03  0.35713069730E+03  0.00000000000E+00 0. -1.
         -3    1    3    3    0  502 -0.44298009152E+02 -0.19724254578E+03  0.38395871625E+02  0.20576972187E+03  0.00000000000E+00 0.  1.
         13    1    5    5    0    0  0.28450803065E+03  0.36707729937E+03 -0.16340957903E+03  0.49233449375E+03  0.00000000000E+00 0.  1.
        -13    1    5    5    0    0  0.10422540542E+03  0.23971973425E+03 -0.11499668432E+03  0.28557437477E+03  0.00000000000E+00 0. -1.
          3    1    6    6  503    0 -0.40436087219E+02 -0.73929053725E+02 -0.91740372645E+02  0.12456676165E+03  0.00000000000E+00 0. -1.
         -3    1    6    6    0  503 -0.15104579178E+03 -0.46204843067E+02 -0.23159890846E+03  0.28033510864E+03  0.00000000000E+00 0.  1.
<mgrwt>
<rscale>  0 0.16942905E+04</rscale>
<asrwt>0</asrwt>
<pdfrwt beam="1">  1        2 0.16663776E+00 0.16942905E+04</pdfrwt>
<pdfrwt beam="2">  1       -2 0.10193319E+00 0.16942905E+04</pdfrwt>
<totfact> 0.16768972E+01</totfact>
</mgrwt>
</event>
<event>
12    3  0.4688899E-008  0.1939848E+04  0.7818608E-02  0.8635272E-01
          1   -1    0    0  501    0  0.00000000000E+00  0.00000000000E+00  0.38942636953E+04  0.38942636953E+04  0.00000000000E+00 0. -1.
         -1   -1    0    0    0  501 -0.00000000000E+00 -0.00000000000E+00 -0.24157390132E+03  0.24157390132E+03  0.00000000000E+00 0.  1.
         23    2    1    2    0    0 -0.41246710961E+03  0.37286716936E+02  0.79983378943E+02  0.43132096528E+03  0.90116693304E+02 0.  0.
        254    2    1    2    0    0  0.41246710961E+03 -0.37286716936E+02  0.35727064151E+04  0.37045166314E+04  0.88752066348E+03 0.  0.
         23    2    4    4    0    0 -0.16416684285E+03 -0.28756624015E+03  0.12765779782E+04  0.13221350159E+04  0.93512410945E+02 0.  0.
         23    2    4    4    0    0  0.57663395246E+03  0.25027952321E+03  0.22961284369E+04  0.23823816155E+04  0.91595897535E+02 0.  0.
          4    1    3    3  502    0 -0.13667012652E+03  0.55215403960E+02  0.31239781957E+02  0.15067643576E+03  0.00000000000E+00 0. -1.
         -4    1    3    3    0  502 -0.27579698310E+03 -0.17928687024E+02  0.48743596986E+02  0.28064452952E+03  0.00000000000E+00 0.  1.
         13    1    5    5    0    0 -0.17250126781E+02 -0.10799847446E+03  0.33534339522E+03  0.35272713261E+03  0.00000000000E+00 0. -1.
        -13    1    5    5    0    0 -0.14691671606E+03 -0.17956776569E+03  0.94123458297E+03  0.96940788326E+03  0.00000000000E+00 0.  1.
          3    1    6    6  503    0  0.14475633644E+03  0.10139523144E+03  0.72114235176E+03  0.74248345531E+03  0.00000000000E+00 0. -1.
         -3    1    6    6    0  503  0.43187761602E+03  0.14888429178E+03  0.15749860851E+04  0.16398981602E+04  0.00000000000E+00 0.  1.
<mgrwt>
<rscale>  0 0.19398479E+04</rscale>
<asrwt>0</asrwt>
<pdfrwt beam="1">  1        1 0.59911745E+00 0.19398479E+04</pdfrwt>
<pdfrwt beam="2">  1       -1 0.37165218E-01 0.19398479E+04</pdfrwt>
<totfact> 0.77616010E-01</totfact>
</mgrwt>
</event>
<event>
12    3  0.4688899E-008  0.1870617E+04  0.7818608E-02  0.8669622E-01
          1   -1    0    0  501    0  0.00000000000E+00  0.00000000000E+00  0.14724338883E+04  0.14724338883E+04  0.00000000000E+00 0. -1.
         -1   -1    0    0    0  501 -0.00000000000E+00 -0.00000000000E+00 -0.59411984964E+03  0.59411984964E+03  0.00000000000E+00 0.  1.
         23    2    1    2    0    0  0.65594749473E+02  0.67386027467E+03  0.77696790006E+02  0.68732505477E+03  0.89378961713E+02 0.  0.
        254    2    1    2    0    0 -0.65594749473E+02 -0.67386027467E+03  0.80061724867E+03  0.13792286832E+04  0.89604321363E+03 0.  0.
         23    2    4    4    0    0 -0.37077642402E+03 -0.29581446528E+03  0.57253437718E+02  0.48636853310E+03  0.91077106778E+02 0.  0.
         23    2    4    4    0    0  0.30518167455E+03 -0.37804580939E+03  0.74336381095E+03  0.89286015008E+03  0.92493262976E+02 0.  0.
          1    1    3    3  502    0  0.39948930719E+02  0.10392984963E+03  0.26997400292E+02  0.11456958729E+03  0.00000000000E+00 0. -1.
         -1    1    3    3    0  502  0.25645818754E+02  0.56993042504E+03  0.50699389714E+02  0.57275546747E+03  0.00000000000E+00 0.  1.
         13    1    5    5    0    0 -0.34757349132E+03 -0.26898508762E+03  0.76351750996E+02  0.44608283884E+03  0.00000000000E+00 0. -1.
        -13    1    5    5    0    0 -0.23202932699E+02 -0.26829377661E+02 -0.19098313278E+02  0.40285694255E+02  0.00000000000E+00 0.  1.
          3    1    6    6  503    0  0.29745933253E+03 -0.37370756801E+03  0.69259640709E+03  0.84132584889E+03  0.00000000000E+00 0. -1.
         -3    1    6    6    0  503  0.77223420152E+01 -0.43382413821E+01  0.50767403864E+02  0.51534301194E+02  0.00000000000E+00 0.  1.
<mgrwt>
<rscale>  0 0.18706172E+04</rscale>
<asrwt>0</asrwt>
<pdfrwt beam="1">  1        1 0.22652829E+00 0.18706172E+04</pdfrwt>
<pdfrwt beam="2">  1       -1 0.91403054E-01 0.18706172E+04</pdfrwt>
<totfact> 0.74847378E+00</totfact>
</mgrwt>
</event>
<event>
12    3  0.4688899E-008  0.1220330E+04  0.7818608E-02  0.9095246E-01
          2   -1    0    0  501    0  0.00000000000E+00  0.00000000000E+00  0.22121921963E+04  0.22121921963E+04  0.00000000000E+00 0. -1.
         -2   -1    0    0    0  501 -0.00000000000E+00 -0.00000000000E+00 -0.16829515248E+03  0.16829515248E+03  0.00000000000E+00 0.  1.
         23    2    1    2    0    0  0.48540682680E-01 -0.25903080571E+03  0.41941243748E+03  0.50117626440E+03  0.90409593625E+02 0.  0.
        254    2    1    2    0    0 -0.48540682680E-01  0.25903080571E+03  0.16244846064E+04  0.18793110844E+04  0.90871500208E+03 0.  0.
         23    2    4    4    0    0 -0.14928836788E+03  0.43598452650E+03  0.36382174194E+03  0.59427633825E+03  0.91807309976E+02 0.  0.
         23    2    4    4    0    0  0.14923982720E+03 -0.17695372079E+03  0.12606628644E+04  0.12850347462E+04  0.91968993548E+02 0.  0.
          3    1    3    3  502    0 -0.12763775833E+02 -0.26078393122E+03  0.39394705741E+03  0.47261554862E+03  0.00000000000E+00 0. -1.
         -3    1    3    3    0  502  0.12812316516E+02  0.17531255095E+01  0.25465380078E+02  0.28560715783E+02  0.00000000000E+00 0.  1.
         13    1    5    5    0    0 -0.87351022012E+02  0.29305688560E+03  0.18620041531E+03  0.35802672234E+03  0.00000000000E+00 0. -1.
        -13    1    5    5    0    0 -0.61937345867E+02  0.14292764090E+03  0.17762132663E+03  0.23624961591E+03  0.00000000000E+00 0.  1.
          4    1    6    6  503    0  0.68129485809E+02 -0.14012717075E+03  0.90948495628E+03  0.92273513888E+03  0.00000000000E+00 0. -1.
         -4    1    6    6    0  503  0.81110341387E+02 -0.36826550039E+02  0.35117790814E+03  0.36229960727E+03  0.00000000000E+00 0.  1.
<mgrwt>
<rscale>  0 0.12203298E+04</rscale>
<asrwt>0</asrwt>
<pdfrwt beam="1">  1        2 0.34033724E+00 0.12203298E+04</pdfrwt>
<pdfrwt beam="2">  1       -2 0.25891563E-01 0.12203298E+04</pdfrwt>
<totfact> 0.67610604E+01</totfact>
</mgrwt>
</event>
<event>
12    3  0.4688899E-008  0.1522222E+04  0.7818608E-02  0.8869808E-01
          1   -1    0    0  501    0  0.00000000000E+00  0.00000000000E+00  0.25022643568E+04  0.25022643568E+04  0.00000000000E+00 0. -1.
         -1   -1    0    0    0  501 -0.00000000000E+00 -0.00000000000E+00 -0.23150638203E+03  0.23150638203E+03  0.00000000000E+00 0.  1.
         23    2    1    2    0    0  0.17045338734E+03 -0.18832585802E+03 -0.14658346917E+02  0.27021484887E+03  0.90995666703E+02 0.  0.
        254    2    1    2    0    0 -0.17045338734E+03  0.18832585802E+03  0.22854163217E+04  0.24635558899E+04  0.88400162525E+03 0.  0.
         23    2    4    4    0    0  0.25348317022E+03  0.10571069605E+03  0.17302778015E+04  0.17541981748E+04  0.89002793828E+02 0.  0.
         23    2    4    4    0    0 -0.42393655756E+03  0.82615161968E+02  0.55513852016E+03  0.70935771511E+03  0.91989790742E+02 0.  0.
          3    1    3    3  502    0  0.12847151801E+03 -0.81737685250E+02 -0.28202119095E+02  0.15485909612E+03  0.00000000000E+00 0. -1.
         -3    1    3    3    0  502  0.41981869333E+02 -0.10658817277E+03  0.13543772178E+02  0.11535575274E+03  0.00000000000E+00 0.  1.
         13    1    5    5    0    0  0.12130577122E+03  0.97958183885E+02  0.89068209386E+03  0.90422645850E+03  0.00000000000E+00 0. -1.
        -13    1    5    5    0    0  0.13217739900E+03  0.77525121655E+01  0.83959570766E+03  0.84997171633E+03  0.00000000000E+00 0.  1.
          2    1    6    6  503    0 -0.13345736708E+02 -0.12648320546E+02  0.12427269975E+02  0.22192920942E+02  0.00000000000E+00 0. -1.
         -2    1    6    6    0  503 -0.41059082086E+03  0.95263482514E+02  0.54271125018E+03  0.68716479417E+03  0.00000000000E+00 0.  1.
<mgrwt>
<rscale>  0 0.15222223E+04</rscale>
<asrwt>0</asrwt>
<pdfrwt beam="1">  1        1 0.38496373E+00 0.15222223E+04</pdfrwt>
<pdfrwt beam="2">  1       -1 0.35616368E-01 0.15222223E+04</pdfrwt>
<totfact> 0.98262477E+00</totfact>
</mgrwt>
</event>
<event>
12    3  0.4688899E-008  0.2370356E+04  0.7818608E-02  0.8450686E-01
         -3   -1    0    0    0  501 -0.00000000000E+00  0.00000000000E+00  0.11495099713E+04  0.11495099713E+04  0.00000000000E+00 0.  1.
          3   -1    0    0  501    0  0.00000000000E+00 -0.00000000000E+00 -0.12219522988E+04  0.12219522988E+04  0.00000000000E+00 0. -1.
         23    2    1    2    0    0 -0.88745989792E+03 -0.41215935468E+03 -0.29300396362E+03  0.10252650860E+04  0.88638422195E+02 0.  0.
        254    2    1    2    0    0  0.88745989792E+03  0.41215935468E+03  0.22056163614E+03  0.13461971840E+04  0.89785244821E+03 0.  0.
         23    2    4    4    0    0  0.85367414597E+03 -0.28217689038E+02  0.24669549793E+03  0.89437925921E+03  0.97466943738E+02 0.  0.
         23    2    4    4    0    0  0.33785751944E+02  0.44037704372E+03 -0.26133861792E+02  0.45181792477E+03  0.91558946840E+02 0.  0.
          1    1    3    3  502    0 -0.77647207114E+03 -0.32927796208E+03 -0.26382154426E+03  0.88370507568E+03  0.00000000000E+00 0. -1.
         -1    1    3    3    0  502 -0.11098782678E+03 -0.82881392598E+02 -0.29182419363E+02  0.14156001035E+03  0.00000000000E+00 0.  1.
         13    1    5    5    0    0  0.56014199583E+03 -0.63663201671E+02  0.17246192269E+03  0.58953810183E+03  0.00000000000E+00 0.  1.
        -13    1    5    5    0    0  0.29353215015E+03  0.35445512632E+02  0.74233575242E+02  0.30484115737E+03  0.00000000000E+00 0. -1.
          4    1    6    6  503    0 -0.19533509634E+02  0.17565638278E+03  0.20004692916E+02  0.17786767708E+03  0.00000000000E+00 0. -1.
         -4    1    6    6    0  503  0.53319261578E+02  0.26472066093E+03 -0.46138554708E+02  0.27395024769E+03  0.00000000000E+00 0.  1.
<mgrwt>
<rscale>  0 0.23703555E+04</rscale>
<asrwt>0</asrwt>
<pdfrwt beam="1">  1        3 0.18799266E+00 0.23703555E+04</pdfrwt>
<pdfrwt beam="2">  1       -3 0.17684769E+00 0.23703555E+04</pdfrwt>
<totfact> 0.85778962E-02</totfact>
</mgrwt>
</event>
<event>
12    3  0.4688899E-008  0.1849592E+04  0.7818608E-02  0.8680362E-01
          2   -1    0    0  501    0  0.00000000000E+00  0.00000000000E+00  0.43764398097E+04  0.43764398097E+04  0.00000000000E+00 0. -1.
         -2   -1    0    0    0  501 -0.00000000000E+00 -0.00000000000E+00 -0.19542094691E+03  0.19542094691E+03  0.00000000000E+00 0.  1.
         23    2    1    2    0    0 -0.28798885674E+03  0.26898527314E+03  0.30425756325E+04  0.30693397575E+04  0.91046190091E+02 0.  0.
        254    2    1    2    0    0  0.28798885674E+03 -0.26898527314E+03  0.11384432304E+04  0.15025209992E+04  0.89790072137E+03 0.  0.
         23    2    4    4    0    0 -0.61007190968E+01  0.15673119676E+03 -0.61975473877E+02  0.19211318529E+03  0.92003422704E+02 0.  0.
         23    2    4    4    0    0  0.29408957584E+03 -0.42571646991E+03  0.12004187042E+04  0.13104078139E+04  0.91871550740E+02 0.  0.
          3    1    3    3  502    0 -0.28501514053E+03  0.26380542459E+03  0.28125498617E+04  0.28392364567E+04  0.00000000000E+00 0. -1.
         -3    1    3    3    0  502 -0.29737162158E+01  0.51798485488E+01  0.23002577074E+03  0.23010330077E+03  0.00000000000E+00 0.  1.
         13    1    5    5    0    0 -0.20664994184E+02  0.15855203723E+03 -0.38558700569E+02  0.16447663629E+03  0.00000000000E+00 0.  1.
        -13    1    5    5    0    0  0.14564275087E+02 -0.18208404680E+01 -0.23416773308E+02  0.27636549007E+02  0.00000000000E+00 0. -1.
          1    1    6    6  503    0  0.52130990037E+02 -0.11383513937E+03  0.21391826189E+03  0.24786508800E+03  0.00000000000E+00 0. -1.
         -1    1    6    6    0  503  0.24195858580E+03 -0.31188133053E+03  0.98650044234E+03  0.10625427259E+04  0.00000000000E+00 0.  1.
<mgrwt>
<rscale>  0 0.18495924E+04</rscale>
<asrwt>0</asrwt>
<pdfrwt beam="1">  1        2 0.67329836E+00 0.18495924E+04</pdfrwt>
<pdfrwt beam="2">  1       -2 0.30064764E-01 0.18495924E+04</pdfrwt>
<totfact> 0.15801916E+00</totfact>
</mgrwt>
</event>
<event>
12    3  0.4688899E-008  0.1194369E+04  0.7818608E-02  0.9117800E-01
          2   -1    0    0  501    0  0.00000000000E+00  0.00000000000E+00  0.31597739899E+04  0.31597739899E+04  0.00000000000E+00 0. -1.
         -2   -1    0    0    0  501 -0.00000000000E+00 -0.00000000000E+00 -0.11286544543E+03  0.11286544543E+03  0.00000000000E+00 0.  1.
         23    2    1    2    0    0 -0.25399025093E+02 -0.96121021131E+01  0.13485608245E+04  0.13518546773E+04  0.90317596173E+02 0.  0.
        254    2    1    2    0    0  0.25399025093E+02  0.96121021131E+01  0.16983477200E+04  0.19207847581E+04  0.89682306271E+03 0.  0.
         23    2    4    4    0    0  0.31252043908E+03  0.26301096864E+03  0.12773076314E+04  0.13441828368E+04  0.92026730378E+02 0.  0.
         23    2    4    4    0    0 -0.28712141398E+03 -0.25339886653E+03  0.42104008867E+03  0.57660192132E+03  0.92440940435E+02 0.  0.
          2    1    3    3  502    0 -0.56902373552E+02 -0.20863188865E+02  0.91531491634E+03  0.91731921862E+03  0.00000000000E+00 0. -1.
         -2    1    3    3    0  502  0.31503348459E+02  0.11251086752E+02  0.43324590811E+03  0.43453545864E+03  0.00000000000E+00 0.  1.
         13    1    5    5    0    0  0.19228036311E+03  0.15489015136E+03  0.90910323815E+03  0.94203577142E+03  0.00000000000E+00 0. -1.
        -13    1    5    5    0    0  0.12024007597E+03  0.10812081728E+03  0.36820439322E+03  0.40214706537E+03  0.00000000000E+00 0.  1.
          2    1    6    6  503    0 -0.10123169699E+03 -0.46424958363E+02  0.16120972888E+03  0.19593802571E+03  0.00000000000E+00 0.  1.
         -2    1    6    6    0  503 -0.18588971700E+03 -0.20697390816E+03  0.25983035979E+03  0.38066389560E+03  0.00000000000E+00 0. -1.
<mgrwt>
<rscale>  0 0.11943690E+04</rscale>
<asrwt>0</asrwt>
<pdfrwt beam="1">  1        2 0.48611901E+00 0.11943690E+04</pdfrwt>
<pdfrwt beam="2">  1       -2 0.17363917E-01 0.11943690E+04</pdfrwt>
<totfact> 0.37848196E+01</totfact>
</mgrwt>
</event>
<event>
12    3  0.4688899E-008  0.1961841E+04  0.7818608E-02  0.8624672E-01
          2   -1    0    0  501    0  0.00000000000E+00  0.00000000000E+00  0.12627265570E+04  0.12627265570E+04  0.00000000000E+00 0. -1.
         -2   -1    0    0    0  501 -0.00000000000E+00 -0.00000000000E+00 -0.76200597772E+03  0.76200597772E+03  0.00000000000E+00 0.  1.
         23    2    1    2    0    0 -0.35669087071E+03 -0.66886036606E+03  0.33381901356E+03  0.83333913387E+03  0.91741003386E+02 0.  0.
        254    2    1    2    0    0  0.35669087071E+03  0.66886036606E+03  0.16690156573E+03  0.11913934008E+04  0.90385813954E+03 0.  0.
         23    2    4    4    0    0 -0.37512348184E+01 -0.18896492577E+03  0.14649322454E+03  0.25611298671E+03  0.91715768512E+02 0.  0.
         23    2    4    4    0    0  0.36044210553E+03  0.85782529182E+03  0.20408341194E+02  0.93528041414E+03  0.92467345327E+02 0.  0.
          1    1    3    3  502    0 -0.23635277312E+03 -0.49339870404E+03  0.27650078854E+03  0.61299070186E+03  0.00000000000E+00 0. -1.
         -1    1    3    3    0  502 -0.12033809759E+03 -0.17546166201E+03  0.57318225020E+02  0.22034843201E+03  0.00000000000E+00 0.  1.
         13    1    5    5    0    0 -0.16211909736E+02 -0.18620539265E+03  0.10869261518E+03  0.21621600048E+03  0.00000000000E+00 0.  1.
        -13    1    5    5    0    0  0.12460674917E+02 -0.27595331153E+01  0.37800609356E+02  0.39896986228E+02  0.00000000000E+00 0. -1.
          2    1    6    6  503    0  0.22729597248E+02  0.16108810815E+02  0.43770211520E+01  0.28200827844E+02  0.00000000000E+00 0. -1.
         -2    1    6    6    0  503  0.33771250828E+03  0.84171648101E+03  0.16031320042E+02  0.90707958629E+03  0.00000000000E+00 0.  1.
<mgrwt>
<rscale>  0 0.19618412E+04</rscale>
<asrwt>0</asrwt>
<pdfrwt beam="1">  1        2 0.19426562E+00 0.19618412E+04</pdfrwt>
<pdfrwt beam="2">  1       -2 0.11723169E+00 0.19618412E+04</pdfrwt>
<totfact> 0.91154472E+00</totfact>
</mgrwt>
</event>
<event>
12    3  0.4688899E-008  0.1339246E+04  0.7818608E-02  0.8999009E-01
         -1   -1    0    0    0  501 -0.00000000000E+00  0.00000000000E+00  0.16628865639E+04  0.16628865639E+04  0.00000000000E+00 0.  1.
          1   -1    0    0  501    0  0.00000000000E+00 -0.00000000000E+00 -0.26964865976E+03  0.26964865976E+03  0.00000000000E+00 0. -1.
         23    2    1    2    0    0 -0.28133145708E+03  0.22496213355E+03  0.30110086673E+03  0.47713559667E+03  0.85095801244E+02 0.  0.
        254    2    1    2    0    0  0.28133145708E+03 -0.22496213355E+03  0.10921370374E+04  0.14553996269E+04  0.89200303555E+03 0.  0.
         23    2    4    4    0    0  0.39435142852E+03  0.92428615518E+02  0.13391829989E+03  0.43567106622E+03  0.88425498328E+02 0.  0.
         23    2    4    4    0    0 -0.11301997144E+03 -0.31739074907E+03  0.95821873748E+03  0.10197285607E+04  0.90292785680E+02 0.  0.
          2    1    3    3  502    0 -0.23149305345E+02  0.35636721562E+02  0.83473233605E+01  0.43307552101E+02  0.00000000000E+00 0.  1.
         -2    1    3    3    0  502 -0.25818215174E+03  0.18932541199E+03  0.29275354337E+03  0.43382804457E+03  0.00000000000E+00 0. -1.
         13    1    5    5    0    0  0.23361101973E+03  0.77884681020E+02  0.11925584486E+03  0.27360937230E+03  0.00000000000E+00 0. -1.
        -13    1    5    5    0    0  0.16074040879E+03  0.14543934498E+02  0.14662455022E+02  0.16206169392E+03  0.00000000000E+00 0.  1.
          3    1    6    6  503    0 -0.26056938617E+02 -0.16965512806E+03  0.38737972856E+03  0.42370376518E+03  0.00000000000E+00 0. -1.
         -3    1    6    6    0  503 -0.86963032822E+02 -0.14773562101E+03  0.57083900892E+03  0.59602479554E+03  0.00000000000E+00 0.  1.
<mgrwt>
<rscale>  0 0.13392463E+04</rscale>
<asrwt>0</asrwt>
<pdfrwt beam="1">  1        1 0.41484410E-01 0.13392463E+04</pdfrwt>
<pdfrwt beam="2">  1       -1 0.25582870E+00 0.13392463E+04</pdfrwt>
<totfact> 0.63152527E+00</totfact>
</mgrwt>
</event>
<event>
12    3  0.4688899E-008  0.1528422E+04  0.7818608E-02  0.8865770E-01
          2   -1    0    0  501    0  0.00000000000E+00  0.00000000000E+00  0.31048084301E+04  0.31048084301E+04  0.00000000000E+00 0.  1.
         -2   -1    0    0    0  501 -0.00000000000E+00 -0.00000000000E+00 -0.18810122785E+03  0.18810122785E+03  0.00000000000E+00 0. -1.
         23    2    1    2    0    0 -0.26003089706E+03 -0.12618229475E+03  0.93173420625E+02  0.31721459698E+03  0.91683015272E+02 0.  0.
        254    2    1    2    0    0  0.26003089706E+03  0.12618229475E+03  0.28235337816E+04  0.29756950610E+04  0.89380089564E+03 0.  0.
         23    2    4    4    0    0  0.35716786228E+03 -0.24911294275E+03  0.21290248230E+04  0.21749203071E+04  0.88912906453E+02 0.  0.
         23    2    4    4    0    0 -0.97136965220E+02  0.37529523751E+03  0.69450895857E+03  0.80077475389E+03  0.92819220122E+02 0.  0.
          2    1    3    3  502    0 -0.26641395628E+03 -0.11844409828E+03  0.83497798422E+02  0.30327756735E+03  0.00000000000E+00 0. -1.
         -2    1    3    3    0  502  0.63830592227E+01 -0.77381964683E+01  0.96756222028E+01  0.13937029620E+02  0.00000000000E+00 0.  1.
         13    1    5    5    0    0  0.35043594695E+03 -0.24335097867E+03  0.21190715183E+04  0.21615941227E+04  0.00000000000E+00 0. -1.
        -13    1    5    5    0    0  0.67319153264E+01 -0.57619640822E+01  0.99533047228E+01  0.13326184336E+02  0.00000000000E+00 0.  1.
          1    1    6    6  503    0 -0.57306952217E+01  0.20475327218E+03  0.34179077991E+03  0.39846917142E+03  0.00000000000E+00 0. -1.
         -1    1    6    6    0  503 -0.91406269999E+02  0.17054196532E+03  0.35271817866E+03  0.40230558247E+03  0.00000000000E+00 0.  1.
<mgrwt>
<rscale>  0 0.15284218E+04</rscale>
<asrwt>0</asrwt>
<pdfrwt beam="1">  1        2 0.47766280E+00 0.15284218E+04</pdfrwt>
<pdfrwt beam="2">  1       -2 0.28938653E-01 0.15284218E+04</pdfrwt>
<totfact> 0.15926320E+01</totfact>
</mgrwt>
</event>
<event>
12    3  0.4688899E-008  0.1749438E+04  0.7818608E-02  0.8733660E-01
          1   -1    0    0  501    0  0.00000000000E+00  0.00000000000E+00  0.17745017408E+04  0.17745017408E+04  0.00000000000E+00 0. -1.
         -1   -1    0    0    0  501 -0.00000000000E+00 -0.00000000000E+00 -0.43118192383E+03  0.43118192383E+03  0.00000000000E+00 0.  1.
         23    2    1    2    0    0 -0.42592103737E+03 -0.24180480912E+03 -0.21891470268E+02  0.49841242194E+03  0.89763077490E+02 0.  0.
        254    2    1    2    0    0  0.42592103737E+03  0.24180480912E+03  0.13652112873E+04  0.17072712427E+04  0.90060809541E+03 0.  0.
         23    2    4    4    0    0  0.39767335181E+03 -0.21291194501E+02  0.13678072037E+04  0.14275196815E+04  0.91205727866E+02 0.  0.
         23    2    4    4    0    0  0.28247685567E+02  0.26309600363E+03 -0.25959164742E+01  0.27975156120E+03  0.90756588458E+02 0.  0.
          4    1    3    3  502    0 -0.25617573667E+03 -0.10918200334E+03  0.19133896184E+02  0.27912868698E+03  0.00000000000E+00 0. -1.
         -4    1    3    3    0  502 -0.16974530070E+03 -0.13262280579E+03 -0.41025366452E+02  0.21928373496E+03  0.00000000000E+00 0.  1.
         13    1    5    5    0    0  0.21407259829E+03  0.16708175260E+02  0.85373804601E+03  0.88032658239E+03  0.00000000000E+00 0.  1.
        -13    1    5    5    0    0  0.18360075352E+03 -0.37999369761E+02  0.51406915773E+03  0.54719309912E+03  0.00000000000E+00 0. -1.
          1    1    6    6  503    0  0.98510247087E+00 -0.33538497855E+00 -0.14604100112E+02  0.14641128715E+02  0.00000000000E+00 0. -1.
         -1    1    6    6    0  503  0.27262583096E+02  0.26343138860E+03  0.12008183638E+02  0.26511043249E+03  0.00000000000E+00 0.  1.
<mgrwt>
<rscale>  0 0.17494377E+04</rscale>
<asrwt>0</asrwt>
<pdfrwt beam="1">  1        1 0.27300026E+00 0.17494377E+04</pdfrwt>
<pdfrwt beam="2">  1       -1 0.66335681E-01 0.17494377E+04</pdfrwt>
<totfact> 0.92530525E+00</totfact>
</mgrwt>
</event>
<event>
12    3  0.4688899E-008  0.1318795E+04  0.7818608E-02  0.9014792E-01
         -1   -1    0    0    0  501 -0.00000000000E+00  0.00000000000E+00  0.66856175270E+03  0.66856175270E+03  0.00000000000E+00 0.  1.
          1   -1    0    0  501    0  0.00000000000E+00 -0.00000000000E+00 -0.65035919581E+03  0.65035919581E+03  0.00000000000E+00 0. -1.
         23    2    1    2    0    0  0.40561308065E+02  0.10393031756E+03 -0.33253344917E+03  0.36254199170E+03  0.91714068208E+02 0.  0.
        254    2    1    2    0    0 -0.40561308065E+02 -0.10393031756E+03  0.35073600606E+03  0.95637895681E+03  0.88272205845E+03 0.  0.
         23    2    4    4    0    0 -0.21119047808E+03  0.32807002075E+03  0.25062416886E+03  0.47251727753E+03  0.90712441272E+02 0.  0.
         23    2    4    4    0    0  0.17062917001E+03 -0.43200033831E+03  0.10011183719E+03  0.48386167928E+03  0.91439262747E+02 0.  0.
          4    1    3    3  502    0  0.40958398811E+02  0.73415865806E+02 -0.31765495385E+03  0.32859115857E+03  0.00000000000E+00 0. -1.
         -4    1    3    3    0  502 -0.39709074597E+00  0.30514451756E+02 -0.14878495318E+02  0.33950833126E+02  0.00000000000E+00 0.  1.
         13    1    5    5    0    0 -0.20845834829E+03  0.33167476188E+03  0.25399213073E+03  0.46687796383E+03  0.00000000000E+00 0.  1.
        -13    1    5    5    0    0 -0.27321297924E+01 -0.36047411332E+01 -0.33679618676E+01  0.56393136977E+01  0.00000000000E+00 0. -1.
          3    1    6    6  503    0  0.31054675737E+02 -0.13668601860E+03 -0.63494875876E+01  0.14031313751E+03  0.00000000000E+00 0. -1.
         -3    1    6    6    0  503  0.13957449428E+03 -0.29531431971E+03  0.10646132478E+03  0.34354854177E+03  0.00000000000E+00 0.  1.
<mgrwt>
<rscale>  0 0.13187953E+04</rscale>
<asrwt>0</asrwt>
<pdfrwt beam="1">  1        1 0.10005526E+00 0.13187953E+04</pdfrwt>
<pdfrwt beam="2">  1       -1 0.10285565E+00 0.13187953E+04</pdfrwt>
<totfact> 0.26682158E+01</totfact>
</mgrwt>
</event>
<event>
12    3  0.4688899E-008  0.2775666E+04  0.7818608E-02  0.8310863E-01
         -2   -1    0    0    0  501 -0.00000000000E+00  0.00000000000E+00  0.82023295724E+03  0.82023295724E+03  0.00000000000E+00 0. -1.
          2   -1    0    0  501    0  0.00000000000E+00 -0.00000000000E+00 -0.23482118966E+04  0.23482118966E+04  0.00000000000E+00 0.  1.
         23    2    1    2    0    0  0.10873021704E+04 -0.60421226665E+03 -0.89053363412E+03  0.15325606409E+04  0.91615999813E+02 0.  0.
        254    2    1    2    0    0 -0.10873021704E+04  0.60421226665E+03 -0.63744530529E+03  0.16358842130E+04  0.84998951064E+03 0.  0.
         23    2    4    4    0    0 -0.90345100512E+02  0.33959159102E+03 -0.45956439217E+03  0.58518521629E+03  0.88077357630E+02 0.  0.
         23    2    4    4    0    0 -0.99695706992E+03  0.26462067563E+03 -0.17788091311E+03  0.10506989967E+04  0.91538304929E+02 0.  0.
          3    1    3    3  502    0  0.14864693526E+03 -0.10050699336E+03 -0.16430023517E+03  0.24329433687E+03  0.00000000000E+00 0. -1.
         -3    1    3    3    0  502  0.93865523517E+03 -0.50370527329E+03 -0.72623339896E+03  0.12892663040E+04  0.00000000000E+00 0.  1.
         13    1    5    5    0    0 -0.43301213818E+02  0.71200855353E+02 -0.15885376288E+03  0.17938526946E+03  0.00000000000E+00 0.  1.
        -13    1    5    5    0    0 -0.47043886695E+02  0.26839073567E+03 -0.30071062930E+03  0.40579994682E+03  0.00000000000E+00 0. -1.
          3    1    6    6  503    0 -0.91693209208E+03  0.21738661284E+03 -0.15516777785E+03  0.95503844959E+03  0.00000000000E+00 0. -1.
         -3    1    6    6    0  503 -0.80024977840E+02  0.47234062797E+02 -0.22713135261E+02  0.95660547144E+02  0.00000000000E+00 0.  1.
<mgrwt>
<rscale>  0 0.27756663E+04</rscale>
<asrwt>0</asrwt>
<pdfrwt beam="1">  1        2 0.36126337E+00 0.27756663E+04</pdfrwt>
<pdfrwt beam="2">  1       -2 0.12618969E+00 0.27756663E+04</pdfrwt>
<totfact> 0.17371314E+00</totfact>
</mgrwt>
</event>
<event>
12    3  0.4688899E-008  0.1676822E+04  0.7818608E-02  0.8774695E-01
          2   -1    0    0  501    0  0.00000000000E+00  0.00000000000E+00  0.13858272209E+04  0.13858272209E+04  0.00000000000E+00 0. -1.
         -2   -1    0    0    0  501 -0.00000000000E+00 -0.00000000000E+00 -0.50723004392E+03  0.50723004392E+03  0.00000000000E+00 0.  1.
         23    2    1    2    0    0  0.51004252527E+03  0.18390313152E+03  0.65897140209E+02  0.55372602541E+03  0.91139117614E+02 0.  0.
        254    2    1    2    0    0 -0.51004252527E+03 -0.18390313152E+03  0.81270003681E+03  0.13393312395E+04  0.91616760463E+03 0.  0.
         23    2    4    4    0    0  0.53887118700E+02 -0.19031540316E+03 -0.11734063771E+03  0.24783372917E+03  0.92352356847E+02 0.  0.
         23    2    4    4    0    0 -0.56392964397E+03  0.64122716372E+01  0.93004067452E+03  0.10914975103E+04  0.91287447743E+02 0.  0.
          2    1    3    3  502    0  0.40273743238E+02  0.22704492452E+02 -0.18782286025E+02  0.49902331010E+02  0.00000000000E+00 0. -1.
         -2    1    3    3    0  502  0.46976878203E+03  0.16119863907E+03  0.84679426235E+02  0.50382369440E+03  0.00000000000E+00 0.  1.
         13    1    5    5    0    0  0.55312295868E+02 -0.66024024509E+02 -0.81234847284E+02  0.11839646236E+03  0.00000000000E+00 0.  1.
        -13    1    5    5    0    0 -0.14251771688E+01 -0.12429137865E+03 -0.36105790425E+02  0.12943726681E+03  0.00000000000E+00 0. -1.
          3    1    6    6  503    0 -0.27786562851E+03  0.30793480688E-02  0.54536056739E+03  0.61206817920E+03  0.00000000000E+00 0. -1.
         -3    1    6    6    0  503 -0.28606401546E+03  0.64091922891E+01  0.38468010713E+03  0.47942933109E+03  0.00000000000E+00 0.  1.
<mgrwt>
<rscale>  0 0.16768222E+04</rscale>
<asrwt>0</asrwt>
<pdfrwt beam="1">  1        2 0.21320419E+00 0.16768222E+04</pdfrwt>
<pdfrwt beam="2">  1       -2 0.78035392E-01 0.16768222E+04</pdfrwt>
<totfact> 0.20544258E+01</totfact>
</mgrwt>
</event>
<event>
12    3  0.4688899E-008  0.1903750E+04  0.7818608E-02  0.8652992E-01
         -1   -1    0    0    0  501 -0.00000000000E+00  0.00000000000E+00  0.39614580840E+03  0.39614580840E+03  0.00000000000E+00 0.  1.
          1   -1    0    0  501    0  0.00000000000E+00 -0.00000000000E+00 -0.22872030737E+04  0.22872030737E+04  0.00000000000E+00 0. -1.
         23    2    1    2    0    0 -0.68583011481E+03 -0.23054796139E+03 -0.92237100693E+03  0.11759960596E+04  0.93183415553E+02 0.  0.
        254    2    1    2    0    0  0.68583011481E+03  0.23054796139E+03 -0.96868625832E+03  0.15073528224E+04  0.90013563166E+03 0.  0.
         23    2    4    4    0    0  0.63103110890E+03 -0.20423135042E+03 -0.75868658625E+03  0.10119239844E+04  0.92054924225E+02 0.  0.
         23    2    4    4    0    0  0.54799005909E+02  0.43477931181E+03 -0.20999967207E+03  0.49542883808E+03  0.96508498604E+02 0.  0.
          3    1    3    3  502    0 -0.20543753496E+03 -0.50881108901E+02 -0.33453472653E+03  0.39586228827E+03  0.00000000000E+00 0. -1.
         -3    1    3    3    0  502 -0.48039257985E+03 -0.17966685249E+03 -0.58783628040E+03  0.78013377135E+03  0.00000000000E+00 0.  1.
         13    1    5    5    0    0  0.95038581815E+02 -0.58163557283E+01 -0.14348913921E+03  0.17220712847E+03  0.00000000000E+00 0. -1.
        -13    1    5    5    0    0  0.53599252709E+03 -0.19841499469E+03 -0.61519744705E+03  0.83971685589E+03  0.00000000000E+00 0.  1.
          4    1    6    6  503    0  0.18776344375E+02  0.32908894955E+03 -0.19441227612E+03  0.38268553792E+03  0.00000000000E+00 0.  1.
         -4    1    6    6    0  503  0.36022661534E+02  0.10569036226E+03 -0.15587395947E+02  0.11274330016E+03  0.00000000000E+00 0. -1.
<mgrwt>
<rscale>  0 0.19037499E+04</rscale>
<asrwt>0</asrwt>
<pdfrwt beam="1">  1        1 0.35187739E+00 0.19037499E+04</pdfrwt>
<pdfrwt beam="2">  1       -1 0.60945511E-01 0.19037499E+04</pdfrwt>
<totfact> 0.48515546E+00</totfact>
</mgrwt>
</event>
<event>
12    3  0.4688899E-008  0.2669825E+04  0.7818608E-02  0.8344862E-01
         -1   -1    0    0    0  501 -0.00000000000E+00  0.00000000000E+00  0.11102663354E+04  0.11102663354E+04  0.00000000000E+00 0.  1.
          1   -1    0    0  501    0  0.00000000000E+00 -0.00000000000E+00 -0.16050129386E+04  0.16050129386E+04  0.00000000000E+00 0. -1.
         23    2    1    2    0    0 -0.53278170779E+03 -0.10196263488E+04 -0.48461803249E+03  0.12516481513E+04  0.90962728018E+02 0.  0.
        254    2    1    2    0    0  0.53278170779E+03  0.10196263488E+04 -0.10128570715E+02  0.14636311228E+04  0.90477579342E+03 0.  0.
         23    2    4    4    0    0 -0.10815971329E+03  0.19263485418E+03 -0.29052291200E+03  0.37740870674E+03  0.96057581178E+02 0.  0.
         23    2    4    4    0    0  0.64094142108E+03  0.82699149458E+03  0.28039434128E+03  0.10862224160E+04  0.80853652339E+02 0.  0.
          2    1    3    3  502    0 -0.48495060644E+03 -0.97066489346E+03 -0.44687123296E+03  0.11734825627E+04  0.00000000000E+00 0.  1.
         -2    1    3    3    0  502 -0.47831101355E+02 -0.48961455296E+02 -0.37746799534E+02  0.78165588571E+02  0.00000000000E+00 0. -1.
         13    1    5    5    0    0 -0.10059971433E+03  0.10644253543E+03 -0.13373578676E+03  0.19833198565E+03  0.00000000000E+00 0. -1.
        -13    1    5    5    0    0 -0.75599989674E+01  0.86192318741E+02 -0.15678712524E+03  0.17907672108E+03  0.00000000000E+00 0.  1.
          3    1    6    6  503    0  0.58167080461E+03  0.77373890412E+03  0.27529522214E+03  0.10063797872E+04  0.00000000000E+00 0.  1.
         -3    1    6    6    0  503  0.59270616471E+02  0.53252590455E+02  0.50991191402E+01  0.79842628858E+02  0.00000000000E+00 0. -1.
<mgrwt>
<rscale>  0 0.26698253E+04</rscale>
<asrwt>0</asrwt>
<pdfrwt beam="1">  1        1 0.24692507E+00 0.26698253E+04</pdfrwt>
<pdfrwt beam="2">  1       -1 0.17081021E+00 0.26698253E+04</pdfrwt>
<totfact> 0.11763228E+00</totfact>
</mgrwt>
</event>
<event>
12    3  0.4688899E-008  0.1737823E+04  0.7818608E-02  0.8740082E-01
         -2   -1    0    0    0  501 -0.00000000000E+00  0.00000000000E+00  0.16383820362E+04  0.16383820362E+04  0.00000000000E+00 0. -1.
          2   -1    0    0  501    0  0.00000000000E+00 -0.00000000000E+00 -0.46082497236E+03  0.46082497236E+03  0.00000000000E+00 0.  1.
         23    2    1    2    0    0 -0.41164360274E+03 -0.25577423067E+03  0.10288630840E+04  0.11411631997E+04  0.93932368604E+02 0.  0.
        254    2    1    2    0    0  0.41164360274E+03  0.25577423067E+03  0.14869397982E+03  0.95804380888E+03  0.81293734528E+03 0.  0.
         23    2    4    4    0    0  0.45781033096E+03  0.44081177525E+03 -0.81281131430E+02  0.64644513014E+03  0.85903222359E+02 0.  0.
         23    2    4    4    0    0 -0.46166728224E+02 -0.18503754458E+03  0.22997511125E+03  0.31159867875E+03  0.88515112284E+02 0.  0.
          2    1    3    3  502    0 -0.39007474562E+03 -0.22548178819E+03  0.89191473055E+03  0.99925583838E+03  0.00000000000E+00 0. -1.
         -2    1    3    3    0  502 -0.21568857119E+02 -0.30292442489E+02  0.13694835346E+03  0.14190736128E+03  0.00000000000E+00 0.  1.
         13    1    5    5    0    0  0.68696379935E+02  0.81121133640E+02 -0.44618095935E+02  0.11528488810E+03  0.00000000000E+00 0.  1.
        -13    1    5    5    0    0  0.38911395103E+03  0.35969064161E+03 -0.36663035496E+02  0.53116024204E+03  0.00000000000E+00 0. -1.
          3    1    6    6  503    0 -0.62265959731E+02 -0.18017178876E+03  0.19450770420E+03  0.27234568144E+03  0.00000000000E+00 0. -1.
         -3    1    6    6    0  503  0.16099231507E+02 -0.48657558244E+01  0.35467407048E+02  0.39252997307E+02  0.00000000000E+00 0.  1.
<mgrwt>
<rscale>  0 0.17378232E+04</rscale>
<asrwt>0</asrwt>
<pdfrwt beam="1">  1        2 0.70896150E-01 0.17378232E+04</pdfrwt>
<pdfrwt beam="2">  1       -2 0.25205877E+00 0.17378232E+04</pdfrwt>
<totfact> 0.40077521E+00</totfact>
</mgrwt>
</event>
<event>
12    3  0.4688899E-008  0.2594404E+04  0.7818608E-02  0.8370104E-01
         -2   -1    0    0    0  501 -0.00000000000E+00  0.00000000000E+00  0.79665866823E+03  0.79665866823E+03  0.00000000000E+00 0.  1.
          2   -1    0    0  501    0  0.00000000000E+00 -0.00000000000E+00 -0.21122390251E+04  0.21122390251E+04  0.00000000000E+00 0. -1.
         23    2    1    2    0    0 -0.76636780653E+03  0.57763708914E+03 -0.12769775142E+04  0.16000291387E+04  0.91855599270E+02 0.  0.
        254    2    1    2    0    0  0.76636780653E+03 -0.57763708914E+03 -0.38602842691E+02  0.13088685547E+04  0.88919204470E+03 0.  0.
         23    2    4    4    0    0  0.33141297655E+03 -0.53363618819E+03 -0.38636528259E+03  0.74285630899E+03  0.89192050335E+02 0.  0.
         23    2    4    4    0    0  0.43495482998E+03 -0.44000900951E+02  0.34776243990E+03  0.56601224570E+03  0.91155714394E+02 0.  0.
          1    1    3    3  502    0 -0.50496177614E+03  0.38957587813E+03 -0.77564834575E+03  0.10041843040E+04  0.00000000000E+00 0. -1.
         -1    1    3    3    0  502 -0.26140603039E+03  0.18806121101E+03 -0.50132916845E+03  0.59584483463E+03  0.00000000000E+00 0.  1.
         13    1    5    5    0    0  0.18131205388E+03 -0.27272596109E+03 -0.15037278305E+03  0.36036853999E+03  0.00000000000E+00 0.  1.
        -13    1    5    5    0    0  0.15010092267E+03 -0.26091022710E+03 -0.23599249955E+03  0.38248776900E+03  0.00000000000E+00 0. -1.
          4    1    6    6  503    0  0.36644316709E+03 -0.39108392340E+02  0.33090911088E+03  0.49528870441E+03  0.00000000000E+00 0. -1.
         -4    1    6    6    0  503  0.68511662897E+02 -0.48925086114E+01  0.16853329026E+02  0.70723541291E+02  0.00000000000E+00 0.  1.
<mgrwt>
<rscale>  0 0.25944044E+04</rscale>
<asrwt>0</asrwt>
<pdfrwt beam="1">  1        2 0.32495985E+00 0.25944044E+04</pdfrwt>
<pdfrwt beam="2">  1       -2 0.12256287E+00 0.25944044E+04</pdfrwt>
<totfact> 0.25783325E+00</totfact>
</mgrwt>
</event>
<event>
12    3  0.4688899E-008  0.1379252E+04  0.7818608E-02  0.8968975E-01
          1   -1    0    0  501    0  0.00000000000E+00  0.00000000000E+00  0.74370768674E+03  0.74370768674E+03  0.00000000000E+00 0. -1.
         -1   -1    0    0    0  501 -0.00000000000E+00 -0.00000000000E+00 -0.63947725352E+03  0.63947725352E+03  0.00000000000E+00 0.  1.
         23    2    1    2    0    0  0.24501797966E+03  0.29863967065E+03  0.56995725684E+02  0.40103221537E+03  0.91426811044E+02 0.  0.
        254    2    1    2    0    0 -0.24501797966E+03 -0.29863967065E+03  0.47234707543E+02  0.98215272489E+03  0.90176127339E+03 0.  0.
         23    2    4    4    0    0 -0.21151024244E+03 -0.57142234008E+03 -0.14757825049E+03  0.63322648234E+03  0.89086275742E+02 0.  0.
         23    2    4    4    0    0 -0.33507737217E+02  0.27278266943E+03  0.19481295803E+03  0.34892624255E+03  0.90908090558E+02 0.  0.
          3    1    3    3  502    0  0.16424272682E+02 -0.25090285021E+01  0.11537189990E+02  0.20227671888E+02  0.00000000000E+00 0. -1.
         -3    1    3    3    0  502  0.22859370698E+03  0.30114869915E+03  0.45458535694E+02  0.38080454348E+03  0.00000000000E+00 0.  1.
         13    1    5    5    0    0 -0.99113905123E+02 -0.15175790427E+03 -0.38875355452E+02  0.18537885791E+03  0.00000000000E+00 0. -1.
        -13    1    5    5    0    0 -0.11239633732E+03 -0.41966443580E+03 -0.10870289504E+03  0.44784762443E+03  0.00000000000E+00 0.  1.
          4    1    6    6  503    0  0.85433105960E+01  0.42530679394E+02 -0.15469886434E+01  0.43407833619E+02  0.00000000000E+00 0. -1.
         -4    1    6    6    0  503 -0.42051047813E+02  0.23025199004E+03  0.19635994668E+03  0.30551840893E+03  0.00000000000E+00 0.  1.
<mgrwt>
<rscale>  0 0.13792522E+04</rscale>
<asrwt>0</asrwt>
<pdfrwt beam="1">  1        1 0.11441657E+00 0.13792522E+04</pdfrwt>
<pdfrwt beam="2">  1       -1 0.98381116E-01 0.13792522E+04</pdfrwt>
<totfact> 0.23988298E+01</totfact>
</mgrwt>
</event>
<event>
12    3  0.4688899E-008  0.1401173E+04  0.7818608E-02  0.8952970E-01
          2   -1    0    0  501    0  0.00000000000E+00  0.00000000000E+00  0.67862237278E+03  0.67862237278E+03  0.00000000000E+00 0. -1.
         -2   -1    0    0    0  501 -0.00000000000E+00 -0.00000000000E+00 -0.72326142187E+03  0.72326142187E+03  0.00000000000E+00 0.  1.
         23    2    1    2    0    0 -0.28433236663E+03 -0.31671803570E+03  0.69571636677E+02  0.44083163354E+03  0.91307763359E+02 0.  0.
        254    2    1    2    0    0  0.28433236663E+03  0.31671803570E+03 -0.11421068576E+03  0.96105216111E+03  0.85406203918E+03 0.  0.
         23    2    4    4    0    0 -0.25105073102E+03 -0.51017259194E+02  0.67096269516E+02  0.28061888196E+03  0.92821426661E+02 0.  0.
         23    2    4    4    0    0  0.53538309765E+03  0.36773529489E+03 -0.18130695528E+03  0.68043327915E+03  0.90845621719E+02 0.  0.
          2    1    3    3  502    0 -0.40497559420E+02 -0.30348332812E+02 -0.19633400413E+02  0.54282078398E+02  0.00000000000E+00 0. -1.
         -2    1    3    3    0  502 -0.24383480721E+03 -0.28636970289E+03  0.89205037089E+02  0.38654955514E+03  0.00000000000E+00 0.  1.
         13    1    5    5    0    0 -0.16266646860E+02 -0.32494427998E+02  0.25887046372E+01  0.36430660750E+02  0.00000000000E+00 0. -1.
        -13    1    5    5    0    0 -0.23478408416E+03 -0.18522831196E+02  0.64507564879E+02  0.24418822121E+03  0.00000000000E+00 0.  1.
          2    1    6    6  503    0  0.41148972983E+01  0.14727977869E+02 -0.14622585230E+02  0.21158112172E+02  0.00000000000E+00 0. -1.
         -2    1    6    6    0  503  0.53126820035E+03  0.35300731702E+03 -0.16668437005E+03  0.65927516698E+03  0.00000000000E+00 0.  1.
<mgrwt>
<rscale>  0 0.14011729E+04</rscale>
<asrwt>0</asrwt>
<pdfrwt beam="1">  1        2 0.10440344E+00 0.14011729E+04</pdfrwt>
<pdfrwt beam="2">  1       -2 0.11127099E+00 0.14011729E+04</pdfrwt>
<totfact> 0.26497113E+01</totfact>
</mgrwt>
</event>
<event>
12    3  0.4688899E-008  0.1874418E+04  0.7818608E-02  0.8667696E-01
          2   -1    0    0  501    0  0.00000000000E+00  0.00000000000E+00  0.84972428701E+03  0.84972428701E+03  0.00000000000E+00 0. -1.
         -2   -1    0    0    0  501 -0.00000000000E+00 -0.00000000000E+00 -0.10337011300E+04  0.10337011300E+04  0.00000000000E+00 0.  1.
         23    2    1    2    0    0  0.51003279683E+03  0.39808993470E+03 -0.37899940070E+03  0.75603980796E+03  0.96677792334E+02 0.  0.
        254    2    1    2    0    0 -0.51003279683E+03 -0.39808993470E+03  0.19502255767E+03  0.11273856091E+04  0.90241645799E+03 0.  0.
         23    2    4    4    0    0  0.24131359414E+03 -0.17281140112E+03  0.12658684694E+03  0.33517353679E+03  0.90669944694E+02 0.  0.
         23    2    4    4    0    0 -0.75134639097E+03 -0.22527853358E+03  0.68435710722E+02  0.79221207231E+03  0.87433998536E+02 0.  0.
          1    1    3    3  502    0  0.31555750417E+03  0.18542799789E+03 -0.21271359805E+03  0.42332866149E+03  0.00000000000E+00 0. -1.
         -1    1    3    3    0  502  0.19447529266E+03  0.21266193681E+03 -0.16628580266E+03  0.33271114647E+03  0.00000000000E+00 0.  1.
         13    1    5    5    0    0  0.18468086416E+03 -0.12625446024E+03  0.13514203428E+03  0.26136292726E+03  0.00000000000E+00 0. -1.
        -13    1    5    5    0    0  0.56632729972E+02 -0.46556940877E+02 -0.85551873312E+01  0.73810609523E+02  0.00000000000E+00 0.  1.
          4    1    6    6  503    0 -0.70054877723E+03 -0.20376060175E+03  0.41340936552E+02  0.73075033023E+03  0.00000000000E+00 0. -1.
         -4    1    6    6    0  503 -0.50797613741E+02 -0.21517931826E+02  0.27094774169E+02  0.61461742077E+02  0.00000000000E+00 0.  1.
<mgrwt>
<rscale>  0 0.18744183E+04</rscale>
<asrwt>0</asrwt>
<pdfrwt beam="1">  1        2 0.13072681E+00 0.18744183E+04</pdfrwt>
<pdfrwt beam="2">  1       -2 0.15903094E+00 0.18744183E+04</pdfrwt>
<totfact> 0.76286376E+00</totfact>
</mgrwt>
</event>
<event>
12    3  0.4688899E-008  0.2362702E+04  0.7818608E-02  0.8453601E-01
         -1   -1    0    0    0  501 -0.00000000000E+00  0.00000000000E+00  0.22330217010E+04  0.22330217010E+04  0.00000000000E+00 0.  1.
          1   -1    0    0  501    0  0.00000000000E+00 -0.00000000000E+00 -0.62497857601E+03  0.62497857601E+03  0.00000000000E+00 0. -1.
         23    2    1    2    0    0 -0.14868688288E+02  0.93268572287E+03  0.28425777199E+03  0.98032409733E+03  0.10054411639E+03 0.  0.
        254    2    1    2    0    0  0.14868688288E+02 -0.93268572287E+03  0.13237853530E+04  0.18776761797E+04  0.95033490904E+03 0.  0.
         23    2    4    4    0    0 -0.43244719229E+03 -0.52263457469E+03  0.90562993323E+03  0.11352384840E+04  0.91887795095E+02 0.  0.
         23    2    4    4    0    0  0.44731588058E+03 -0.41005114818E+03  0.41815541977E+03  0.74243769563E+03  0.90146190568E+02 0.  0.
          4    1    3    3  502    0 -0.57929802143E+02  0.58180975747E+03  0.17472639616E+03  0.61023583095E+03  0.00000000000E+00 0. -1.
         -4    1    3    3    0  502  0.43061113855E+02  0.35087596540E+03  0.10953137582E+03  0.37008826638E+03  0.00000000000E+00 0.  1.
         13    1    5    5    0    0 -0.21760569490E+03 -0.33110896743E+03  0.50277162320E+03  0.64012865258E+03  0.00000000000E+00 0.  1.
        -13    1    5    5    0    0 -0.21484149739E+03 -0.19152560726E+03  0.40285831003E+03  0.49510983145E+03  0.00000000000E+00 0. -1.
          3    1    6    6  503    0  0.44339715067E+03 -0.38831893957E+03  0.39039764266E+03  0.70696743308E+03  0.00000000000E+00 0. -1.
         -3    1    6    6    0  503  0.39187299130E+01 -0.21732208606E+02  0.27757777115E+02  0.35470262551E+02  0.00000000000E+00 0.  1.
<mgrwt>
<rscale>  0 0.23627025E+04</rscale>
<asrwt>0</asrwt>
<pdfrwt beam="1">  1        1 0.96150551E-01 0.23627025E+04</pdfrwt>
<pdfrwt beam="2">  1       -1 0.34354180E+00 0.23627025E+04</pdfrwt>
<totfact> 0.49769148E-01</totfact>
</mgrwt>
</event>
<event>
12    3  0.4688899E-008  0.1616351E+04  0.7818608E-02  0.8810565E-01
          1   -1    0    0  501    0  0.00000000000E+00  0.00000000000E+00  0.17886980969E+04  0.17886980969E+04  0.00000000000E+00 0. -1.
         -1   -1    0    0    0  501 -0.00000000000E+00 -0.00000000000E+00 -0.36515256979E+03  0.36515256979E+03  0.00000000000E+00 0.  1.
         23    2    1    2    0    0 -0.49879149780E+03 -0.75506857846E+02  0.79659709342E+03  0.94734799186E+03  0.91689937174E+02 0.  0.
        254    2    1    2    0    0  0.49879149780E+03  0.75506857846E+02  0.62694843371E+03  0.12065026748E+04  0.89893833049E+03 0.  0.
         23    2    4    4    0    0  0.44719849965E+03  0.19343989061E+03  0.81939879315E+03  0.95787421771E+03  0.93290649956E+02 0.  0.
         23    2    4    4    0    0  0.51592998148E+02 -0.11793303277E+03 -0.19245035944E+03  0.24862845714E+03  0.90603152142E+02 0.  0.
          1    1    3    3  502    0 -0.38515580861E+03 -0.76060621416E+02  0.67536384698E+03  0.78118278325E+03  0.00000000000E+00 0. -1.
         -1    1    3    3    0  502 -0.11363568918E+03  0.55376356923E+00  0.12123324645E+03  0.16616520862E+03  0.00000000000E+00 0.  1.
         13    1    5    5    0    0  0.16954906080E+03  0.27088390708E+02  0.25974900828E+03  0.31136829034E+03  0.00000000000E+00 0.  1.
        -13    1    5    5    0    0  0.27764943884E+03  0.16635149990E+03  0.55964978487E+03  0.64650592737E+03  0.00000000000E+00 0. -1.
          1    1    6    6  503    0  0.44536674839E+02 -0.11989607873E+03 -0.20045216373E+03  0.23778068686E+03  0.00000000000E+00 0. -1.
         -1    1    6    6    0  503  0.70563233089E+01  0.19630459604E+01  0.80018042948E+01  0.10847770280E+02  0.00000000000E+00 0.  1.
<mgrwt>
<rscale>  0 0.16163511E+04</rscale>
<asrwt>0</asrwt>
<pdfrwt beam="1">  1        1 0.27518432E+00 0.16163511E+04</pdfrwt>
<pdfrwt beam="2">  1       -1 0.56177319E-01 0.16163511E+04</pdfrwt>
<totfact> 0.12740758E+01</totfact>
</mgrwt>
</event>
<event>
12    3  0.4688899E-008  0.1067234E+04  0.7818608E-02  0.9237730E-01
          1   -1    0    0  501    0  0.00000000000E+00  0.00000000000E+00  0.71260926491E+03  0.71260926491E+03  0.00000000000E+00 0. -1.
         -1   -1    0    0    0  501 -0.00000000000E+00 -0.00000000000E+00 -0.39958363120E+03  0.39958363120E+03  0.00000000000E+00 0.  1.
         23    2    1    2    0    0 -0.46805853176E+02 -0.99776111416E+02 -0.49323376688E+01  0.14269732726E+03  0.90510435593E+02 0.  0.
        254    2    1    2    0    0  0.46805853176E+02  0.99776111416E+02  0.31795797138E+03  0.96949556886E+03  0.90921852498E+03 0.  0.
         23    2    4    4    0    0 -0.12211331308E+03  0.12835625619E+03  0.59751489131E+03  0.62992701612E+03  0.91635203726E+02 0.  0.
         23    2    4    4    0    0  0.16891916625E+03 -0.28580144775E+02 -0.27955691993E+03  0.33956855274E+03  0.88341502844E+02 0.  0.
          1    1    3    3  502    0 -0.32056600582E+02 -0.26582730604E+02  0.38164739873E+02  0.56487295712E+02  0.00000000000E+00 0. -1.
         -1    1    3    3    0  502 -0.14749252593E+02 -0.73193380811E+02 -0.43097077542E+02  0.86210031547E+02  0.00000000000E+00 0.  1.
         13    1    5    5    0    0  0.86557634392E+01  0.41308736633E+02  0.13718037946E+03  0.14352627101E+03  0.00000000000E+00 0. -1.
        -13    1    5    5    0    0 -0.13076907652E+03  0.87047519558E+02  0.46033451186E+03  0.48640074511E+03  0.00000000000E+00 0.  1.
          3    1    6    6  503    0  0.77542749597E+01  0.17936844771E+02 -0.96774309332E+01  0.21806234199E+02  0.00000000000E+00 0. -1.
         -3    1    6    6    0  503  0.16116489129E+03 -0.46516989546E+02 -0.26987948900E+03  0.31776231854E+03  0.00000000000E+00 0.  1.
<mgrwt>
<rscale>  0 0.10672338E+04</rscale>
<asrwt>0</asrwt>
<pdfrwt beam="1">  1        1 0.10963219E+00 0.10672338E+04</pdfrwt>
<pdfrwt beam="2">  1       -1 0.61474405E-01 0.10672338E+04</pdfrwt>
<totfact> 0.71060006E+01</totfact>
</mgrwt>
</event>
<event>
12    3  0.4688899E-008  0.1422460E+04  0.7818608E-02  0.8937719E-01
          1   -1    0    0  501    0  0.00000000000E+00  0.00000000000E+00  0.32504951823E+04  0.32504951823E+04  0.00000000000E+00 0. -1.
         -1   -1    0    0    0  501 -0.00000000000E+00 -0.00000000000E+00 -0.15562187015E+03  0.15562187015E+03  0.00000000000E+00 0.  1.
         23    2    1    2    0    0 -0.18407538556E+03  0.30534950573E+03  0.14959322158E+04  0.15404179537E+04  0.89175161020E+02 0.  0.
        254    2    1    2    0    0  0.18407538556E+03 -0.30534950573E+03  0.15989410963E+04  0.18656990988E+04  0.89280369038E+03 0.  0.
         23    2    4    4    0    0 -0.17669245244E+03  0.22400270031E+03  0.66262961799E+03  0.72741367014E+03  0.93033350874E+02 0.  0.
         23    2    4    4    0    0  0.36076783800E+03 -0.52935220604E+03  0.93631147830E+03  0.11382854286E+04  0.92991083824E+02 0.  0.
          3    1    3    3  502    0 -0.94900544956E+02  0.12820321326E+03  0.49630648396E+03  0.52130826135E+03  0.00000000000E+00 0. -1.
         -3    1    3    3    0  502 -0.89174840604E+02  0.17714629246E+03  0.99962573188E+03  0.10191096923E+04  0.00000000000E+00 0.  1.
         13    1    5    5    0    0 -0.94824213203E+02  0.53154062700E+02  0.28241375165E+03  0.30261281022E+03  0.00000000000E+00 0. -1.
        -13    1    5    5    0    0 -0.81868239241E+02  0.17084863761E+03  0.38021586634E+03  0.42480085992E+03  0.00000000000E+00 0.  1.
          2    1    6    6  503    0  0.23662094128E+03 -0.27667639773E+03  0.56889061704E+03  0.67540790125E+03  0.00000000000E+00 0. -1.
         -2    1    6    6    0  503  0.12414689672E+03 -0.25267580831E+03  0.36742086127E+03  0.46287752739E+03  0.00000000000E+00 0.  1.
<mgrwt>
<rscale>  0 0.14224600E+04</rscale>
<asrwt>0</asrwt>
<pdfrwt beam="1">  1        1 0.50007613E+00 0.14224600E+04</pdfrwt>
<pdfrwt beam="2">  1       -1 0.23941829E-01 0.14224600E+04</pdfrwt>
<totfact> 0.57774408E+00</totfact>
</mgrwt>
</event>
<event>
12    3  0.4688899E-008  0.1524506E+04  0.7818608E-02  0.8868318E-01
         -2   -1    0    0    0  501 -0.00000000000E+00  0.00000000000E+00  0.34578344540E+03  0.34578344540E+03  0.00000000000E+00 0.  1.
          2   -1    0    0  501    0  0.00000000000E+00 -0.00000000000E+00 -0.16803274281E+04  0.16803274281E+04  0.00000000000E+00 0. -1.
         23    2    1    2    0    0 -0.45364885254E+03  0.15262734911E+03 -0.39440164283E+03  0.62613184318E+03  0.86000232905E+02 0.  0.
        254    2    1    2    0    0  0.45364885254E+03 -0.15262734911E+03 -0.94014233985E+03  0.13999790303E+04  0.92031585721E+03 0.  0.
         23    2    4    4    0    0  0.39867839561E+03 -0.17740366084E+03 -0.11109770278E+04  0.11967416868E+04  0.86626708515E+02 0.  0.
         23    2    4    4    0    0  0.54970456927E+02  0.24776311732E+02  0.17083468793E+03  0.20323734353E+03  0.92115744854E+02 0.  0.
          1    1    3    3  502    0 -0.16474572918E+03  0.45293588007E+02 -0.90691460473E+02  0.19343630838E+03  0.00000000000E+00 0.  1.
         -1    1    3    3    0  502 -0.28890312336E+03  0.10733376111E+03 -0.30371018236E+03  0.43269553479E+03  0.00000000000E+00 0. -1.
         13    1    5    5    0    0  0.33000078125E+03 -0.16902102706E+03 -0.99316978921E+03  0.10601202071E+04  0.00000000000E+00 0. -1.
        -13    1    5    5    0    0  0.68677614360E+02 -0.83826337866E+01 -0.11780723857E+03  0.13662147972E+03  0.00000000000E+00 0.  1.
          2    1    6    6  503    0 -0.24840762975E+02  0.12404018662E+02  0.59847623569E+02  0.65974701447E+02  0.00000000000E+00 0.  1.
         -2    1    6    6    0  503  0.79811219902E+02  0.12372293070E+02  0.11098706436E+03  0.13726264209E+03  0.00000000000E+00 0. -1.
<mgrwt>
<rscale>  0 0.15245057E+04</rscale>
<asrwt>0</asrwt>
<pdfrwt beam="1">  1        2 0.25851191E+00 0.15245057E+04</pdfrwt>
<pdfrwt beam="2">  1       -2 0.53197453E-01 0.15245057E+04</pdfrwt>
<totfact> 0.32310049E+01</totfact>
</mgrwt>
</event>
<event>
12    3  0.4688899E-008  0.2384629E+04  0.7818608E-02  0.8445281E-01
          2   -1    0    0  501    0  0.00000000000E+00  0.00000000000E+00  0.17911178732E+04  0.17911178732E+04  0.00000000000E+00 0. -1.
         -2   -1    0    0    0  501 -0.00000000000E+00 -0.00000000000E+00 -0.79370200225E+03  0.79370200225E+03  0.00000000000E+00 0.  1.
         23    2    1    2    0    0 -0.54644008904E+03 -0.28974957300E+03  0.12972272298E+04  0.14400232875E+04  0.91197570331E+02 0.  0.
        254    2    1    2    0    0  0.54644008904E+03  0.28974957300E+03 -0.29981135880E+03  0.11447965880E+04  0.91548937246E+03 0.  0.
         23    2    4    4    0    0  0.71046857339E+03  0.45169019521E+03 -0.29452763680E+03  0.89655669177E+03  0.90982121842E+02 0.  0.
         23    2    4    4    0    0 -0.16402848435E+03 -0.16194062222E+03 -0.52837220003E+01  0.24823989624E+03  0.92005540947E+02 0.  0.
          3    1    3    3  502    0 -0.37550421034E+03 -0.18330692694E+03  0.96418585091E+03  0.10508373787E+04  0.00000000000E+00 0. -1.
         -3    1    3    3    0  502 -0.17093587870E+03 -0.10644264605E+03  0.33304137888E+03  0.38918590876E+03  0.00000000000E+00 0.  1.
         13    1    5    5    0    0  0.23034135605E+03  0.19715295592E+03 -0.96656154242E+02  0.31822765513E+03  0.00000000000E+00 0. -1.
        -13    1    5    5    0    0  0.48012721733E+03  0.25453723930E+03 -0.19787148255E+03  0.57832903664E+03  0.00000000000E+00 0.  1.
          2    1    6    6  503    0 -0.14132205974E+02 -0.71859384952E+02  0.10579334994E+01  0.73243495784E+02  0.00000000000E+00 0. -1.
         -2    1    6    6    0  503 -0.14989627837E+03 -0.90081237266E+02 -0.63416554997E+01  0.17499640046E+03  0.00000000000E+00 0.  1.
<mgrwt>
<rscale>  0 0.23846290E+04</rscale>
<asrwt>0</asrwt>
<pdfrwt beam="1">  1        2 0.27555659E+00 0.23846290E+04</pdfrwt>
<pdfrwt beam="2">  1       -2 0.12210800E+00 0.23846290E+04</pdfrwt>
<totfact> 0.39955743E+00</totfact>
</mgrwt>
</event>
<event>
12    3  0.4688899E-008  0.1644166E+04  0.7818608E-02  0.8793865E-01
          1   -1    0    0  501    0  0.00000000000E+00  0.00000000000E+00  0.84575431095E+03  0.84575431095E+03  0.00000000000E+00 0. -1.
         -1   -1    0    0    0  501 -0.00000000000E+00 -0.00000000000E+00 -0.79907446635E+03  0.79907446635E+03  0.00000000000E+00 0.  1.
         23    2    1    2    0    0 -0.37288231987E+03 -0.37468454452E+03 -0.17316545466E+03  0.56412527081E+03  0.93921851050E+02 0.  0.
        254    2    1    2    0    0  0.37288231987E+03  0.37468454452E+03  0.21984529925E+03  0.10807035065E+04  0.91660153881E+03 0.  0.
         23    2    4    4    0    0 -0.10289064835E+03 -0.20385853282E+03 -0.94490422041E+02  0.26291743028E+03  0.89734878206E+02 0.  0.
         23    2    4    4    0    0  0.47577296822E+03  0.57854307734E+03  0.31433572129E+03  0.81778607621E+03  0.94313896856E+02 0.  0.
          1    1    3    3  502    0 -0.67584569480E+02 -0.30888131258E+02 -0.44753415588E+02  0.86744561163E+02  0.00000000000E+00 0. -1.
         -1    1    3    3    0  502 -0.30529775039E+03 -0.34379641326E+03 -0.12841203907E+03  0.47738070965E+03  0.00000000000E+00 0.  1.
         13    1    5    5    0    0 -0.11112642504E+03 -0.20454764935E+03 -0.79838790853E+02  0.24609562313E+03  0.00000000000E+00 0. -1.
        -13    1    5    5    0    0  0.82357766912E+01  0.68911653611E+00 -0.14651631188E+02  0.16821807150E+02  0.00000000000E+00 0.  1.
          2    1    6    6  503    0  0.22443613815E+03  0.27074138426E+03  0.96760863146E+02  0.36473982768E+03  0.00000000000E+00 0. -1.
         -2    1    6    6    0  503  0.25133683007E+03  0.30780169307E+03  0.21757485815E+03  0.45304624853E+03  0.00000000000E+00 0.  1.
<mgrwt>
<rscale>  0 0.16441663E+04</rscale>
<asrwt>0</asrwt>
<pdfrwt beam="1">  1        1 0.13011605E+00 0.16441663E+04</pdfrwt>
<pdfrwt beam="2">  1       -1 0.12293453E+00 0.16441663E+04</pdfrwt>
<totfact> 0.11263798E+01</totfact>
</mgrwt>
</event>
<event>
12    3  0.4688899E-008  0.1854388E+04  0.7818608E-02  0.8677900E-01
          1   -1    0    0  501    0  0.00000000000E+00  0.00000000000E+00  0.89776116581E+03  0.89776116581E+03  0.00000000000E+00 0. -1.
         -1   -1    0    0    0  501 -0.00000000000E+00 -0.00000000000E+00 -0.95759176576E+03  0.95759176576E+03  0.00000000000E+00 0.  1.
         23    2    1    2    0    0 -0.69675481436E+03  0.99322671720E+01  0.76713281235E+02  0.70694129304E+03  0.91187406075E+02 0.  0.
        254    2    1    2    0    0  0.69675481436E+03 -0.99322671720E+01 -0.13654388118E+03  0.11484116385E+04  0.90257361958E+03 0.  0.
         23    2    4    4    0    0  0.51441859184E+03  0.23390727202E+03 -0.43025625375E+03  0.71587444414E+03  0.89535894164E+02 0.  0.
         23    2    4    4    0    0  0.18233622252E+03 -0.24383953919E+03  0.29371237257E+03  0.43253719440E+03  0.90095770268E+02 0.  0.
          1    1    3    3  502    0 -0.62168085777E+03 -0.61168692812E-01  0.95338027966E+02  0.62894867218E+03  0.00000000000E+00 0. -1.
         -1    1    3    3    0  502 -0.75073956588E+02  0.99934358649E+01 -0.18624746731E+02  0.77992620862E+02  0.00000000000E+00 0.  1.
         13    1    5    5    0    0  0.17978206664E+03  0.40561683040E+02 -0.11611216908E+03  0.21782763237E+03  0.00000000000E+00 0. -1.
        -13    1    5    5    0    0  0.33463652520E+03  0.19334558898E+03 -0.31414408467E+03  0.49804681176E+03  0.00000000000E+00 0.  1.
          3    1    6    6  503    0  0.59169628688E+02 -0.24533592956E+02  0.41394425598E+02  0.76265592589E+02  0.00000000000E+00 0. -1.
         -3    1    6    6    0  503  0.12316659383E+03 -0.21930594624E+03  0.25231794697E+03  0.35627160181E+03  0.00000000000E+00 0.  1.
<mgrwt>
<rscale>  0 0.18543880E+04</rscale>
<asrwt>0</asrwt>
<pdfrwt beam="1">  1        1 0.13811710E+00 0.18543880E+04</pdfrwt>
<pdfrwt beam="2">  1       -1 0.14732181E+00 0.18543880E+04</pdfrwt>
<totfact> 0.62862702E+00</totfact>
</mgrwt>
</event>
<event>
12    3  0.4688899E-008  0.1237912E+04  0.7818608E-02  0.9080304E-01
          1   -1    0    0  501    0  0.00000000000E+00  0.00000000000E+00  0.23669647053E+04  0.23669647053E+04  0.00000000000E+00 0. -1.
         -1   -1    0    0    0  501 -0.00000000000E+00 -0.00000000000E+00 -0.16185564511E+03  0.16185564511E+03  0.00000000000E+00 0.  1.
         23    2    1    2    0    0 -0.20682222063E+03 -0.86246204204E+02  0.90004536200E+03  0.93184750807E+03  0.89689943471E+02 0.  0.
        254    2    1    2    0    0  0.20682222063E+03  0.86246204204E+02  0.13050636982E+04  0.15969728423E+04  0.89270216989E+03 0.  0.
         23    2    4    4    0    0 -0.23314594368E+03 -0.12522852295E+03  0.10735442050E+03  0.30044380777E+03  0.93286097636E+02 0.  0.
         23    2    4    4    0    0  0.43996816431E+03  0.21147472715E+03  0.11977092777E+04  0.12965290345E+04  0.90479156561E+02 0.  0.
          1    1    3    3  502    0 -0.19320767642E+03 -0.10072730409E+03  0.85956267008E+03  0.88674865650E+03  0.00000000000E+00 0. -1.
         -1    1    3    3    0  502 -0.13614544211E+02  0.14481099882E+02  0.40482691921E+02  0.45098851571E+02  0.00000000000E+00 0.  1.
         13    1    5    5    0    0  0.89685652478E+00  0.69327191033E+01 -0.55376368909E+01  0.89180921797E+01  0.00000000000E+00 0. -1.
        -13    1    5    5    0    0 -0.23404280021E+03 -0.13216124205E+03  0.11289205739E+03  0.29152571559E+03  0.00000000000E+00 0.  1.
          2    1    6    6  503    0  0.17980751578E+02  0.27122315842E+02  0.47656249026E+02  0.57706546554E+02  0.00000000000E+00 0. -1.
         -2    1    6    6    0  503  0.42198741273E+03  0.18435241131E+03  0.11500530286E+04  0.12388224880E+04  0.00000000000E+00 0.  1.
<mgrwt>
<rscale>  0 0.12379121E+04</rscale>
<asrwt>0</asrwt>
<pdfrwt beam="1">  1        1 0.36414839E+00 0.12379121E+04</pdfrwt>
<pdfrwt beam="2">  1       -1 0.24900870E-01 0.12379121E+04</pdfrwt>
<totfact> 0.23405869E+01</totfact>
</mgrwt>
</event>
<event>
12    3  0.4688899E-008  0.1724620E+04  0.7818608E-02  0.8747446E-01
         -2   -1    0    0    0  501 -0.00000000000E+00  0.00000000000E+00  0.34035934078E+03  0.34035934078E+03  0.00000000000E+00 0.  1.
          2   -1    0    0  501    0  0.00000000000E+00 -0.00000000000E+00 -0.21846870934E+04  0.21846870934E+04  0.00000000000E+00 0. -1.
         23    2    1    2    0    0 -0.57854187529E+02  0.12131168766E+03 -0.13049913691E+04  0.13147770666E+04  0.87020853627E+02 0.  0.
        254    2    1    2    0    0  0.57854187529E+02 -0.12131168766E+03 -0.53933638357E+03  0.12102693676E+04  0.10750835200E+04 0.  0.
         23    2    4    4    0    0  0.28985179166E+03 -0.46968797403E+03 -0.51862465843E+02  0.56132538415E+03  0.88179461647E+02 0.  0.
         23    2    4    4    0    0 -0.23199760413E+03  0.34837628637E+03 -0.48747391772E+03  0.64894398343E+03  0.91151236648E+02 0.  0.
          3    1    3    3  502    0 -0.18362524382E+01  0.96874297129E+02 -0.69280200460E+03  0.69954457960E+03  0.00000000000E+00 0. -1.
         -3    1    3    3    0  502 -0.56017935091E+02  0.24437390527E+02 -0.61218936448E+03  0.61523248702E+03  0.00000000000E+00 0.  1.
         13    1    5    5    0    0  0.23332587842E+03 -0.35523662356E+03 -0.40915914642E+01  0.42503031113E+03  0.00000000000E+00 0. -1.
        -13    1    5    5    0    0  0.56525913244E+02 -0.11445135047E+03 -0.47770874379E+02  0.13629507302E+03  0.00000000000E+00 0.  1.
          1    1    6    6  503    0 -0.19154301521E+03  0.31179866977E+03 -0.37507431021E+03  0.52401133130E+03  0.00000000000E+00 0. -1.
         -1    1    6    6    0  503 -0.40454588919E+02  0.36577616604E+02 -0.11239960751E+03  0.12493265213E+03  0.00000000000E+00 0.  1.
<mgrwt>
<rscale>  0 0.17246201E+04</rscale>
<asrwt>0</asrwt>
<pdfrwt beam="1">  1        2 0.33610570E+00 0.17246201E+04</pdfrwt>
<pdfrwt beam="2">  1       -2 0.52362977E-01 0.17246201E+04</pdfrwt>
<totfact> 0.17226013E+01</totfact>
</mgrwt>
</event>
<event>
12    3  0.4688899E-008  0.1909834E+04  0.7818608E-02  0.8649977E-01
         -3   -1    0    0    0  501 -0.00000000000E+00  0.00000000000E+00  0.30431403676E+04  0.30431403676E+04  0.00000000000E+00 0.  1.
          3   -1    0    0  501    0  0.00000000000E+00 -0.00000000000E+00 -0.29964668926E+03  0.29964668926E+03  0.00000000000E+00 0. -1.
         23    2    1    2    0    0 -0.59031107484E+03 -0.36150924383E+03  0.61129949473E+03  0.92811704976E+03  0.92509931059E+02 0.  0.
        254    2    1    2    0    0  0.59031107484E+03  0.36150924383E+03  0.21321941836E+04  0.24146700071E+04  0.89734224691E+03 0.  0.
         23    2    4    4    0    0 -0.87193817449E+02 -0.20785976906E+03  0.51146975067E+03  0.56628107720E+03  0.90909334763E+02 0.  0.
         23    2    4    4    0    0  0.67750489228E+03  0.56936901289E+03  0.16207244329E+04  0.18483889299E+04  0.81240363927E+02 0.  0.
          1    1    3    3  502    0 -0.50670890861E+03 -0.31501108072E+03  0.56549890688E+03  0.82205529785E+03  0.00000000000E+00 0. -1.
         -1    1    3    3    0  502 -0.83602166227E+02 -0.46498163106E+02  0.45800587852E+02  0.10606175191E+03  0.00000000000E+00 0.  1.
         13    1    5    5    0    0  0.10463714552E+02 -0.51564675078E+02  0.17382277626E+03  0.18161157062E+03  0.00000000000E+00 0. -1.
        -13    1    5    5    0    0 -0.97657532000E+02 -0.15629509398E+03  0.33764697442E+03  0.38466950658E+03  0.00000000000E+00 0.  1.
          4    1    6    6  503    0  0.92948389235E+02  0.52491662486E+02  0.16052943086E+03  0.19278090119E+03  0.00000000000E+00 0. -1.
         -4    1    6    6    0  503  0.58455650305E+03  0.51687735040E+03  0.14601950020E+04  0.16556080287E+04  0.00000000000E+00 0.  1.
<mgrwt>
<rscale>  0 0.19098345E+04</rscale>
<asrwt>0</asrwt>
<pdfrwt beam="1">  1        3 0.46099493E-01 0.19098345E+04</pdfrwt>
<pdfrwt beam="2">  1       -3 0.46817542E+00 0.19098345E+04</pdfrwt>
<totfact> 0.51706012E-02</totfact>
</mgrwt>
</event>
<event>
12    3  0.4688899E-008  0.2247962E+04  0.7818608E-02  0.8498726E-01
          1   -1    0    0  501    0  0.00000000000E+00  0.00000000000E+00  0.15322523319E+04  0.15322523319E+04  0.00000000000E+00 0. -1.
         -1   -1    0    0    0  501 -0.00000000000E+00 -0.00000000000E+00 -0.82449432852E+03  0.82449432852E+03  0.00000000000E+00 0.  1.
         23    2    1    2    0    0 -0.13649674220E+03  0.41435613612E+03 -0.57415380919E+03  0.72666540615E+03  0.89820085270E+02 0.  0.
        254    2    1    2    0    0  0.13649674220E+03 -0.41435613612E+03  0.12819118126E+04  0.16300812543E+04  0.90749359898E+03 0.  0.
         23    2    4    4    0    0  0.32871288730E+03 -0.52138335132E+03  0.45806564782E+03  0.77325194739E+03  0.90563100206E+02 0.  0.
         23    2    4    4    0    0 -0.19221614510E+03  0.10702721521E+03  0.82384616477E+03  0.85682930691E+03  0.83857538338E+02 0.  0.
          4    1    3    3  502    0 -0.36001026957E+02  0.74254224348E+02 -0.59834457615E+02  0.10193098692E+03  0.00000000000E+00 0. -1.
         -4    1    3    3    0  502 -0.10049571524E+03  0.34010191177E+03 -0.51431935157E+03  0.62473441923E+03  0.00000000000E+00 0.  1.
         13    1    5    5    0    0  0.35703925241E+02 -0.10399433897E+03  0.11198761240E+03  0.15694208533E+03  0.00000000000E+00 0.  1.
        -13    1    5    5    0    0  0.29300896206E+03 -0.41738901235E+03  0.34607803542E+03  0.61630986206E+03  0.00000000000E+00 0. -1.
          4    1    6    6  503    0 -0.13401130129E+03  0.39833503559E+02  0.59780933450E+03  0.61393952250E+03  0.00000000000E+00 0. -1.
         -4    1    6    6    0  503 -0.58204843814E+02  0.67193711648E+02  0.22603683027E+03  0.24288978441E+03  0.00000000000E+00 0.  1.
<mgrwt>
<rscale>  0 0.22479621E+04</rscale>
<asrwt>0</asrwt>
<pdfrwt beam="1">  1        1 0.23573113E+00 0.22479621E+04</pdfrwt>
<pdfrwt beam="2">  1       -1 0.12684528E+00 0.22479621E+04</pdfrwt>
<totfact> 0.30436734E+00</totfact>
</mgrwt>
</event>
<event>
12    3  0.4688899E-008  0.1334466E+04  0.7818608E-02  0.9002671E-01
         -1   -1    0    0    0  501 -0.00000000000E+00  0.00000000000E+00  0.19231346940E+03  0.19231346940E+03  0.00000000000E+00 0. -1.
          1   -1    0    0  501    0  0.00000000000E+00 -0.00000000000E+00 -0.23149707154E+04  0.23149707154E+04  0.00000000000E+00 0.  1.
         23    2    1    2    0    0  0.30159954278E+03  0.94439406914E+02 -0.84024335060E+03  0.90402929704E+03  0.10667237650E+03 0.  0.
        254    2    1    2    0    0 -0.30159954278E+03 -0.94439406914E+02 -0.12824138954E+04  0.16032548877E+04  0.90882327775E+03 0.  0.
         23    2    4    4    0    0  0.62325616369E+01 -0.25490580627E+02  0.12530656114E+03  0.15783085952E+03  0.92305099683E+02 0.  0.
         23    2    4    4    0    0 -0.30783210441E+03 -0.68948826287E+02 -0.14077204565E+04  0.14454240282E+04  0.89773005208E+02 0.  0.
          3    1    3    3  502    0  0.11050552306E+03  0.68023038428E+02 -0.23073661133E+03  0.26472247391E+03  0.00000000000E+00 0. -1.
         -3    1    3    3    0  502  0.19109401971E+03  0.26416368486E+02 -0.60950673927E+03  0.63930682314E+03  0.00000000000E+00 0.  1.
         13    1    5    5    0    0  0.19453242229E+02 -0.57267909022E+02  0.90755809663E+02  0.10906263808E+03  0.00000000000E+00 0. -1.
        -13    1    5    5    0    0 -0.13220680592E+02  0.31777328395E+02  0.34550751478E+02  0.48768221445E+02  0.00000000000E+00 0.  1.
          3    1    6    6  503    0 -0.22566831580E+03 -0.62478480919E+02 -0.11856868630E+04  0.12085872275E+04  0.00000000000E+00 0. -1.
         -3    1    6    6    0  503 -0.82163788616E+02 -0.64703453686E+01 -0.22203359352E+03  0.23683680073E+03  0.00000000000E+00 0.  1.
<mgrwt>
<rscale>  0 0.13344663E+04</rscale>
<asrwt>0</asrwt>
<pdfrwt beam="1">  1        1 0.35614937E+00 0.13344663E+04</pdfrwt>
<pdfrwt beam="2">  1       -1 0.29586685E-01 0.13344663E+04</pdfrwt>
<totfact> 0.18677914E+01</totfact>
</mgrwt>
</event>
<event>
12    3  0.4688899E-008  0.1611015E+04  0.7818608E-02  0.8813809E-01
          2   -1    0    0  501    0  0.00000000000E+00  0.00000000000E+00  0.11681589016E+04  0.11681589016E+04  0.00000000000E+00 0. -1.
         -2   -1    0    0    0  501 -0.00000000000E+00 -0.00000000000E+00 -0.55544046052E+03  0.55544046052E+03  0.00000000000E+00 0.  1.
         23    2    1    2    0    0 -0.14589494238E+03 -0.26314494176E+03 -0.27537260965E+03  0.41769215059E+03  0.90033682221E+02 0.  0.
        254    2    1    2    0    0  0.14589494238E+03  0.26314494176E+03  0.88809105074E+03  0.13059072115E+04  0.90893197554E+03 0.  0.
         23    2    4    4    0    0  0.51731444868E+03  0.22859175060E+03  0.53116075831E+03  0.78152811635E+03  0.93733762473E+02 0.  0.
         23    2    4    4    0    0 -0.37141950630E+03  0.34553191162E+02  0.35693029243E+03  0.52437909519E+03  0.91803208744E+02 0.  0.
          1    1    3    3  502    0 -0.62391086916E+02 -0.19744871434E+03 -0.16817613106E+03  0.26676179183E+03  0.00000000000E+00 0. -1.
         -1    1    3    3    0  502 -0.83503855463E+02 -0.65696227424E+02 -0.10719647859E+03  0.15093035877E+03  0.00000000000E+00 0.  1.
         13    1    5    5    0    0  0.39009698745E+03  0.12627315986E+03  0.38019961469E+03  0.55917109862E+03  0.00000000000E+00 0.  1.
        -13    1    5    5    0    0  0.12721746123E+03  0.10231859075E+03  0.15096114362E+03  0.22235701774E+03  0.00000000000E+00 0. -1.
          3    1    6    6  503    0 -0.21293243051E+03 -0.18800035230E+02  0.16655753080E+03  0.27098906316E+03  0.00000000000E+00 0. -1.
         -3    1    6    6    0  503 -0.15848707579E+03  0.53353226393E+02  0.19037276164E+03  0.25339003203E+03  0.00000000000E+00 0.  1.
<mgrwt>
<rscale>  0 0.16110155E+04</rscale>
<asrwt>0</asrwt>
<pdfrwt beam="1">  1        2 0.17971675E+00 0.16110155E+04</pdfrwt>
<pdfrwt beam="2">  1       -2 0.85452379E-01 0.16110155E+04</pdfrwt>
<totfact> 0.22580565E+01</totfact>
</mgrwt>
</event>
<event>
12    3  0.4688899E-008  0.1481749E+04  0.7818608E-02  0.8896681E-01
          2   -1    0    0  501    0  0.00000000000E+00  0.00000000000E+00  0.18208821711E+04  0.18208821711E+04  0.00000000000E+00 0.  1.
         -2   -1    0    0    0  501 -0.00000000000E+00 -0.00000000000E+00 -0.30144444211E+03  0.30144444211E+03  0.00000000000E+00 0. -1.
         23    2    1    2    0    0 -0.15448391216E+03 -0.31005409010E+03  0.93821605240E+03  0.10039759730E+04  0.87861114688E+02 0.  0.
        254    2    1    2    0    0  0.15448391216E+03  0.31005409010E+03  0.58122167663E+03  0.11183506403E+04  0.89044410227E+03 0.  0.
         23    2    4    4    0    0  0.41874622232E+03  0.36371553455E+03  0.61358368833E+03  0.83191868025E+03  0.89254463124E+02 0.  0.
         23    2    4    4    0    0 -0.26426231016E+03 -0.53661444446E+02 -0.32362011697E+02  0.28643196000E+03  0.91004663173E+02 0.  0.
          3    1    3    3  502    0 -0.18112184780E+02 -0.37181257339E+02  0.50302507059E+02  0.65121727183E+02  0.00000000000E+00 0. -1.
         -3    1    3    3    0  502 -0.13637172738E+03 -0.27287283276E+03  0.88791354534E+03  0.93885424582E+03  0.00000000000E+00 0.  1.
         13    1    5    5    0    0  0.21143455270E+02  0.56502274334E+00  0.11182314764E+02  0.23925072935E+02  0.00000000000E+00 0.  1.
        -13    1    5    5    0    0  0.39760276705E+03  0.36315051181E+03  0.60240137357E+03  0.80799360732E+03  0.00000000000E+00 0. -1.
          2    1    6    6  503    0 -0.27147526051E+03 -0.48689485352E+02 -0.30638763685E+02  0.27750354393E+03  0.00000000000E+00 0. -1.
         -2    1    6    6    0  503  0.72129503472E+01 -0.49719590937E+01 -0.17232480116E+01  0.89284160774E+01  0.00000000000E+00 0.  1.
<mgrwt>
<rscale>  0 0.14817487E+04</rscale>
<asrwt>0</asrwt>
<pdfrwt beam="1">  1        2 0.28013571E+00 0.14817487E+04</pdfrwt>
<pdfrwt beam="2">  1       -2 0.46376069E-01 0.14817487E+04</pdfrwt>
<totfact> 0.35833185E+01</totfact>
</mgrwt>
</event>
<event>
12    3  0.4688899E-008  0.1371776E+04  0.7818608E-02  0.8974506E-01
         -1   -1    0    0    0  501 -0.00000000000E+00  0.00000000000E+00  0.55213980658E+03  0.55213980658E+03  0.00000000000E+00 0.  1.
          1   -1    0    0  501    0  0.00000000000E+00 -0.00000000000E+00 -0.85203464430E+03  0.85203464430E+03  0.00000000000E+00 0. -1.
         23    2    1    2    0    0  0.34653145268E+03 -0.76611613062E+01 -0.24214461868E+03  0.43257128866E+03  0.91329964048E+02 0.  0.
        254    2    1    2    0    0 -0.34653145268E+03  0.76611613062E+01 -0.57750219050E+02  0.97160316222E+03  0.90583380150E+03 0.  0.
         23    2    4    4    0    0 -0.59459097431E+03  0.20886049778E+03 -0.68208385054E+02  0.64078047557E+03  0.93734197752E+02 0.  0.
         23    2    4    4    0    0  0.24805952163E+03 -0.20119933647E+03  0.10458166004E+02  0.33082268664E+03  0.85554529366E+02 0.  0.
          4    1    3    3  502    0  0.18207099649E+03  0.26990109972E+01 -0.18117135759E+03  0.25686609982E+03  0.00000000000E+00 0. -1.
         -4    1    3    3    0  502  0.16446045619E+03 -0.10360172303E+02 -0.60973261084E+02  0.17570518885E+03  0.00000000000E+00 0.  1.
         13    1    5    5    0    0 -0.24336079993E+03  0.86636687165E+02  0.18275777029E+02  0.25896794885E+03  0.00000000000E+00 0. -1.
        -13    1    5    5    0    0 -0.35123017437E+03  0.12222381061E+03 -0.86484162083E+02  0.38181252672E+03  0.00000000000E+00 0.  1.
          4    1    6    6  503    0  0.79259165793E+02 -0.11751164525E+03  0.13562716399E+02  0.14239013100E+03  0.00000000000E+00 0.  1.
         -4    1    6    6    0  503  0.16880035583E+03 -0.83687691225E+02 -0.31045503956E+01  0.18843255564E+03  0.00000000000E+00 0. -1.
<mgrwt>
<rscale>  0 0.13717758E+04</rscale>
<asrwt>0</asrwt>
<pdfrwt beam="1">  1        1 0.13108225E+00 0.13717758E+04</pdfrwt>
<pdfrwt beam="2">  1       -1 0.84944585E-01 0.13717758E+04</pdfrwt>
<totfact> 0.26736564E+01</totfact>
</mgrwt>
</event>
<event>
12    3  0.4688899E-008  0.1635600E+04  0.7818608E-02  0.8798971E-01
          3   -1    0    0  501    0  0.00000000000E+00  0.00000000000E+00  0.88542350986E+03  0.88542350986E+03  0.00000000000E+00 0. -1.
         -3   -1    0    0    0  501 -0.00000000000E+00 -0.00000000000E+00 -0.75534142948E+03  0.75534142948E+03  0.00000000000E+00 0.  1.
         23    2    1    2    0    0 -0.12151531951E+02  0.32663110846E+03  0.50996286463E+03  0.61275176043E+03  0.92558391696E+02 0.  0.
        254    2    1    2    0    0  0.12151531951E+02 -0.32663110846E+03 -0.37988078425E+03  0.10280131789E+04  0.89758907359E+03 0.  0.
         23    2    4    4    0    0 -0.40351941400E+03 -0.14120226374E+03 -0.35469827828E+03  0.56293856227E+03  0.91230255469E+02 0.  0.
         23    2    4    4    0    0  0.41567094595E+03 -0.18542884472E+03 -0.25182505971E+02  0.46507461664E+03  0.92163163349E+02 0.  0.
          1    1    3    3  502    0  0.35508461131E+02  0.19020038646E+03  0.32191035991E+03  0.37558396882E+03  0.00000000000E+00 0. -1.
         -1    1    3    3    0  502 -0.47659993082E+02  0.13643072200E+03  0.18805250473E+03  0.23716779161E+03  0.00000000000E+00 0.  1.
         13    1    5    5    0    0 -0.31982848213E+02 -0.10637462672E+01 -0.23880641710E+01  0.32089515210E+02  0.00000000000E+00 0. -1.
        -13    1    5    5    0    0 -0.37153656579E+03 -0.14013851747E+03 -0.35231021411E+03  0.53084904706E+03  0.00000000000E+00 0.  1.
          2    1    6    6  503    0  0.30464824578E+03 -0.14869213695E+03 -0.57287540480E+02  0.34380483932E+03  0.00000000000E+00 0. -1.
         -2    1    6    6    0  503  0.11102270017E+03 -0.36736707771E+02  0.32105034508E+02  0.12126977732E+03  0.00000000000E+00 0.  1.
<mgrwt>
<rscale>  0 0.16356003E+04</rscale>
<asrwt>0</asrwt>
<pdfrwt beam="1">  1        3 0.13621900E+00 0.16356003E+04</pdfrwt>
<pdfrwt beam="2">  1       -3 0.11620637E+00 0.16356003E+04</pdfrwt>
<totfact> 0.63342719E-01</totfact>
</mgrwt>
</event>
<event>
12    3  0.4688899E-008  0.1045332E+04  0.7818608E-02  0.9260177E-01
          1   -1    0    0  501    0  0.00000000000E+00  0.00000000000E+00  0.19925039052E+04  0.19925039052E+04  0.00000000000E+00 0. -1.
         -1   -1    0    0    0  501 -0.00000000000E+00 -0.00000000000E+00 -0.13710379164E+03  0.13710379164E+03  0.00000000000E+00 0.  1.
         23    2    1    2    0    0 -0.17273610365E+01  0.12798022771E+03  0.28528444601E+03  0.32535337028E+03  0.89920397887E+02 0.  0.
        254    2    1    2    0    0  0.17273610365E+01 -0.12798022771E+03  0.15701156675E+04  0.18042543265E+04  0.87959567016E+03 0.  0.
         23    2    4    4    0    0 -0.17286154634E+03 -0.24917489838E+03  0.15391904087E+04  0.15714502962E+04  0.91540565472E+02 0.  0.
         23    2    4    4    0    0  0.17458890738E+03  0.12119467067E+03  0.30925258806E+02  0.23280403029E+03  0.89843809501E+02 0.  0.
          1    1    3    3  502    0 -0.88623661146E+01  0.56957620418E+02  0.22392502989E+03  0.23122528207E+03  0.00000000000E+00 0. -1.
         -1    1    3    3    0  502  0.71350050780E+01  0.71022607288E+02  0.61359416125E+02  0.94128088213E+02  0.00000000000E+00 0.  1.
         13    1    5    5    0    0 -0.30180527118E+02 -0.22318787384E+02  0.37195916013E+03  0.37384837741E+03  0.00000000000E+00 0.  1.
        -13    1    5    5    0    0 -0.14268101923E+03 -0.22685611099E+03  0.11672312486E+04  0.11976019188E+04  0.00000000000E+00 0. -1.
          2    1    6    6  503    0  0.12632887601E+03  0.12998090710E+03  0.18478751054E+02  0.18219628252E+03  0.00000000000E+00 0. -1.
         -2    1    6    6    0  503  0.48260031372E+02 -0.87862364286E+01  0.12446507752E+02  0.50607747765E+02  0.00000000000E+00 0.  1.
<mgrwt>
<rscale>  0 0.10453322E+04</rscale>
<asrwt>0</asrwt>
<pdfrwt beam="1">  1        1 0.30653904E+00 0.10453322E+04</pdfrwt>
<pdfrwt beam="2">  1       -1 0.21092893E-01 0.10453322E+04</pdfrwt>
<totfact> 0.56601063E+01</totfact>
</mgrwt>
</event>
<event>
12    3  0.4688899E-008  0.9593413E+03  0.7818608E-02  0.9354298E-01
          2   -1    0    0  501    0  0.00000000000E+00  0.00000000000E+00  0.94018909811E+03  0.94018909811E+03  0.00000000000E+00 0. -1.
         -2   -1    0    0    0  501 -0.00000000000E+00 -0.00000000000E+00 -0.24472091380E+03  0.24472091380E+03  0.00000000000E+00 0.  1.
         23    2    1    2    0    0  0.15825051080E+03 -0.24009022301E+02  0.74018359689E+02  0.19873432255E+03  0.91634906393E+02 0.  0.
        254    2    1    2    0    0 -0.15825051080E+03  0.24009022301E+02  0.62144982463E+03  0.98617568936E+03  0.74881436179E+03 0.  0.
         23    2    4    4    0    0 -0.34504996483E+03 -0.23193556029E+03  0.42218118753E+03  0.60058464706E+03  0.98037650057E+02 0.  0.
         23    2    4    4    0    0  0.18679945403E+03  0.25594458259E+03  0.19926863710E+03  0.38559104229E+03  0.92578597872E+02 0.  0.
          4    1    3    3  502    0  0.92621577419E+02  0.16744233232E+02  0.76727535819E+02  0.12143410025E+03  0.00000000000E+00 0. -1.
         -4    1    3    3    0  502  0.65628933381E+02 -0.40753255533E+02 -0.27091761307E+01  0.77300222306E+02  0.00000000000E+00 0.  1.
         13    1    5    5    0    0 -0.17047216210E+02 -0.48014733041E+02  0.55814275183E+02  0.75572848853E+02  0.00000000000E+00 0.  1.
        -13    1    5    5    0    0 -0.32800274862E+03 -0.18392082725E+03  0.36636691235E+03  0.52501179821E+03  0.00000000000E+00 0. -1.
          2    1    6    6  503    0  0.18366092062E+03  0.19067406736E+03  0.15801474159E+03  0.30831249129E+03  0.00000000000E+00 0. -1.
         -2    1    6    6    0  503  0.31385334074E+01  0.65270515229E+02  0.41253895512E+02  0.77278551003E+02  0.00000000000E+00 0.  1.
<mgrwt>
<rscale>  0 0.95934131E+03</rscale>
<asrwt>0</asrwt>
<pdfrwt beam="1">  1        2 0.14464448E+00 0.95934131E+03</pdfrwt>
<pdfrwt beam="2">  1       -2 0.37649372E-01 0.95934131E+03</pdfrwt>
<totfact> 0.18329200E+02</totfact>
</mgrwt>
</event>
<event>
12    3  0.4688899E-008  0.2269623E+04  0.7818608E-02  0.8489996E-01
          2   -1    0    0  501    0  0.00000000000E+00  0.00000000000E+00  0.14599055180E+04  0.14599055180E+04  0.00000000000E+00 0.  1.
         -2   -1    0    0    0  501 -0.00000000000E+00 -0.00000000000E+00 -0.88210978315E+03  0.88210978315E+03  0.00000000000E+00 0. -1.
         23    2    1    2    0    0 -0.66207093976E+01  0.20612308216E+03 -0.71735411959E+03  0.75028394147E+03  0.76147889955E+02 0.  0.
        254    2    1    2    0    0  0.66207093976E+01 -0.20612308216E+03  0.12951498544E+04  0.15917313597E+04  0.90203382262E+03 0.  0.
         23    2    4    4    0    0  0.40000466965E+03  0.58719912753E+02  0.79417180194E+03  0.89592665447E+03  0.92325268977E+02 0.  0.
         23    2    4    4    0    0 -0.39338396025E+03 -0.26484299492E+03  0.50097805250E+03  0.69580470522E+03  0.90952881066E+02 0.  0.
          3    1    3    3  502    0  0.11138768675E+02  0.14925241276E+03 -0.60351693201E+03  0.62179823263E+03  0.00000000000E+00 0. -1.
         -3    1    3    3    0  502 -0.17759478073E+02  0.56870669404E+02 -0.11383718758E+03  0.12848570884E+03  0.00000000000E+00 0.  1.
         13    1    5    5    0    0  0.10825034680E+03 -0.24913352380E+02  0.20355544039E+03  0.23189141860E+03  0.00000000000E+00 0. -1.
        -13    1    5    5    0    0  0.29175432285E+03  0.83633265133E+02  0.59061636155E+03  0.66403523586E+03  0.00000000000E+00 0.  1.
          1    1    6    6  503    0 -0.43278308561E+02 -0.19775116755E+02  0.17927888875E+02  0.50847580415E+02  0.00000000000E+00 0. -1.
         -1    1    6    6    0  503 -0.35010565169E+03 -0.24506787816E+03  0.48305016363E+03  0.64495712480E+03  0.00000000000E+00 0.  1.
<mgrwt>
<rscale>  0 0.22696228E+04</rscale>
<asrwt>0</asrwt>
<pdfrwt beam="1">  1        2 0.22460085E+00 0.22696228E+04</pdfrwt>
<pdfrwt beam="2">  1       -2 0.13570920E+00 0.22696228E+04</pdfrwt>
<totfact> 0.47328825E+00</totfact>
</mgrwt>
</event>
<event>
12    3  0.4688899E-008  0.1252858E+04  0.7818608E-02  0.9067808E-01
          2   -1    0    0  501    0  0.00000000000E+00  0.00000000000E+00  0.13981101056E+04  0.13981101056E+04  0.00000000000E+00 0. -1.
         -2   -1    0    0    0  501 -0.00000000000E+00 -0.00000000000E+00 -0.28067416355E+03  0.28067416355E+03  0.00000000000E+00 0.  1.
         23    2    1    2    0    0 -0.50710712103E+02  0.28362611864E+03  0.20316298328E+03  0.36503648367E+03  0.94663008289E+02 0.  0.
        254    2    1    2    0    0  0.50710712103E+02 -0.28362611864E+03  0.91427295875E+03  0.13137477855E+04  0.89834450475E+03 0.  0.
         23    2    4    4    0    0  0.31810485032E+02  0.81197010812E+01 -0.16550344622E+03  0.19140255295E+03  0.90364318518E+02 0.  0.
         23    2    4    4    0    0  0.18900227071E+02 -0.29174581972E+03  0.10797764050E+04  0.11223452325E+04  0.90933460933E+02 0.  0.
          1    1    3    3  502    0 -0.94001216725E+01  0.13055510746E+03  0.14701356277E+03  0.19684000105E+03  0.00000000000E+00 0. -1.
         -1    1    3    3    0  502 -0.41310590431E+02  0.15307101118E+03  0.56149420510E+02  0.16819648263E+03  0.00000000000E+00 0.  1.
         13    1    5    5    0    0  0.56780881366E+02  0.15313158555E+02 -0.15006359740E+03  0.16117581884E+03  0.00000000000E+00 0. -1.
        -13    1    5    5    0    0 -0.24970396334E+02 -0.71934574735E+01 -0.15439848822E+02  0.30226734113E+02  0.00000000000E+00 0.  1.
          4    1    6    6  503    0 -0.17071491613E+02 -0.33058646950E+02  0.69238566517E+02  0.78602093212E+02  0.00000000000E+00 0.  1.
         -4    1    6    6    0  503  0.35971718684E+02 -0.25868717277E+03  0.10105378385E+04  0.10437431393E+04  0.00000000000E+00 0. -1.
<mgrwt>
<rscale>  0 0.12528581E+04</rscale>
<asrwt>0</asrwt>
<pdfrwt beam="1">  1        2 0.21509386E+00 0.12528581E+04</pdfrwt>
<pdfrwt beam="2">  1       -2 0.43180641E-01 0.12528581E+04</pdfrwt>
<totfact> 0.72504028E+01</totfact>
</mgrwt>
</event>
<event>
12    3  0.4688899E-008  0.1329904E+04  0.7818608E-02  0.9006182E-01
          1   -1    0    0  501    0  0.00000000000E+00  0.00000000000E+00  0.14735423600E+04  0.14735423600E+04  0.00000000000E+00 0. -1.
         -1   -1    0    0    0  501 -0.00000000000E+00 -0.00000000000E+00 -0.30006664262E+03  0.30006664262E+03  0.00000000000E+00 0.  1.
         23    2    1    2    0    0 -0.27486427708E+03  0.20013140197E+03  0.44337394216E+03  0.56610660555E+03  0.91067488124E+02 0.  0.
        254    2    1    2    0    0  0.27486427708E+03 -0.20013140197E+03  0.73010177519E+03  0.12075023970E+04  0.89967243362E+03 0.  0.
         23    2    4    4    0    0  0.48183697134E+03 -0.42002271654E+03  0.51354255291E+03  0.82501859805E+03  0.91344316260E+02 0.  0.
         23    2    4    4    0    0 -0.20697269426E+03  0.21989131457E+03  0.21655922227E+03  0.38248379898E+03  0.90587379577E+02 0.  0.
          3    1    3    3  502    0 -0.26995743804E+03  0.20760063972E+03  0.41776421015E+03  0.53898235522E+03  0.00000000000E+00 0. -1.
         -3    1    3    3    0  502 -0.49068390482E+01 -0.74692377532E+01  0.25609732016E+02  0.27124250330E+02  0.00000000000E+00 0.  1.
         13    1    5    5    0    0  0.22399740981E+03 -0.22182377780E+03  0.30528094691E+03  0.43883605657E+03  0.00000000000E+00 0. -1.
        -13    1    5    5    0    0  0.25783956153E+03 -0.19819893874E+03  0.20826160600E+03  0.38618254148E+03  0.00000000000E+00 0.  1.
          1    1    6    6  503    0 -0.20910057309E+03  0.19554235069E+03  0.21493129479E+03  0.35798787977E+03  0.00000000000E+00 0. -1.
         -1    1    6    6    0  503  0.21278788292E+01  0.24348963872E+02  0.16279274800E+01  0.24495919208E+02  0.00000000000E+00 0.  1.
<mgrwt>
<rscale>  0 0.13299036E+04</rscale>
<asrwt>0</asrwt>
<pdfrwt beam="1">  1        1 0.22669882E+00 0.13299036E+04</pdfrwt>
<pdfrwt beam="2">  1       -1 0.46164100E-01 0.13299036E+04</pdfrwt>
<totfact> 0.31229181E+01</totfact>
</mgrwt>
</event>
<event>
12    3  0.4688899E-008  0.2312848E+04  0.7818608E-02  0.8472873E-01
         -2   -1    0    0    0  501 -0.00000000000E+00  0.00000000000E+00  0.40179990400E+03  0.40179990400E+03  0.00000000000E+00 0.  1.
          2   -1    0    0  501    0  0.00000000000E+00 -0.00000000000E+00 -0.33283132834E+04  0.33283132834E+04  0.00000000000E+00 0. -1.
         23    2    1    2    0    0  0.93527946143E+03 -0.18497420700E+03 -0.15936139257E+04  0.18592114419E+04  0.89992850862E+02 0.  0.
        254    2    1    2    0    0 -0.93527946143E+03  0.18497420700E+03 -0.13328994537E+04  0.18709017455E+04  0.90260138461E+03 0.  0.
         23    2    4    4    0    0 -0.32325587164E+03  0.21452953306E+03  0.39041602536E+01  0.39730201017E+03  0.85535756912E+02 0.  0.
         23    2    4    4    0    0 -0.61202358979E+03 -0.29555326066E+02 -0.13368036140E+04  0.14735997354E+04  0.94899346654E+02 0.  0.
          4    1    3    3  502    0  0.12343838882E+03  0.61194941119E+01 -0.20923257627E+03  0.24300772625E+03  0.00000000000E+00 0.  1.
         -4    1    3    3    0  502  0.81184107261E+03 -0.19109370111E+03 -0.13843813494E+04  0.16162037156E+04  0.00000000000E+00 0. -1.
         13    1    5    5    0    0 -0.18775279527E+03  0.17263045283E+03  0.11008328987E+02  0.25529114494E+03  0.00000000000E+00 0.  1.
        -13    1    5    5    0    0 -0.13550307637E+03  0.41899080233E+02 -0.71041687334E+01  0.14201086523E+03  0.00000000000E+00 0. -1.
          1    1    6    6  503    0 -0.23779757770E+03 -0.24276271307E+02 -0.62998764371E+03  0.67381114308E+03  0.00000000000E+00 0. -1.
         -1    1    6    6    0  503 -0.37422601208E+03 -0.52790547590E+01 -0.70681597026E+03  0.79978859228E+03  0.00000000000E+00 0.  1.
<mgrwt>
<rscale>  0 0.23128476E+04</rscale>
<asrwt>0</asrwt>
<pdfrwt beam="1">  1        2 0.51204817E+00 0.23128476E+04</pdfrwt>
<pdfrwt beam="2">  1       -2 0.61815373E-01 0.23128476E+04</pdfrwt>
<totfact> 0.23519346E+00</totfact>
</mgrwt>
</event>
<event>
12    3  0.4688899E-008  0.1366583E+04  0.7818608E-02  0.8978369E-01
          2   -1    0    0  501    0  0.00000000000E+00  0.00000000000E+00  0.15756262657E+04  0.15756262657E+04  0.00000000000E+00 0.  1.
         -2   -1    0    0    0  501 -0.00000000000E+00 -0.00000000000E+00 -0.29631841486E+03  0.29631841486E+03  0.00000000000E+00 0. -1.
         23    2    1    2    0    0 -0.16861834234E+03 -0.19233996654E+03 -0.13766621708E+02  0.27180918833E+03  0.90906033283E+02 0.  0.
        254    2    1    2    0    0  0.16861834234E+03  0.19233996654E+03  0.12930744726E+04  0.16001354923E+04  0.90717429076E+03 0.  0.
         23    2    4    4    0    0  0.34967103942E+03  0.45301514348E+03  0.10133978299E+04  0.11672981464E+04  0.90095754005E+02 0.  0.
         23    2    4    4    0    0 -0.18105269708E+03 -0.26067517694E+03  0.27967664267E+03  0.43283734585E+03  0.91637964380E+02 0.  0.
          3    1    3    3  502    0 -0.72446990714E+02 -0.28895650757E+02  0.16628275381E+02  0.79749762622E+02  0.00000000000E+00 0.  1.
         -3    1    3    3    0  502 -0.96171351623E+02 -0.16344431578E+03 -0.30394897089E+02  0.19205942571E+03  0.00000000000E+00 0. -1.
         13    1    5    5    0    0  0.29629870699E+03  0.37347404823E+03  0.90313656861E+03  0.10212401530E+04  0.00000000000E+00 0.  1.
        -13    1    5    5    0    0  0.53372332430E+02  0.79541095253E+02  0.11026126129E+03  0.14605799343E+03  0.00000000000E+00 0. -1.
          4    1    6    6  503    0 -0.61458856972E+02 -0.13000062571E+03  0.17715305259E+03  0.22816782821E+03  0.00000000000E+00 0. -1.
         -4    1    6    6    0  503 -0.11959384011E+03 -0.13067455123E+03  0.10252359008E+03  0.20466951765E+03  0.00000000000E+00 0.  1.
<mgrwt>
<rscale>  0 0.13665827E+04</rscale>
<asrwt>0</asrwt>
<pdfrwt beam="1">  1        2 0.24240404E+00 0.13665827E+04</pdfrwt>
<pdfrwt beam="2">  1       -2 0.45587449E-01 0.13665827E+04</pdfrwt>
<totfact> 0.51219243E+01</totfact>
</mgrwt>
</event>
<event>
12    3  0.4688899E-008  0.1289161E+04  0.7818608E-02  0.9038205E-01
          1   -1    0    0  501    0  0.00000000000E+00  0.00000000000E+00  0.34554005271E+04  0.34554005271E+04  0.00000000000E+00 0. -1.
         -1   -1    0    0    0  501 -0.00000000000E+00 -0.00000000000E+00 -0.12024191785E+03  0.12024191785E+03  0.00000000000E+00 0.  1.
         23    2    1    2    0    0  0.22075734139E+03 -0.35664182578E+02  0.21976201826E+03  0.32614361036E+03  0.89825231488E+02 0.  0.
        254    2    1    2    0    0 -0.22075734139E+03  0.35664182578E+02  0.31153965910E+04  0.32494988346E+04  0.89640449530E+03 0.  0.
         23    2    4    4    0    0  0.22257481457E+03  0.22362580590E+03  0.20564061758E+04  0.20825158012E+04  0.92291134458E+02 0.  0.
         23    2    4    4    0    0 -0.44333215596E+03 -0.18796162333E+03  0.10589904153E+04  0.11669830334E+04  0.92280703709E+02 0.  0.
          1    1    3    3  502    0  0.28434945174E+02 -0.31908333682E+02  0.15242691192E+02  0.45376508242E+02  0.00000000000E+00 0. -1.
         -1    1    3    3    0  502  0.19232239622E+03 -0.37558488952E+01  0.20451932707E+03  0.28076710212E+03  0.00000000000E+00 0.  1.
         13    1    5    5    0    0  0.83537123597E+02  0.14124892872E+03  0.89507553359E+03  0.90999446247E+03  0.00000000000E+00 0.  1.
        -13    1    5    5    0    0  0.13903769097E+03  0.82376877180E+02  0.11613306422E+04  0.11725213388E+04  0.00000000000E+00 0. -1.
          3    1    6    6  503    0 -0.34893025413E+03 -0.18058983119E+03  0.89840832693E+03  0.98056235461E+03  0.00000000000E+00 0. -1.
         -3    1    6    6    0  503 -0.94401901831E+02 -0.73717921366E+01  0.16058208832E+03  0.18642067878E+03  0.00000000000E+00 0.  1.
<mgrwt>
<rscale>  0 0.12891609E+04</rscale>
<asrwt>0</asrwt>
<pdfrwt beam="1">  1        1 0.53160000E+00 0.12891609E+04</pdfrwt>
<pdfrwt beam="2">  1       -1 0.18498759E-01 0.12891609E+04</pdfrwt>
<totfact> 0.63165434E+00</totfact>
</mgrwt>
</event>
<event>
12    3  0.4688899E-008  0.2122075E+04  0.7818608E-02  0.8551581E-01
          2   -1    0    0  501    0  0.00000000000E+00  0.00000000000E+00  0.39960167026E+04  0.39960167026E+04  0.00000000000E+00 0. -1.
         -2   -1    0    0    0  501 -0.00000000000E+00 -0.00000000000E+00 -0.28173056885E+03  0.28173056885E+03  0.00000000000E+00 0.  1.
         23    2    1    2    0    0  0.66707290731E+03 -0.76672916428E+02  0.26656785086E+04  0.27505344812E+04  0.93450635335E+02 0.  0.
        254    2    1    2    0    0 -0.66707290731E+03  0.76672916428E+02  0.10486076251E+04  0.15272127903E+04  0.88427142633E+03 0.  0.
         23    2    4    4    0    0 -0.51918409610E+03  0.24929382373E+03  0.11284787004E+04  0.12703245251E+04  0.92523973205E+02 0.  0.
         23    2    4    4    0    0 -0.14788881122E+03 -0.17262090730E+03 -0.79871075256E+02  0.25688826516E+03  0.89124149326E+02 0.  0.
          2    1    3    3  502    0  0.66876693678E+03 -0.76397287804E+02  0.26649939536E+04  0.27486866926E+04  0.00000000000E+00 0. -1.
         -2    1    3    3    0  502 -0.16940294683E+01 -0.27562862416E+00  0.68455491457E+00  0.18477885185E+01  0.00000000000E+00 0.  1.
         13    1    5    5    0    0 -0.24592647910E+03  0.67853926755E+02  0.50997343606E+03  0.57022530107E+03  0.00000000000E+00 0.  1.
        -13    1    5    5    0    0 -0.27325761699E+03  0.18143989697E+03  0.61850526434E+03  0.70009922402E+03  0.00000000000E+00 0. -1.
          4    1    6    6  503    0 -0.30380528845E+02 -0.62613031987E+01 -0.37826254699E+02  0.48918360512E+02  0.00000000000E+00 0.  1.
         -4    1    6    6    0  503 -0.11750828237E+03 -0.16635960410E+03 -0.42044820558E+02  0.20796990465E+03  0.00000000000E+00 0. -1.
<mgrwt>
<rscale>  0 0.21220745E+04</rscale>
<asrwt>0</asrwt>
<pdfrwt beam="1">  1        2 0.61477176E+00 0.21220745E+04</pdfrwt>
<pdfrwt beam="2">  1       -2 0.43343167E-01 0.21220745E+04</pdfrwt>
<totfact> 0.16137968E+00</totfact>
</mgrwt>
</event>
<event>
12    3  0.4688899E-008  0.3360385E+04  0.7818608E-02  0.8147698E-01
          1   -1    0    0  501    0  0.00000000000E+00  0.00000000000E+00  0.27542920249E+04  0.27542920249E+04  0.00000000000E+00 0. -1.
         -1   -1    0    0    0  501 -0.00000000000E+00 -0.00000000000E+00 -0.10249626442E+04  0.10249626442E+04  0.00000000000E+00 0.  1.
         23    2    1    2    0    0 -0.10550847560E+04  0.16680419739E+03 -0.46800081520E+03  0.11703099549E+04  0.97842448630E+02 0.  0.
        254    2    1    2    0    0  0.10550847560E+04 -0.16680419739E+03  0.21973301959E+04  0.26089447143E+04  0.91504374179E+03 0.  0.
         23    2    4    4    0    0  0.34791421904E+03 -0.69835209017E+02  0.83165830137E+02  0.37564395208E+03  0.90942636867E+02 0.  0.
         23    2    4    4    0    0  0.70717053699E+03 -0.96968988376E+02  0.21141643658E+04  0.22333007622E+04  0.91913957794E+02 0.  0.
          1    1    3    3  502    0 -0.55019879837E+03  0.39547992197E+02 -0.22547448460E+03  0.59592072008E+03  0.00000000000E+00 0. -1.
         -1    1    3    3    0  502 -0.50488595766E+03  0.12725620520E+03 -0.24252633060E+03  0.57438923478E+03  0.00000000000E+00 0.  1.
         13    1    5    5    0    0  0.35258393145E+03 -0.73481607972E+02  0.80044428201E+02  0.36894726712E+03  0.00000000000E+00 0. -1.
        -13    1    5    5    0    0 -0.46697124130E+01  0.36463989552E+01  0.31214019357E+01  0.66966849564E+01  0.00000000000E+00 0.  1.
          1    1    6    6  503    0  0.39208797545E+03 -0.89105578768E+01  0.11865271290E+04  0.12496635573E+04  0.00000000000E+00 0. -1.
         -1    1    6    6    0  503  0.31508256154E+03 -0.88058430499E+02  0.92763723679E+03  0.98363720490E+03  0.00000000000E+00 0.  1.
<mgrwt>
<rscale>  0 0.33603848E+04</rscale>
<asrwt>0</asrwt>
<pdfrwt beam="1">  1        1 0.42373723E+00 0.33603848E+04</pdfrwt>
<pdfrwt beam="2">  1       -1 0.15768656E+00 0.33603848E+04</pdfrwt>
<totfact> 0.22552537E-01</totfact>
</mgrwt>
</event>
<event>
12    3  0.4688899E-008  0.1601400E+04  0.7818608E-02  0.8819689E-01
          1   -1    0    0  501    0  0.00000000000E+00  0.00000000000E+00  0.45726967975E+03  0.45726967975E+03  0.00000000000E+00 0. -1.
         -1   -1    0    0    0  501 -0.00000000000E+00 -0.00000000000E+00 -0.14020615876E+04  0.14020615876E+04  0.00000000000E+00 0.  1.
         23    2    1    2    0    0  0.14376521675E+03 -0.49032724192E+03 -0.15843832803E+03  0.54287605183E+03  0.92317182296E+02 0.  0.
        254    2    1    2    0    0 -0.14376521675E+03  0.49032724192E+03 -0.78635357978E+03  0.13164552155E+04  0.92391186822E+03 0.  0.
         23    2    4    4    0    0 -0.28894446194E+03  0.35178801626E+03  0.35214648061E+02  0.46590447507E+03  0.92645550270E+02 0.  0.
         23    2    4    4    0    0  0.14517924519E+03  0.13853922566E+03 -0.82156822784E+03  0.85055074042E+03  0.90510103029E+02 0.  0.
          3    1    3    3  502    0  0.67389334157E+02 -0.28364371518E+03 -0.13503316207E+03  0.32129275494E+03  0.00000000000E+00 0. -1.
         -3    1    3    3    0  502  0.76375882589E+02 -0.20668352673E+03 -0.23405165963E+02  0.22158329688E+03  0.00000000000E+00 0.  1.
         13    1    5    5    0    0 -0.29430378116E+03  0.35164419272E+03  0.32027452962E+02  0.45966739239E+03  0.00000000000E+00 0. -1.
        -13    1    5    5    0    0  0.53593192252E+01  0.14382353482E+00  0.31871950988E+01  0.62370826806E+01  0.00000000000E+00 0.  1.
          1    1    6    6  503    0  0.48812706393E+02  0.56357834561E+02 -0.48958389734E+03  0.49522851125E+03  0.00000000000E+00 0. -1.
         -1    1    6    6    0  503  0.96366538799E+02  0.82181391098E+02 -0.33198433050E+03  0.35532222916E+03  0.00000000000E+00 0.  1.
<mgrwt>
<rscale>  0 0.16013997E+04</rscale>
<asrwt>0</asrwt>
<pdfrwt beam="1">  1        1 0.70349184E-01 0.16013997E+04</pdfrwt>
<pdfrwt beam="2">  1       -1 0.21570178E+00 0.16013997E+04</pdfrwt>
<totfact> 0.56532603E+00</totfact>
</mgrwt>
</event>
<event>
12    3  0.4688899E-008  0.1758240E+04  0.7818608E-02  0.8728828E-01
         -3   -1    0    0    0  501 -0.00000000000E+00  0.00000000000E+00  0.32812260585E+03  0.32812260585E+03  0.00000000000E+00 0.  1.
          3   -1    0    0  501    0  0.00000000000E+00 -0.00000000000E+00 -0.23553763904E+04  0.23553763904E+04  0.00000000000E+00 0. -1.
         23    2    1    2    0    0  0.44869463345E+03 -0.57443255246E+02 -0.51417364213E+02  0.46526891168E+03  0.95941717562E+02 0.  0.
        254    2    1    2    0    0 -0.44869463345E+03  0.57443255246E+02 -0.19758364204E+04  0.22182300846E+04  0.90110407085E+03 0.  0.
         23    2    4    4    0    0 -0.13991577257E+03  0.46041955433E+03 -0.89121731765E+03  0.10169294943E+04  0.91184974956E+02 0.  0.
         23    2    4    4    0    0 -0.30877886088E+03 -0.40297629908E+03 -0.10846191027E+04  0.12013005903E+04  0.94816811499E+02 0.  0.
          2    1    3    3  502    0  0.87026593393E+02  0.11747867316E+02 -0.40946431758E+02  0.96892985389E+02  0.00000000000E+00 0. -1.
         -2    1    3    3    0  502  0.36166804006E+03 -0.69191122562E+02 -0.10470932455E+02  0.36837592629E+03  0.00000000000E+00 0.  1.
         13    1    5    5    0    0 -0.13854369337E+03  0.45813408061E+03 -0.84892827543E+03  0.97455651843E+03  0.00000000000E+00 0. -1.
        -13    1    5    5    0    0 -0.13720791964E+01  0.22854737198E+01 -0.42289042222E+02  0.42372975864E+02  0.00000000000E+00 0.  1.
          4    1    6    6  503    0 -0.25339782096E+03 -0.25968703788E+03 -0.76067232741E+03  0.84277529804E+03  0.00000000000E+00 0. -1.
         -4    1    6    6    0  503 -0.55381039927E+02 -0.14328926120E+03 -0.32394677530E+03  0.35852529225E+03  0.00000000000E+00 0.  1.
<mgrwt>
<rscale>  0 0.17582403E+04</rscale>
<asrwt>0</asrwt>
<pdfrwt beam="1">  1        3 0.36236559E+00 0.17582403E+04</pdfrwt>
<pdfrwt beam="2">  1       -3 0.50480402E-01 0.17582403E+04</pdfrwt>
<totfact> 0.17133476E-01</totfact>
</mgrwt>
</event>
<event>
12    3  0.4688899E-008  0.1321566E+04  0.7818608E-02  0.9012636E-01
         -1   -1    0    0    0  501 -0.00000000000E+00  0.00000000000E+00  0.66433046093E+03  0.66433046093E+03  0.00000000000E+00 0.  1.
          1   -1    0    0  501    0  0.00000000000E+00 -0.00000000000E+00 -0.65725448779E+03  0.65725448779E+03  0.00000000000E+00 0. -1.
         23    2    1    2    0    0  0.17025121368E+03 -0.28291429559E+03 -0.91191685739E+02  0.35456710874E+03  0.91520143379E+02 0.  0.
        254    2    1    2    0    0 -0.17025121368E+03  0.28291429559E+03  0.98267658881E+02  0.96701783999E+03  0.90357124548E+03 0.  0.
         23    2    4    4    0    0 -0.39398140701E+03  0.49632902976E+03  0.57054076907E+02  0.64197896327E+03  0.85545115181E+02 0.  0.
         23    2    4    4    0    0  0.22373019334E+03 -0.21341473417E+03  0.41213581974E+02  0.32503887672E+03  0.91381966871E+02 0.  0.
          1    1    3    3  502    0  0.17238429756E+03 -0.26326487544E+03 -0.10352064985E+03  0.33127219266E+03  0.00000000000E+00 0. -1.
         -1    1    3    3    0  502 -0.21330838815E+01 -0.19649420149E+02  0.12328964110E+02  0.23294916078E+02  0.00000000000E+00 0.  1.
         13    1    5    5    0    0 -0.11374722235E+01  0.13979477204E+02  0.11664229371E+02  0.18242090691E+02  0.00000000000E+00 0. -1.
        -13    1    5    5    0    0 -0.39284393479E+03  0.48234955256E+03  0.45389847536E+02  0.62373687258E+03  0.00000000000E+00 0.  1.
          3    1    6    6  503    0  0.13584920608E+03 -0.15992730137E+03  0.64560521387E+02  0.21954455000E+03  0.00000000000E+00 0. -1.
         -3    1    6    6    0  503  0.87880987259E+02 -0.53487432804E+02 -0.23346939414E+02  0.10549432672E+03  0.00000000000E+00 0.  1.
<mgrwt>
<rscale>  0 0.13215660E+04</rscale>
<asrwt>0</asrwt>
<pdfrwt beam="1">  1        1 0.10111608E+00 0.13215660E+04</pdfrwt>
<pdfrwt beam="2">  1       -1 0.10220469E+00 0.13215660E+04</pdfrwt>
<totfact> 0.26649916E+01</totfact>
</mgrwt>
</event>
<event>
12    3  0.5464419E-008  0.1680515E+04  0.7818608E-02  0.8772556E-01
         -1   -1    0    0    0  501 -0.00000000000E+00  0.00000000000E+00  0.46549222758E+03  0.46549222758E+03  0.00000000000E+00 0.  1.
          1   -1    0    0  501    0  0.00000000000E+00 -0.00000000000E+00 -0.15167451011E+04  0.15167451011E+04  0.00000000000E+00 0. -1.
         23    2    1    2    0    0 -0.10687362847E+03 -0.29691484163E+03  0.22100670798E+03  0.39573364020E+03  0.90447517231E+02 0.  0.
        254    2    1    2    0    0  0.10687362847E+03  0.29691484163E+03 -0.12722595815E+04  0.15865036885E+04  0.89373884060E+03 0.  0.
         23    2    4    4    0    0 -0.22561306457E+02  0.17217969254E+03 -0.13544721003E+04  0.13681850968E+04  0.84740365290E+02 0.  0.
         23    2    4    4    0    0  0.12943493492E+03  0.12473514909E+03  0.82212518828E+02  0.21831859167E+03  0.92692229544E+02 0.  0.
          3    1    3    3  502    0 -0.10473474129E+02  0.78167177729E+00 -0.29761241175E+01  0.10916134200E+02  0.00000000000E+00 0. -1.
         -3    1    3    3    0  502 -0.96400154339E+02 -0.29769651341E+03  0.22398283209E+03  0.38481750600E+03  0.00000000000E+00 0.  1.
         13    1    5    5    0    0  0.17605733981E+02  0.72482046991E+02 -0.79427502680E+03  0.79776965799E+03  0.00000000000E+00 0. -1.
        -13    1    5    5    0    0 -0.40167040438E+02  0.99697645550E+02 -0.56019707350E+03  0.57041543880E+03  0.00000000000E+00 0.  1.
          2    1    6    6  503    0  0.21773841867E+02  0.84250797255E+02  0.40315636266E+02  0.95904366716E+02  0.00000000000E+00 0. -1.
         -2    1    6    6    0  503  0.10766109306E+03  0.40484351835E+02  0.41896882562E+02  0.12241422495E+03  0.00000000000E+00 0.  1.
<mgrwt>
<rscale>  0 0.16805155E+04</rscale>
<asrwt>0</asrwt>
<pdfrwt beam="1">  1        1 0.23334540E+00 0.16805155E+04</pdfrwt>
<pdfrwt beam="2">  1       -1 0.71614189E-01 0.16805155E+04</pdfrwt>
<totfact> 0.11949359E+01</totfact>
</mgrwt>
</event>
<event>
12    3  0.4688899E-008  0.2011098E+04  0.7818608E-02  0.8601450E-01
         -2   -1    0    0    0  501 -0.00000000000E+00  0.00000000000E+00  0.21894168258E+03  0.21894168258E+03  0.00000000000E+00 0. -1.
          2   -1    0    0  501    0  0.00000000000E+00 -0.00000000000E+00 -0.46182551409E+04  0.46182551409E+04  0.00000000000E+00 0.  1.
         23    2    1    2    0    0  0.16399904893E+03 -0.80941556180E+03 -0.18030674128E+04  0.19859243425E+04  0.10389494232E+03 0.  0.
        254    2    1    2    0    0 -0.16399904893E+03  0.80941556180E+03 -0.25962460455E+04  0.28512724810E+04  0.84095897196E+03 0.  0.
         23    2    4    4    0    0 -0.21142351623E+03  0.37761817787E+02 -0.14349311732E+04  0.14535541076E+04  0.87556917166E+02 0.  0.
         23    2    4    4    0    0  0.47424467303E+02  0.77165374401E+03 -0.11613148722E+04  0.13977183734E+04  0.85239885382E+02 0.  0.
          2    1    3    3  502    0 -0.12108167967E+02 -0.12123562403E+03 -0.27875692949E+03  0.30422049570E+03  0.00000000000E+00 0.  1.
         -2    1    3    3    0  502  0.17610721690E+03 -0.68817993777E+03 -0.15243104833E+04  0.16817038468E+04  0.00000000000E+00 0. -1.
         13    1    5    5    0    0 -0.71885796213E+02 -0.13877350827E+02 -0.69261430191E+03  0.69647305747E+03  0.00000000000E+00 0.  1.
        -13    1    5    5    0    0 -0.13953772002E+03  0.51639168613E+02 -0.74231687132E+03  0.75708105015E+03  0.00000000000E+00 0. -1.
          3    1    6    6  503    0  0.63450631003E+02  0.54937132565E+03 -0.78219426303E+03  0.95794712857E+03  0.00000000000E+00 0. -1.
         -3    1    6    6    0  503 -0.16026163700E+02  0.22228241836E+03 -0.37912060920E+03  0.43977124480E+03  0.00000000000E+00 0.  1.
<mgrwt>
<rscale>  0 0.20110978E+04</rscale>
<asrwt>0</asrwt>
<pdfrwt beam="1">  1        2 0.71050073E+00 0.20110978E+04</pdfrwt>
<pdfrwt beam="2">  1       -2 0.33683339E-01 0.20110978E+04</pdfrwt>
<totfact> 0.72910619E-01</totfact>
</mgrwt>
</event>
<event>
12    3  0.4688899E-008  0.1234567E+04  0.7818608E-02  0.9083127E-01
          4   -1    0    0  501    0  0.00000000000E+00  0.00000000000E+00  0.23557385570E+03  0.23557385570E+03  0.00000000000E+00 0.  1.
         -4   -1    0    0    0  501 -0.00000000000E+00 -0.00000000000E+00 -0.16174920855E+04  0.16174920855E+04  0.00000000000E+00 0. -1.
         23    2    1    2    0    0  0.24094876449E+03 -0.68719204560E+01 -0.52924577422E+03  0.58854384775E+03  0.90439155172E+02 0.  0.
        254    2    1    2    0    0 -0.24094876449E+03  0.68719204560E+01 -0.85267245560E+03  0.12645220935E+04  0.90214315822E+03 0.  0.
         23    2    4    4    0    0  0.56141742852E+01 -0.17748846485E+03  0.12347589986E+03  0.23692464556E+03  0.96712541669E+02 0.  0.
         23    2    4    4    0    0 -0.24656293878E+03  0.18436038531E+03 -0.97614835546E+03  0.10275974479E+04  0.91152995776E+02 0.  0.
          1    1    3    3  502    0  0.42801474042E+02  0.22611402757E+02 -0.17506231237E+03  0.18163164627E+03  0.00000000000E+00 0. -1.
         -1    1    3    3    0  502  0.19814729045E+03 -0.29483323213E+02 -0.35418346185E+03  0.40691220147E+03  0.00000000000E+00 0.  1.
         13    1    5    5    0    0  0.15899585993E+02 -0.69010716909E+02 -0.18630931416E+01  0.70843115396E+02  0.00000000000E+00 0. -1.
        -13    1    5    5    0    0 -0.10285411708E+02 -0.10847774795E+03  0.12533899300E+03  0.16608153016E+03  0.00000000000E+00 0.  1.
          4    1    6    6  503    0  0.23395418785E+01  0.21448620815E+02 -0.41851894955E+02  0.47086069090E+02  0.00000000000E+00 0. -1.
         -4    1    6    6    0  503 -0.24890248066E+03  0.16291176450E+03 -0.93429646051E+03  0.98051137883E+03  0.00000000000E+00 0.  1.
<mgrwt>
<rscale>  0 0.12345669E+04</rscale>
<asrwt>0</asrwt>
<pdfrwt beam="1">  1        4 0.36242131E-01 0.12345669E+04</pdfrwt>
<pdfrwt beam="2">  1       -4 0.24884494E+00 0.12345669E+04</pdfrwt>
<totfact> 0.94259754E-01</totfact>
</mgrwt>
</event>
<event>
12    3  0.4688899E-008  0.1492842E+04  0.7818608E-02  0.8889227E-01
          2   -1    0    0  501    0  0.00000000000E+00  0.00000000000E+00  0.54300694369E+03  0.54300694369E+03  0.00000000000E+00 0. -1.
         -2   -1    0    0    0  501 -0.00000000000E+00 -0.00000000000E+00 -0.10260359749E+04  0.10260359749E+04  0.00000000000E+00 0.  1.
         23    2    1    2    0    0  0.38782593515E+03  0.11910182869E+03 -0.41847773276E+03  0.59075977047E+03  0.96329081878E+02 0.  0.
        254    2    1    2    0    0 -0.38782593515E+03 -0.11910182869E+03 -0.64551298446E+02  0.97828314813E+03  0.88784956282E+03 0.  0.
         23    2    4    4    0    0 -0.43692292432E+03 -0.15206302932E+03  0.32459157006E+03  0.57244290830E+03  0.91139394458E+02 0.  0.
         23    2    4    4    0    0  0.49096989176E+02  0.32961200626E+02 -0.38914286851E+03  0.40584023983E+03  0.98879588681E+02 0.  0.
          3    1    3    3  502    0  0.17609442144E+02  0.27468526564E+02 -0.54750715086E+02  0.63735807884E+02  0.00000000000E+00 0. -1.
         -3    1    3    3    0  502  0.37021649300E+03  0.91633302131E+02 -0.36372701768E+03  0.52702396258E+03  0.00000000000E+00 0.  1.
         13    1    5    5    0    0 -0.14577431985E+03 -0.78595572780E+02  0.15877185030E+03  0.22942518788E+03  0.00000000000E+00 0.  1.
        -13    1    5    5    0    0 -0.29114860447E+03 -0.73467456540E+02  0.16581971977E+03  0.34301772041E+03  0.00000000000E+00 0. -1.
          3    1    6    6  503    0  0.43075537607E+02 -0.35864376337E+01 -0.56482595397E+02  0.71124173513E+02  0.00000000000E+00 0. -1.
         -3    1    6    6    0  503  0.60214515688E+01  0.36547638260E+02 -0.33266027311E+03  0.33471606631E+03  0.00000000000E+00 0.  1.
<mgrwt>
<rscale>  0 0.14928425E+04</rscale>
<asrwt>0</asrwt>
<pdfrwt beam="1">  1        2 0.83539530E-01 0.14928425E+04</pdfrwt>
<pdfrwt beam="2">  1       -2 0.15785169E+00 0.14928425E+04</pdfrwt>
<totfact> 0.14107055E+01</totfact>
</mgrwt>
</event>
<event>
12    3  0.4688899E-008  0.1300411E+04  0.7818608E-02  0.9029239E-01
         -2   -1    0    0    0  501 -0.00000000000E+00  0.00000000000E+00  0.64559904494E+03  0.64559904494E+03  0.00000000000E+00 0. -1.
          2   -1    0    0  501    0  0.00000000000E+00 -0.00000000000E+00 -0.65484458427E+03  0.65484458427E+03  0.00000000000E+00 0.  1.
         23    2    1    2    0    0  0.63491495826E+02  0.28168670592E+03  0.20137950712E+03  0.36386957907E+03  0.92026052601E+02 0.  0.
        254    2    1    2    0    0 -0.63491495826E+02 -0.28168670592E+03 -0.21062504644E+03  0.93657405014E+03  0.86569594597E+03 0.  0.
         23    2    4    4    0    0 -0.33266387522E+03 -0.32506638312E+03  0.13044554489E+03  0.49058570612E+03  0.85585556961E+02 0.  0.
         23    2    4    4    0    0  0.26917237939E+03  0.43379677204E+02 -0.34107059133E+03  0.44598834401E+03  0.90779339633E+02 0.  0.
          2    1    3    3  502    0  0.45861799070E+02  0.25766990670E+03  0.14278371400E+03  0.29813465819E+03  0.00000000000E+00 0. -1.
         -2    1    3    3    0  502  0.17629696756E+02  0.24016799220E+02  0.58595793120E+02  0.65734920886E+02  0.00000000000E+00 0.  1.
         13    1    5    5    0    0 -0.31434157416E+03 -0.26830342071E+03  0.11350831741E+03  0.42858078461E+03  0.00000000000E+00 0. -1.
        -13    1    5    5    0    0 -0.18322301055E+02 -0.56762962413E+02  0.16937227474E+02  0.62004921517E+02  0.00000000000E+00 0.  1.
          1    1    6    6  503    0  0.26044523103E+03  0.33759476265E+02 -0.28136646790E+03  0.38488765876E+03  0.00000000000E+00 0. -1.
         -1    1    6    6    0  503  0.87271483627E+01  0.96202009390E+01 -0.59704123425E+02  0.61100685255E+02  0.00000000000E+00 0.  1.
<mgrwt>
<rscale>  0 0.13004108E+04</rscale>
<asrwt>0</asrwt>
<pdfrwt beam="1">  1        2 0.10074532E+00 0.13004108E+04</pdfrwt>
<pdfrwt beam="2">  1       -2 0.99322930E-01 0.13004108E+04</pdfrwt>
<totfact> 0.36662418E+01</totfact>
</mgrwt>
</event>
<event>
12    3  0.4688899E-008  0.1846142E+04  0.7818608E-02  0.8682140E-01
          1   -1    0    0  501    0  0.00000000000E+00  0.00000000000E+00  0.52809946638E+03  0.52809946638E+03  0.00000000000E+00 0. -1.
         -1   -1    0    0    0  501 -0.00000000000E+00 -0.00000000000E+00 -0.16134453853E+04  0.16134453853E+04  0.00000000000E+00 0.  1.
         23    2    1    2    0    0  0.44895862682E+03 -0.47622857191E+03 -0.10901164209E+03  0.67021745703E+03  0.94606555326E+02 0.  0.
        254    2    1    2    0    0 -0.44895862682E+03  0.47622857191E+03 -0.97633427688E+03  0.14713273947E+04  0.88499614736E+03 0.  0.
         23    2    4    4    0    0 -0.61918066865E+03  0.28979317540E+03 -0.98528576525E+03  0.12027702859E+04  0.92214622004E+02 0.  0.
         23    2    4    4    0    0  0.17022204183E+03  0.18643539651E+03  0.89514883708E+01  0.26855710878E+03  0.91154215126E+02 0.  0.
          4    1    3    3  502    0  0.15726868658E+03 -0.19819667272E+03 -0.83523095723E+02  0.26644224210E+03  0.00000000000E+00 0. -1.
         -4    1    3    3    0  502  0.29168994023E+03 -0.27803189918E+03 -0.25488546364E+02  0.40377521493E+03  0.00000000000E+00 0.  1.
         13    1    5    5    0    0 -0.99900242849E+02  0.15680625484E+02 -0.11796665098E+03  0.15537719035E+03  0.00000000000E+00 0. -1.
        -13    1    5    5    0    0 -0.51928042580E+03  0.27411254991E+03 -0.86731911427E+03  0.10473930956E+04  0.00000000000E+00 0.  1.
          2    1    6    6  503    0  0.10866454561E+03  0.65901948423E+02 -0.23828431792E+02  0.12930137061E+03  0.00000000000E+00 0. -1.
         -2    1    6    6    0  503  0.61557496220E+02  0.12053344809E+03  0.32779920162E+02  0.13925573817E+03  0.00000000000E+00 0.  1.
<mgrwt>
<rscale>  0 0.18461415E+04</rscale>
<asrwt>0</asrwt>
<pdfrwt beam="1">  1        1 0.81246072E-01 0.18461415E+04</pdfrwt>
<pdfrwt beam="2">  1       -1 0.24822236E+00 0.18461415E+04</pdfrwt>
<totfact> 0.27647386E+00</totfact>
</mgrwt>
</event>
<event>
12    3  0.4688899E-008  0.1910060E+04  0.7818608E-02  0.8649865E-01
         -2   -1    0    0    0  501 -0.00000000000E+00  0.00000000000E+00  0.60432787917E+03  0.60432787917E+03  0.00000000000E+00 0.  1.
          2   -1    0    0  501    0  0.00000000000E+00 -0.00000000000E+00 -0.15092509714E+04  0.15092509714E+04  0.00000000000E+00 0. -1.
         23    2    1    2    0    0 -0.61613034932E+03  0.36624756575E+03 -0.55387376901E+03  0.91066821709E+03  0.93736667591E+02 0.  0.
        254    2    1    2    0    0  0.61613034932E+03 -0.36624756575E+03 -0.35104932320E+03  0.12029106335E+04  0.90000248777E+03 0.  0.
         23    2    4    4    0    0  0.41667653209E+03 -0.65338731264E+03 -0.31190413293E+03  0.84042080133E+03  0.92133720483E+02 0.  0.
         23    2    4    4    0    0  0.19945381723E+03  0.28713974690E+03 -0.39145190268E+02  0.36248983213E+03  0.87381193726E+02 0.  0.
          3    1    3    3  502    0 -0.58448192277E+03  0.36209368694E+03 -0.54550055210E+03  0.87766839325E+03  0.00000000000E+00 0.  1.
         -3    1    3    3    0  502 -0.31648426547E+02  0.41538788085E+01 -0.83732169120E+01  0.32999823841E+02  0.00000000000E+00 0. -1.
         13    1    5    5    0    0  0.36418640299E+03 -0.57983306271E+03 -0.24217708797E+03  0.72628359384E+03  0.00000000000E+00 0.  1.
        -13    1    5    5    0    0  0.52490129104E+02 -0.73554249930E+02 -0.69727044955E+02  0.11413720749E+03  0.00000000000E+00 0. -1.
          1    1    6    6  503    0 -0.66518508698E+01  0.58118922385E+00 -0.39519925649E+01  0.77590686388E+01  0.00000000000E+00 0. -1.
         -1    1    6    6    0  503  0.20610566810E+03  0.28655855767E+03 -0.35193197703E+02  0.35473076349E+03  0.00000000000E+00 0.  1.
<mgrwt>
<rscale>  0 0.19100601E+04</rscale>
<asrwt>0</asrwt>
<pdfrwt beam="1">  1        2 0.23219245E+00 0.19100601E+04</pdfrwt>
<pdfrwt beam="2">  1       -2 0.92973521E-01 0.19100601E+04</pdfrwt>
<totfact> 0.11504054E+01</totfact>
</mgrwt>
</event>
<event>
12    3  0.4688899E-008  0.1456544E+04  0.7818608E-02  0.8913876E-01
          2   -1    0    0  501    0  0.00000000000E+00  0.00000000000E+00  0.19279161337E+04  0.19279161337E+04  0.00000000000E+00 0. -1.
         -2   -1    0    0    0  501 -0.00000000000E+00 -0.00000000000E+00 -0.27510526340E+03  0.27510526340E+03  0.00000000000E+00 0.  1.
         23    2    1    2    0    0  0.25357516333E+03 -0.27968724752E+02 -0.33370433231E+02  0.27362398454E+03  0.93133700021E+02 0.  0.
        254    2    1    2    0    0 -0.25357516333E+03  0.27968724752E+02  0.16861813035E+04  0.19293974126E+04  0.90237706876E+03 0.  0.
         23    2    4    4    0    0 -0.19249556467E+03 -0.28290549318E+02  0.17661513846E+04  0.17791520111E+04  0.90753884070E+02 0.  0.
         23    2    4    4    0    0 -0.61079598657E+02  0.56259274070E+02 -0.79970081070E+02  0.15024540152E+03  0.96346476431E+02 0.  0.
          4    1    3    3  502    0  0.79828293262E+02 -0.13706923442E+02  0.32485831630E+02  0.87268352867E+02  0.00000000000E+00 0. -1.
         -4    1    3    3    0  502  0.17374687007E+03 -0.14261801310E+02 -0.65856264861E+02  0.18635563167E+03  0.00000000000E+00 0.  1.
         13    1    5    5    0    0 -0.20118881171E+03 -0.32520097245E+02  0.17175091981E+04  0.17295584235E+04  0.00000000000E+00 0.  1.
        -13    1    5    5    0    0  0.86932470344E+01  0.42295479270E+01  0.48642186550E+02  0.49593587610E+02  0.00000000000E+00 0. -1.
          3    1    6    6  503    0  0.11738068500E+02 -0.19089157231E+02 -0.13895047088E+02  0.26367603408E+02  0.00000000000E+00 0. -1.
         -3    1    6    6    0  503 -0.72817667157E+02  0.75348431300E+02 -0.66075033982E+02  0.12387779811E+03  0.00000000000E+00 0.  1.
<mgrwt>
<rscale>  0 0.14565437E+04</rscale>
<asrwt>0</asrwt>
<pdfrwt beam="1">  1        2 0.29660247E+00 0.14565437E+04</pdfrwt>
<pdfrwt beam="2">  1       -2 0.42323888E-01 0.14565437E+04</pdfrwt>
<totfact> 0.37591356E+01</totfact>
</mgrwt>
</event>
<event>
12    3  0.4688899E-008  0.2104385E+04  0.7818608E-02  0.8559314E-01
         -3   -1    0    0    0  501 -0.00000000000E+00  0.00000000000E+00  0.75264864862E+03  0.75264864862E+03  0.00000000000E+00 0.  1.
          3   -1    0    0  501    0  0.00000000000E+00 -0.00000000000E+00 -0.14709511027E+04  0.14709511027E+04  0.00000000000E+00 0. -1.
         23    2    1    2    0    0 -0.49133953302E+03  0.19265171615E+03  0.44979998534E+03  0.69937579110E+03  0.90979392818E+02 0.  0.
        254    2    1    2    0    0  0.49133953302E+03 -0.19265171615E+03 -0.11681024394E+04  0.15242239602E+04  0.82478248738E+03 0.  0.
         23    2    4    4    0    0  0.66510569645E+03  0.27566461958E+02 -0.70028307023E+03  0.97025854023E+03  0.88768007545E+02 0.  0.
         23    2    4    4    0    0 -0.17376616343E+03 -0.22021817811E+03 -0.46781936917E+03  0.55396541997E+03  0.96602271349E+02 0.  0.
          2    1    3    3  502    0 -0.75835062450E+02  0.31036935511E+02  0.30747805066E+02  0.87519572548E+02  0.00000000000E+00 0. -1.
         -2    1    3    3    0  502 -0.41550447057E+03  0.16161478064E+03  0.41905218027E+03  0.61185621855E+03  0.00000000000E+00 0.  1.
         13    1    5    5    0    0  0.24497155769E+03  0.51389067327E+02 -0.27860514541E+03  0.37453000864E+03  0.00000000000E+00 0.  1.
        -13    1    5    5    0    0  0.42013413876E+03 -0.23822605369E+02 -0.42167792481E+03  0.59572853159E+03  0.00000000000E+00 0. -1.
          4    1    6    6  503    0 -0.45974985922E+02 -0.70863515719E+01 -0.96990869597E+02  0.10756925441E+03  0.00000000000E+00 0. -1.
         -4    1    6    6    0  503 -0.12779117751E+03 -0.21313182654E+03 -0.37082849957E+03  0.44639616556E+03  0.00000000000E+00 0.  1.
<mgrwt>
<rscale>  0 0.21043853E+04</rscale>
<asrwt>0</asrwt>
<pdfrwt beam="1">  1        3 0.22630017E+00 0.21043853E+04</pdfrwt>
<pdfrwt beam="2">  1       -3 0.11579210E+00 0.21043853E+04</pdfrwt>
<totfact> 0.15080762E-01</totfact>
</mgrwt>
</event>
<event>
12    3  0.4688899E-008  0.1260879E+04  0.7818608E-02  0.9061177E-01
          1   -1    0    0  501    0  0.00000000000E+00  0.00000000000E+00  0.13043989026E+04  0.13043989026E+04  0.00000000000E+00 0. -1.
         -1   -1    0    0    0  501 -0.00000000000E+00 -0.00000000000E+00 -0.30470300388E+03  0.30470300388E+03  0.00000000000E+00 0.  1.
         23    2    1    2    0    0  0.25364443534E+03 -0.54236225139E+02  0.58250204577E+02  0.28115357876E+03  0.91526940422E+02 0.  0.
        254    2    1    2    0    0 -0.25364443534E+03  0.54236225139E+02  0.94144569417E+03  0.13279483278E+04  0.89991649525E+03 0.  0.
         23    2    4    4    0    0  0.19891188848E+03 -0.24226370770E+03  0.13630158016E+03  0.35355386844E+03  0.90358030567E+02 0.  0.
         23    2    4    4    0    0 -0.45255632381E+03  0.29649993284E+03  0.80514411401E+03  0.97439445931E+03  0.92022180100E+02 0.  0.
          4    1    3    3  502    0  0.38027665789E+02  0.24144533084E+02  0.28331317220E+01  0.45134116570E+02  0.00000000000E+00 0. -1.
         -4    1    3    3    0  502  0.21561676955E+03 -0.78380758223E+02  0.55417072855E+02  0.23601946219E+03  0.00000000000E+00 0.  1.
         13    1    5    5    0    0  0.19124776661E+03 -0.18910404660E+03  0.93051714241E+02  0.28459562575E+03  0.00000000000E+00 0. -1.
        -13    1    5    5    0    0  0.76641218644E+01 -0.53159661099E+02  0.43249865920E+02  0.68958242685E+02  0.00000000000E+00 0.  1.
          1    1    6    6  503    0 -0.35040792779E+03  0.18424451117E+03  0.55319732869E+03  0.68026394894E+03  0.00000000000E+00 0. -1.
         -1    1    6    6    0  503 -0.10214839602E+03  0.11225542167E+03  0.25194678532E+03  0.29413051038E+03  0.00000000000E+00 0.  1.
<mgrwt>
<rscale>  0 0.12608795E+04</rscale>
<asrwt>0</asrwt>
<pdfrwt beam="1">  1        1 0.20067675E+00 0.12608795E+04</pdfrwt>
<pdfrwt beam="2">  1       -1 0.46877386E-01 0.12608795E+04</pdfrwt>
<totfact> 0.40124861E+01</totfact>
</mgrwt>
</event>
<event>
12    3  0.4688899E-008  0.1731787E+04  0.7818608E-02  0.8743440E-01
          2   -1    0    0  501    0  0.00000000000E+00  0.00000000000E+00  0.64436876812E+03  0.64436876812E+03  0.00000000000E+00 0. -1.
         -2   -1    0    0    0  501 -0.00000000000E+00 -0.00000000000E+00 -0.11635750298E+04  0.11635750298E+04  0.00000000000E+00 0.  1.
         23    2    1    2    0    0 -0.24027101890E+03  0.12039749140E+02  0.41478125926E+03  0.48807320695E+03  0.91087014597E+02 0.  0.
        254    2    1    2    0    0  0.24027101890E+03 -0.12039749140E+02 -0.93398752090E+03  0.13198705909E+04  0.90102750763E+03 0.  0.
         23    2    4    4    0    0  0.18627809544E+03  0.12314620758E+02  0.13319563581E+03  0.24688309515E+03  0.91427602763E+02 0.  0.
         23    2    4    4    0    0  0.53992923460E+02 -0.24354369898E+02 -0.10671831567E+04  0.10729874958E+04  0.94413478911E+02 0.  0.
          2    1    3    3  502    0 -0.78792902844E+02  0.18281792146E+01  0.63117689480E+02  0.10097280081E+03  0.00000000000E+00 0.  1.
         -2    1    3    3    0  502 -0.16147811605E+03  0.10211569925E+02  0.35166356978E+03  0.38710040614E+03  0.00000000000E+00 0. -1.
         13    1    5    5    0    0  0.19536780617E+02  0.48775766028E+01  0.62424378414E+02  0.65591764504E+02  0.00000000000E+00 0.  1.
        -13    1    5    5    0    0  0.16674131482E+03  0.74370441555E+01  0.70771257400E+02  0.18129133064E+03  0.00000000000E+00 0. -1.
          1    1    6    6  503    0  0.58442069277E+02 -0.95953871814E+01 -0.10404057744E+04  0.10420900740E+04  0.00000000000E+00 0. -1.
         -1    1    6    6    0  503 -0.44491458164E+01 -0.14758982717E+02 -0.26777382351E+02  0.30897421816E+02  0.00000000000E+00 0.  1.
<mgrwt>
<rscale>  0 0.17317868E+04</rscale>
<asrwt>0</asrwt>
<pdfrwt beam="1">  1        2 0.99133656E-01 0.17317868E+04</pdfrwt>
<pdfrwt beam="2">  1       -2 0.17901154E+00 0.17317868E+04</pdfrwt>
<totfact> 0.79401141E+00</totfact>
</mgrwt>
</event>
<event>
12    3  0.4688899E-008  0.2922363E+04  0.7818608E-02  0.8266255E-01
         -3   -1    0    0    0  501 -0.00000000000E+00  0.00000000000E+00  0.84103079345E+03  0.84103079345E+03  0.00000000000E+00 0.  1.
          3   -1    0    0  501    0  0.00000000000E+00 -0.00000000000E+00 -0.25386120708E+04  0.25386120708E+04  0.00000000000E+00 0. -1.
         23    2    1    2    0    0  0.83945115205E+03 -0.33528261198E+03 -0.18698750363E+04  0.20799718973E+04  0.11295032383E+03 0.  0.
        254    2    1    2    0    0 -0.83945115205E+03  0.33528261198E+03  0.17229375899E+03  0.12996709669E+04  0.91780543486E+03 0.  0.
         23    2    4    4    0    0 -0.95716406943E+03  0.35312445157E+03  0.33624090051E+03  0.10778470094E+04  0.88522869372E+02 0.  0.
         23    2    4    4    0    0  0.11771291738E+03 -0.17841839588E+02 -0.16394714152E+03  0.22182395750E+03  0.90291421251E+02 0.  0.
          2    1    3    3  502    0  0.51072198093E+03 -0.22417072780E+03 -0.12676808871E+04  0.13849564212E+04  0.00000000000E+00 0. -1.
         -2    1    3    3    0  502  0.32872917112E+03 -0.11111188418E+03 -0.60219414920E+03  0.69501547615E+03  0.00000000000E+00 0.  1.
         13    1    5    5    0    0 -0.82191324980E+03  0.33513979772E+03  0.29226131040E+03  0.93449277566E+03  0.00000000000E+00 0. -1.
        -13    1    5    5    0    0 -0.13525081963E+03  0.17984653847E+02  0.43979590112E+02  0.14335423374E+03  0.00000000000E+00 0.  1.
          3    1    6    6  503    0  0.23164176492E+02 -0.32311114439E+02 -0.97682865716E+02  0.10546340334E+03  0.00000000000E+00 0. -1.
         -3    1    6    6    0  503  0.94548740886E+02  0.14469274851E+02 -0.66264275807E+02  0.11636055417E+03  0.00000000000E+00 0.  1.
<mgrwt>
<rscale>  0 0.29223627E+04</rscale>
<asrwt>0</asrwt>
<pdfrwt beam="1">  1        3 0.39055570E+00 0.29223627E+04</pdfrwt>
<pdfrwt beam="2">  1       -3 0.12938935E+00 0.29223627E+04</pdfrwt>
<totfact> 0.13121353E-02</totfact>
</mgrwt>
</event>
<event>
12    3  0.4688899E-008  0.1116265E+04  0.7818608E-02  0.9189482E-01
         -1   -1    0    0    0  501 -0.00000000000E+00  0.00000000000E+00  0.66155251908E+03  0.66155251908E+03  0.00000000000E+00 0.  1.
          1   -1    0    0  501    0  0.00000000000E+00 -0.00000000000E+00 -0.47088022770E+03  0.47088022770E+03  0.00000000000E+00 0. -1.
         23    2    1    2    0    0  0.16121787039E+03 -0.79800014797E+02 -0.93265603359E+02  0.22264704360E+03  0.92271280240E+02 0.  0.
        254    2    1    2    0    0 -0.16121787039E+03  0.79800014797E+02  0.28393789473E+03  0.90978570318E+03  0.84541708852E+03 0.  0.
         23    2    4    4    0    0 -0.32440259701E+03  0.82105133270E+02  0.50960608923E+03  0.61702225740E+03  0.95077873806E+02 0.  0.
         23    2    4    4    0    0  0.16318472661E+03 -0.23051184728E+01 -0.22566819450E+03  0.29276344578E+03  0.90275869451E+02 0.  0.
          3    1    3    3  502    0  0.15287206862E+03 -0.98138996868E+02 -0.87817581176E+02  0.20177477452E+03  0.00000000000E+00 0. -1.
         -3    1    3    3    0  502  0.83458017743E+01  0.18338982071E+02 -0.54480221827E+01  0.20872269075E+02  0.00000000000E+00 0.  1.
         13    1    5    5    0    0 -0.30047117978E+03  0.10003880314E+03  0.44909066681E+03  0.54952080855E+03  0.00000000000E+00 0. -1.
        -13    1    5    5    0    0 -0.23931417226E+02 -0.17933669874E+02  0.60515422428E+02  0.67501448853E+02  0.00000000000E+00 0.  1.
          4    1    6    6  503    0  0.15168648347E+03 -0.20483394577E+02 -0.22384975961E+03  0.27117719963E+03  0.00000000000E+00 0. -1.
         -4    1    6    6    0  503  0.11498243145E+02  0.18178276104E+02 -0.18184348910E+01  0.21586246153E+02  0.00000000000E+00 0.  1.
<mgrwt>
<rscale>  0 0.11162652E+04</rscale>
<asrwt>0</asrwt>
<pdfrwt beam="1">  1        1 0.72443112E-01 0.11162652E+04</pdfrwt>
<pdfrwt beam="2">  1       -1 0.10177731E+00 0.11162652E+04</pdfrwt>
<totfact> 0.43878926E+01</totfact>
</mgrwt>
</event>
<event>
12    3  0.4688899E-008  0.2280684E+04  0.7818608E-02  0.8485576E-01
         -1   -1    0    0    0  501 -0.00000000000E+00  0.00000000000E+00  0.82599943835E+03  0.82599943835E+03  0.00000000000E+00 0.  1.
          1   -1    0    0  501    0  0.00000000000E+00 -0.00000000000E+00 -0.15743101725E+04  0.15743101725E+04  0.00000000000E+00 0. -1.
         23    2    1    2    0    0  0.70820689461E+03  0.54149985011E+03  0.63419146719E+02  0.89737644056E+03  0.80519529701E+02 0.  0.
        254    2    1    2    0    0 -0.70820689461E+03 -0.54149985011E+03 -0.81172988088E+03  0.15029331703E+04  0.89728681124E+03 0.  0.
         23    2    4    4    0    0 -0.38812243213E+03  0.19093305495E+03 -0.17271100713E+03  0.47535785195E+03  0.95087021377E+02 0.  0.
         23    2    4    4    0    0 -0.32008446248E+03 -0.73243290506E+03 -0.63901887375E+03  0.10275753183E+04  0.93026288387E+02 0.  0.
          4    1    3    3  502    0  0.47245981238E+03  0.36603030735E+03  0.46539758824E+01  0.59767727053E+03  0.00000000000E+00 0. -1.
         -4    1    3    3    0  502  0.23574708223E+03  0.17546954276E+03  0.58765170837E+02  0.29969917003E+03  0.00000000000E+00 0.  1.
         13    1    5    5    0    0 -0.48364780534E+02  0.13618158711E+00 -0.42870560105E+02  0.64630143627E+02  0.00000000000E+00 0. -1.
        -13    1    5    5    0    0 -0.33975765159E+03  0.19079687336E+03 -0.12984044703E+03  0.41072770833E+03  0.00000000000E+00 0.  1.
          4    1    6    6  503    0 -0.19690880436E+03 -0.53642605513E+03 -0.42310430689E+03  0.71101564284E+03  0.00000000000E+00 0.  1.
         -4    1    6    6    0  503 -0.12317565812E+03 -0.19600684993E+03 -0.21591456687E+03  0.31655967551E+03  0.00000000000E+00 0. -1.
<mgrwt>
<rscale>  0 0.22806835E+04</rscale>
<asrwt>0</asrwt>
<pdfrwt beam="1">  1        1 0.24220156E+00 0.22806835E+04</pdfrwt>
<pdfrwt beam="2">  1       -1 0.12707684E+00 0.22806835E+04</pdfrwt>
<totfact> 0.28259034E+00</totfact>
</mgrwt>
</event>
<event>
12    3  0.4688899E-008  0.2257459E+04  0.7818608E-02  0.8494886E-01
          1   -1    0    0  501    0  0.00000000000E+00  0.00000000000E+00  0.24170691114E+04  0.24170691114E+04  0.00000000000E+00 0. -1.
         -1   -1    0    0    0  501 -0.00000000000E+00 -0.00000000000E+00 -0.52709697595E+03  0.52709697595E+03  0.00000000000E+00 0.  1.
         23    2    1    2    0    0  0.48308597818E+01  0.94381866498E+03  0.89632059421E+03  0.13048222892E+04  0.91397972349E+02 0.  0.
        254    2    1    2    0    0 -0.48308597818E+01 -0.94381866498E+03  0.99365154124E+03  0.16393437981E+04  0.89960418706E+03 0.  0.
         23    2    4    4    0    0 -0.27006355395E+03 -0.43166957386E+03  0.37001583670E+02  0.51852057714E+03  0.90672639545E+02 0.  0.
         23    2    4    4    0    0  0.26523269417E+03 -0.51214909112E+03  0.95664995757E+03  0.11208232210E+04  0.91763160978E+02 0.  0.
          1    1    3    3  502    0 -0.17817449457E+02  0.29423204762E+03  0.22902083263E+03  0.37328340592E+03  0.00000000000E+00 0. -1.
         -1    1    3    3    0  502  0.22648309239E+02  0.64958661736E+03  0.66729976158E+03  0.93153888333E+03  0.00000000000E+00 0.  1.
         13    1    5    5    0    0 -0.14675367323E+01 -0.34422930209E+02 -0.12022303012E+02  0.36491472400E+02  0.00000000000E+00 0. -1.
        -13    1    5    5    0    0 -0.26859601722E+03 -0.39724664365E+03  0.49023886682E+02  0.48202910474E+03  0.00000000000E+00 0.  1.
          3    1    6    6  503    0  0.44579714078E+02 -0.99636124876E+02  0.25654258983E+03  0.27879886779E+03  0.00000000000E+00 0. -1.
         -3    1    6    6    0  503  0.22065298009E+03 -0.41251296625E+03  0.70010736775E+03  0.84202435316E+03  0.00000000000E+00 0.  1.
<mgrwt>
<rscale>  0 0.22574586E+04</rscale>
<asrwt>0</asrwt>
<pdfrwt beam="1">  1        1 0.37185678E+00 0.22574586E+04</pdfrwt>
<pdfrwt beam="2">  1       -1 0.81091844E-01 0.22574586E+04</pdfrwt>
<totfact> 0.21253674E+00</totfact>
</mgrwt>
</event>
<event>
12    3  0.4688899E-008  0.1590571E+04  0.7818608E-02  0.8826361E-01
          2   -1    0    0  501    0  0.00000000000E+00  0.00000000000E+00  0.31202039455E+04  0.31202039455E+04  0.00000000000E+00 0. -1.
         -2   -1    0    0    0  501 -0.00000000000E+00 -0.00000000000E+00 -0.20270448036E+03  0.20270448036E+03  0.00000000000E+00 0.  1.
         23    2    1    2    0    0 -0.28451339950E+03 -0.22799911697E+03  0.17463903562E+03  0.41465635820E+03  0.92247660142E+02 0.  0.
        254    2    1    2    0    0  0.28451339950E+03  0.22799911697E+03  0.27428604295E+04  0.29082520676E+04  0.89538554899E+03 0.  0.
         23    2    4    4    0    0 -0.60194260491E+02  0.41937718641E+03  0.68077775139E+03  0.80682984180E+03  0.89529175997E+02 0.  0.
         23    2    4    4    0    0  0.34470765999E+03 -0.19137806944E+03  0.20620826781E+04  0.21014222258E+04  0.91331613062E+02 0.  0.
          1    1    3    3  502    0 -0.12640864035E+03 -0.77333592466E+02  0.11692588649E+03  0.18876252756E+03  0.00000000000E+00 0. -1.
         -1    1    3    3    0  502 -0.15810475914E+03 -0.15066552451E+03  0.57713149125E+02  0.22589383064E+03  0.00000000000E+00 0.  1.
         13    1    5    5    0    0 -0.42556692561E+02  0.32045072327E+03  0.44051717992E+03  0.54640198017E+03  0.00000000000E+00 0.  1.
        -13    1    5    5    0    0 -0.17637567929E+02  0.98926463139E+02  0.24026057147E+03  0.26042786163E+03  0.00000000000E+00 0. -1.
          1    1    6    6  503    0  0.13507167156E+03 -0.56385154683E+02  0.56141729995E+03  0.58018361474E+03  0.00000000000E+00 0. -1.
         -1    1    6    6    0  503  0.20963598843E+03 -0.13499291476E+03  0.15006653782E+04  0.15212386111E+04  0.00000000000E+00 0.  1.
<mgrwt>
<rscale>  0 0.15905714E+04</rscale>
<asrwt>0</asrwt>
<pdfrwt beam="1">  1        2 0.48003134E+00 0.15905714E+04</pdfrwt>
<pdfrwt beam="2">  1       -2 0.31185307E-01 0.15905714E+04</pdfrwt>
<totfact> 0.13464852E+01</totfact>
</mgrwt>
</event>
<event>
12    3  0.4688899E-008  0.1626697E+04  0.7818608E-02  0.8804313E-01
         -2   -1    0    0    0  501 -0.00000000000E+00  0.00000000000E+00  0.36833898067E+03  0.36833898067E+03  0.00000000000E+00 0.  1.
          2   -1    0    0  501    0  0.00000000000E+00 -0.00000000000E+00 -0.17959977371E+04  0.17959977371E+04  0.00000000000E+00 0. -1.
         23    2    1    2    0    0  0.31460465398E+03  0.29511303870E+03 -0.95513168605E+03  0.10521334395E+04  0.92953982863E+02 0.  0.
        254    2    1    2    0    0 -0.31460465398E+03 -0.29511303870E+03 -0.47252707035E+03  0.11122032782E+04  0.90975079332E+03 0.  0.
         23    2    4    4    0    0 -0.20119174136E+03 -0.49762278572E+03 -0.61808050539E+03  0.82311156372E+03  0.85921950146E+02 0.  0.
         23    2    4    4    0    0 -0.11341291262E+03  0.20250974702E+03  0.14555343504E+03  0.28909171450E+03  0.92279632395E+02 0.  0.
          4    1    3    3  502    0  0.23006828614E+03  0.26468882985E+03 -0.73534640419E+03  0.81469376276E+03  0.00000000000E+00 0. -1.
         -4    1    3    3    0  502  0.84536367844E+02  0.30424208851E+02 -0.21978528187E+03  0.23743967676E+03  0.00000000000E+00 0.  1.
         13    1    5    5    0    0 -0.27533573579E+02 -0.24365950182E+02 -0.65633208841E+02  0.75229750133E+02  0.00000000000E+00 0.  1.
        -13    1    5    5    0    0 -0.17365816778E+03 -0.47325683554E+03 -0.55244729655E+03  0.74788181358E+03  0.00000000000E+00 0. -1.
          2    1    6    6  503    0 -0.77754019675E+02  0.13089017578E+03  0.41427929885E+02  0.15777895634E+03  0.00000000000E+00 0. -1.
         -2    1    6    6    0  503 -0.35658892946E+02  0.71619571243E+02  0.10412550516E+03  0.13131275816E+03  0.00000000000E+00 0.  1.
<mgrwt>
<rscale>  0 0.16266972E+04</rscale>
<asrwt>0</asrwt>
<pdfrwt beam="1">  1        2 0.27630734E+00 0.16266972E+04</pdfrwt>
<pdfrwt beam="2">  1       -2 0.56667536E-01 0.16266972E+04</pdfrwt>
<totfact> 0.24242435E+01</totfact>
</mgrwt>
</event>
<event>
12    3  0.4688899E-008  0.1391016E+04  0.7818608E-02  0.8960347E-01
         -2   -1    0    0    0  501 -0.00000000000E+00  0.00000000000E+00  0.16610718826E+03  0.16610718826E+03  0.00000000000E+00 0. -1.
          2   -1    0    0  501    0  0.00000000000E+00 -0.00000000000E+00 -0.29121644766E+04  0.29121644766E+04  0.00000000000E+00 0.  1.
         23    2    1    2    0    0  0.21392432139E+03 -0.34405632425E+03 -0.84748066965E+03  0.94377761513E+03  0.91402034190E+02 0.  0.
        254    2    1    2    0    0 -0.21392432139E+03  0.34405632425E+03 -0.18985766187E+04  0.21344940497E+04  0.88731803868E+03 0.  0.
         23    2    4    4    0    0 -0.35418366225E+03  0.64414457148E+02 -0.17274975732E+04  0.17670256982E+04  0.92394067260E+02 0.  0.
         23    2    4    4    0    0  0.14025934086E+03  0.27964186710E+03 -0.17107904547E+03  0.36746835156E+03  0.88840829911E+02 0.  0.
          3    1    3    3  502    0  0.17970111544E+03 -0.24504273123E+03 -0.54959181050E+03  0.62800444997E+03  0.00000000000E+00 0. -1.
         -3    1    3    3    0  502  0.34223205953E+02 -0.99013593025E+02 -0.29788885915E+03  0.31577316516E+03  0.00000000000E+00 0.  1.
         13    1    5    5    0    0 -0.32152710889E+03  0.71867113581E+02 -0.14204929014E+04  0.14581991108E+04  0.00000000000E+00 0.  1.
        -13    1    5    5    0    0 -0.32656553358E+02 -0.74526564325E+01 -0.30700467178E+03  0.30882658736E+03  0.00000000000E+00 0. -1.
          3    1    6    6  503    0  0.39146330216E+02  0.35145056423E+02 -0.39356943344E+00  0.52609552909E+02  0.00000000000E+00 0. -1.
         -3    1    6    6    0  503  0.10111301065E+03  0.24449681068E+03 -0.17068547604E+03  0.31485879865E+03  0.00000000000E+00 0.  1.
<mgrwt>
<rscale>  0 0.13910161E+04</rscale>
<asrwt>0</asrwt>
<pdfrwt beam="1">  1        2 0.44802531E+00 0.13910161E+04</pdfrwt>
<pdfrwt beam="2">  1       -2 0.25554951E-01 0.13910161E+04</pdfrwt>
<totfact> 0.26727984E+01</totfact>
</mgrwt>
</event>
<event>
12    3  0.4688899E-008  0.1385476E+04  0.7818608E-02  0.8964399E-01
         -2   -1    0    0    0  501 -0.00000000000E+00  0.00000000000E+00  0.39046530505E+03  0.39046530505E+03  0.00000000000E+00 0.  1.
          2   -1    0    0  501    0  0.00000000000E+00 -0.00000000000E+00 -0.12290107279E+04  0.12290107279E+04  0.00000000000E+00 0. -1.
         23    2    1    2    0    0 -0.29085217676E+03  0.15578719437E+03 -0.49674924813E+03  0.60121783359E+03  0.76409614969E+02 0.  0.
        254    2    1    2    0    0  0.29085217676E+03 -0.15578719437E+03 -0.34179617474E+03  0.10182581994E+04  0.90064448972E+03 0.  0.
         23    2    4    4    0    0  0.16133757278E+03  0.20842200791E+03 -0.51407974652E+03  0.58474243050E+03  0.90422223348E+02 0.  0.
         23    2    4    4    0    0  0.12951460398E+03 -0.36420920228E+03  0.17228357177E+03  0.43351576887E+03  0.93978279902E+02 0.  0.
          3    1    3    3  502    0 -0.22247291018E+03  0.12809484755E+03 -0.32399566575E+03  0.41337111311E+03  0.00000000000E+00 0. -1.
         -3    1    3    3    0  502 -0.68379266581E+02  0.27692346817E+02 -0.17275358237E+03  0.18784672048E+03  0.00000000000E+00 0.  1.
         13    1    5    5    0    0  0.10146260069E+03  0.68670279399E+02 -0.27986907796E+03  0.30551099393E+03  0.00000000000E+00 0. -1.
        -13    1    5    5    0    0  0.59874972092E+02  0.13975172851E+03 -0.23421066855E+03  0.27923143657E+03  0.00000000000E+00 0.  1.
          1    1    6    6  503    0 -0.14682700314E+02 -0.46791345414E+02  0.25006166326E+02  0.55048342832E+02  0.00000000000E+00 0. -1.
         -1    1    6    6    0  503  0.14419730429E+03 -0.31741785686E+03  0.14727740545E+03  0.37846742604E+03  0.00000000000E+00 0.  1.
<mgrwt>
<rscale>  0 0.13854762E+04</rscale>
<asrwt>0</asrwt>
<pdfrwt beam="1">  1        2 0.18907857E+00 0.13854762E+04</pdfrwt>
<pdfrwt beam="2">  1       -2 0.60071586E-01 0.13854762E+04</pdfrwt>
<totfact> 0.45812771E+01</totfact>
</mgrwt>
</event>
<event>
12    3  0.4688899E-008  0.3404279E+04  0.7818608E-02  0.8136857E-01
         -2   -1    0    0    0  501 -0.00000000000E+00  0.00000000000E+00  0.20922261171E+04  0.20922261171E+04  0.00000000000E+00 0.  1.
          2   -1    0    0  501    0  0.00000000000E+00 -0.00000000000E+00 -0.13847829737E+04  0.13847829737E+04  0.00000000000E+00 0. -1.
         23    2    1    2    0    0  0.14004495336E+04  0.73328490437E+03  0.40409259433E+03  0.16340107242E+04  0.87946432396E+02 0.  0.
        254    2    1    2    0    0 -0.14004495336E+04 -0.73328490437E+03  0.30335054907E+03  0.18429983666E+04  0.89758329775E+03 0.  0.
         23    2    4    4    0    0 -0.13709367682E+04 -0.37114396765E+03  0.34809614278E+03  0.14651555348E+04  0.91073318178E+02 0.  0.
         23    2    4    4    0    0 -0.29512765365E+02 -0.36214093673E+03 -0.44745593711E+02  0.37784283178E+03  0.93519922999E+02 0.  0.
          4    1    3    3  502    0  0.14175429514E+03  0.69792317046E+02  0.13883545000E+02  0.15861273760E+03  0.00000000000E+00 0. -1.
         -4    1    3    3    0  502  0.12586952385E+04  0.66349258733E+03  0.39020904933E+03  0.14753979866E+04  0.00000000000E+00 0.  1.
         13    1    5    5    0    0 -0.46890372601E+03 -0.93608573084E+02  0.87754080788E+02  0.48614200386E+03  0.00000000000E+00 0. -1.
        -13    1    5    5    0    0 -0.90203304221E+03 -0.27753539456E+03  0.26034206199E+03  0.97901353092E+03  0.00000000000E+00 0.  1.
          2    1    6    6  503    0 -0.26530959187E+02 -0.36609520479E+03 -0.37361716176E+02  0.36895187843E+03  0.00000000000E+00 0. -1.
         -2    1    6    6    0  503 -0.29818061778E+01  0.39542680593E+01 -0.73838775357E+01  0.88909533476E+01  0.00000000000E+00 0.  1.
<mgrwt>
<rscale>  0 0.34042791E+04</rscale>
<asrwt>0</asrwt>
<pdfrwt beam="1">  1        2 0.21304353E+00 0.34042791E+04</pdfrwt>
<pdfrwt beam="2">  1       -2 0.32188094E+00 0.34042791E+04</pdfrwt>
<totfact> 0.28496714E-01</totfact>
</mgrwt>
</event>
<event>
12    3  0.4688899E-008  0.2618372E+04  0.7818608E-02  0.8361987E-01
         -2   -1    0    0    0  501 -0.00000000000E+00  0.00000000000E+00  0.63309317718E+03  0.63309317718E+03  0.00000000000E+00 0.  1.
          2   -1    0    0  501    0  0.00000000000E+00 -0.00000000000E+00 -0.27072918845E+04  0.27072918845E+04  0.00000000000E+00 0. -1.
         23    2    1    2    0    0 -0.21827678599E+03 -0.73693361258E+03  0.18915094871E+03  0.79693376961E+03  0.92787106334E+02 0.  0.
        254    2    1    2    0    0  0.21827678599E+03  0.73693361258E+03 -0.22633496560E+04  0.25434512921E+04  0.86929678762E+03 0.  0.
         23    2    4    4    0    0  0.47541279735E+03  0.42340602010E+03 -0.18457126151E+04  0.19545449017E+04  0.91108338236E+02 0.  0.
         23    2    4    4    0    0 -0.25713601136E+03  0.31352759248E+03 -0.41763704094E+03  0.58890639041E+03  0.89283588182E+02 0.  0.
          4    1    3    3  502    0 -0.22041793301E+03 -0.73683905211E+03  0.18321433414E+03  0.79062212602E+03  0.00000000000E+00 0.  1.
         -4    1    3    3    0  502  0.21411470217E+01 -0.94560464309E-01  0.59366145788E+01  0.63116435980E+01  0.00000000000E+00 0. -1.
         13    1    5    5    0    0  0.45543564410E+03  0.37404400145E+03 -0.17130602123E+04  0.18116031110E+04  0.00000000000E+00 0. -1.
        -13    1    5    5    0    0  0.19977153251E+02  0.49362018653E+02 -0.13265240284E+03  0.14294179066E+03  0.00000000000E+00 0.  1.
          4    1    6    6  503    0 -0.40110719867E+02  0.88353901265E+01 -0.43929441522E+02  0.60139253399E+02  0.00000000000E+00 0.  1.
         -4    1    6    6    0  503 -0.21702529150E+03  0.30469220235E+03 -0.37370759941E+03  0.52876713701E+03  0.00000000000E+00 0. -1.
<mgrwt>
<rscale>  0 0.26183720E+04</rscale>
<asrwt>0</asrwt>
<pdfrwt beam="1">  1        2 0.41650644E+00 0.26183720E+04</pdfrwt>
<pdfrwt beam="2">  1       -2 0.97398951E-01 0.26183720E+04</pdfrwt>
<totfact> 0.20406706E+00</totfact>
</mgrwt>
</event>
<event>
12    3  0.4688899E-008  0.1614055E+04  0.7818608E-02  0.8811959E-01
          2   -1    0    0  501    0  0.00000000000E+00  0.00000000000E+00  0.29993567309E+04  0.29993567309E+04  0.00000000000E+00 0. -1.
         -2   -1    0    0    0  501 -0.00000000000E+00 -0.00000000000E+00 -0.21714448907E+03  0.21714448907E+03  0.00000000000E+00 0.  1.
         23    2    1    2    0    0  0.25487173275E+03 -0.80292199407E+02  0.19363128440E+04  0.19567023710E+04  0.89276544529E+02 0.  0.
        254    2    1    2    0    0 -0.25487173275E+03  0.80292199407E+02  0.84589939785E+03  0.12597988490E+04  0.89450595929E+03 0.  0.
         23    2    4    4    0    0  0.30394373185E+03  0.16974538732E+03  0.29914794920E+03  0.46781044534E+03  0.90342839271E+02 0.  0.
         23    2    4    4    0    0 -0.55881546460E+03 -0.89453187916E+02  0.54675144865E+03  0.79198840365E+03  0.89620804604E+02 0.  0.
          1    1    3    3  502    0  0.23148527680E+03 -0.49538541028E+02  0.17806360917E+04  0.17963029788E+04  0.00000000000E+00 0. -1.
         -1    1    3    3    0  502  0.23386455946E+02 -0.30753658379E+02  0.15567675221E+03  0.16039939216E+03  0.00000000000E+00 0.  1.
         13    1    5    5    0    0  0.10039798718E+03  0.99020755209E+02  0.88580633743E+02  0.16652745859E+03  0.00000000000E+00 0.  1.
        -13    1    5    5    0    0  0.20354574468E+03  0.70724632114E+02  0.21056731546E+03  0.30128298675E+03  0.00000000000E+00 0. -1.
          2    1    6    6  503    0 -0.35588878719E+03 -0.77861452494E+02  0.29734895873E+03  0.47025061179E+03  0.00000000000E+00 0. -1.
         -2    1    6    6    0  503 -0.20292667741E+03 -0.11591735422E+02  0.24940248992E+03  0.32173779187E+03  0.00000000000E+00 0.  1.
<mgrwt>
<rscale>  0 0.16140555E+04</rscale>
<asrwt>0</asrwt>
<pdfrwt beam="1">  1        2 0.46143947E+00 0.16140555E+04</pdfrwt>
<pdfrwt beam="2">  1       -2 0.33406847E-01 0.16140555E+04</pdfrwt>
<totfact> 0.14059316E+01</totfact>
</mgrwt>
</event>
<event>
12    3  0.4688899E-008  0.2777164E+04  0.7818608E-02  0.8310393E-01
          2   -1    0    0  501    0  0.00000000000E+00  0.00000000000E+00  0.29615696823E+04  0.29615696823E+04  0.00000000000E+00 0. -1.
         -2   -1    0    0    0  501 -0.00000000000E+00 -0.00000000000E+00 -0.65106001730E+03  0.65106001730E+03  0.00000000000E+00 0.  1.
         23    2    1    2    0    0 -0.36827538647E+03 -0.87303307120E+03  0.20743737155E+04  0.22823331330E+04  0.90579879927E+02 0.  0.
        254    2    1    2    0    0  0.36827538647E+03  0.87303307120E+03  0.23613594950E+03  0.13302965666E+04  0.90339098115E+03 0.  0.
         23    2    4    4    0    0  0.21751976470E+03  0.14632310875E+03  0.47037766104E+03  0.54664168809E+03  0.94003675225E+02 0.  0.
         23    2    4    4    0    0  0.15075562176E+03  0.72670996245E+03 -0.23424171154E+03  0.78365487854E+03  0.91712388486E+02 0.  0.
          4    1    3    3  502    0 -0.22612162117E+03 -0.64116364234E+03  0.14784408469E+04  0.16272704574E+04  0.00000000000E+00 0. -1.
         -4    1    3    3    0  502 -0.14215376530E+03 -0.23186942887E+03  0.59593286860E+03  0.65506267556E+03  0.00000000000E+00 0.  1.
         13    1    5    5    0    0  0.10843651637E+03  0.92432546958E+02  0.33820791804E+03  0.36699707035E+03  0.00000000000E+00 0. -1.
        -13    1    5    5    0    0  0.10908324833E+03  0.53890561792E+02  0.13216974300E+03  0.17964461774E+03  0.00000000000E+00 0.  1.
          1    1    6    6  503    0  0.15904183841E+03  0.71698956201E+03 -0.22580209006E+03  0.76834557477E+03  0.00000000000E+00 0. -1.
         -1    1    6    6    0  503 -0.82862166413E+01  0.97204004449E+01 -0.84396214772E+01  0.15309303763E+02  0.00000000000E+00 0.  1.
<mgrwt>
<rscale>  0 0.27771637E+04</rscale>
<asrwt>0</asrwt>
<pdfrwt beam="1">  1        2 0.45562610E+00 0.27771637E+04</pdfrwt>
<pdfrwt beam="2">  1       -2 0.10016308E+00 0.27771637E+04</pdfrwt>
<totfact> 0.13194940E+00</totfact>
</mgrwt>
</event>
<event>
12    3  0.4688899E-008  0.2059449E+04  0.7818608E-02  0.8579320E-01
          1   -1    0    0  501    0  0.00000000000E+00  0.00000000000E+00  0.14815437310E+04  0.14815437310E+04  0.00000000000E+00 0. -1.
         -1   -1    0    0    0  501 -0.00000000000E+00 -0.00000000000E+00 -0.71569441252E+03  0.71569441252E+03  0.00000000000E+00 0.  1.
         23    2    1    2    0    0  0.19060355522E+03  0.43020458306E+03 -0.41618115718E+03  0.63484615384E+03  0.91745217365E+02 0.  0.
        254    2    1    2    0    0 -0.19060355522E+03 -0.43020458306E+03  0.11820304756E+04  0.15623919897E+04  0.90689965568E+03 0.  0.
         23    2    4    4    0    0 -0.11623904882E+03  0.21315719950E+02 -0.11375503418E+03  0.18475870581E+03  0.85027614241E+02 0.  0.
         23    2    4    4    0    0 -0.74364506406E+02 -0.45152030301E+03  0.12957855098E+04  0.13776332839E+04  0.97019139774E+02 0.  0.
          3    1    3    3  502    0 -0.20827343809E+00  0.21148110600E+02 -0.47660710886E+02  0.52142394670E+02  0.00000000000E+00 0. -1.
         -3    1    3    3    0  502  0.19081182866E+03  0.40905647246E+03 -0.36852044629E+03  0.58270375917E+03  0.00000000000E+00 0.  1.
         13    1    5    5    0    0 -0.28774726106E+02 -0.73471444291E+01 -0.82294792479E+02  0.87489418005E+02  0.00000000000E+00 0. -1.
        -13    1    5    5    0    0 -0.87464322710E+02  0.28662864379E+02 -0.31460241700E+02  0.97269287802E+02  0.00000000000E+00 0.  1.
          2    1    6    6  503    0 -0.57106255233E+02 -0.22389519186E+03  0.78188473893E+03  0.81531216494E+03  0.00000000000E+00 0. -1.
         -2    1    6    6    0  503 -0.17258251173E+02 -0.22762511114E+03  0.51390077090E+03  0.56232111892E+03  0.00000000000E+00 0.  1.
<mgrwt>
<rscale>  0 0.20594490E+04</rscale>
<asrwt>0</asrwt>
<pdfrwt beam="1">  1        1 0.22792980E+00 0.20594490E+04</pdfrwt>
<pdfrwt beam="2">  1       -1 0.11010683E+00 0.20594490E+04</pdfrwt>
<totfact> 0.47346751E+00</totfact>
</mgrwt>
</event>
<event>
12    3  0.4688899E-008  0.1420783E+04  0.7818608E-02  0.8938911E-01
          2   -1    0    0  501    0  0.00000000000E+00  0.00000000000E+00  0.15053689325E+04  0.15053689325E+04  0.00000000000E+00 0. -1.
         -2   -1    0    0    0  501 -0.00000000000E+00 -0.00000000000E+00 -0.33523747500E+03  0.33523747500E+03  0.00000000000E+00 0.  1.
         23    2    1    2    0    0 -0.31452702940E+02  0.10166197719E+03 -0.17839399822E+03  0.22686294426E+03  0.91202778187E+02 0.  0.
        254    2    1    2    0    0  0.31452702940E+02 -0.10166197719E+03  0.13485254557E+04  0.16137434633E+04  0.87995603886E+03 0.  0.
         23    2    4    4    0    0  0.42000612502E+03  0.50583829777E+02  0.49486985920E+03  0.65922180037E+03  0.10350524457E+03 0.  0.
         23    2    4    4    0    0 -0.38855342208E+03 -0.15224580697E+03  0.85365559653E+03  0.95452166289E+03  0.90725850115E+02 0.  0.
          4    1    3    3  502    0 -0.10201143319E+02 -0.16794945554E+02 -0.21495605199E+02  0.29123780044E+02  0.00000000000E+00 0. -1.
         -4    1    3    3    0  502 -0.21251559621E+02  0.11845692275E+03 -0.15689839302E+03  0.19773916421E+03  0.00000000000E+00 0.  1.
         13    1    5    5    0    0  0.15097919232E+03  0.38363132905E+02  0.25373280251E+03  0.29773609380E+03  0.00000000000E+00 0. -1.
        -13    1    5    5    0    0  0.26902693270E+03  0.12220696872E+02  0.24113705669E+03  0.36148570657E+03  0.00000000000E+00 0.  1.
          1    1    6    6  503    0 -0.72250426377E+02 -0.41548680518E+02  0.10327183569E+03  0.13270828539E+03  0.00000000000E+00 0. -1.
         -1    1    6    6    0  503 -0.31630299570E+03 -0.11069712645E+03  0.75038376085E+03  0.82181337750E+03  0.00000000000E+00 0.  1.
<mgrwt>
<rscale>  0 0.14207830E+04</rscale>
<asrwt>0</asrwt>
<pdfrwt beam="1">  1        2 0.23159522E+00 0.14207830E+04</pdfrwt>
<pdfrwt beam="2">  1       -2 0.51574997E-01 0.14207830E+04</pdfrwt>
<totfact> 0.43495434E+01</totfact>
</mgrwt>
</event>
<event>
12    3  0.4688899E-008  0.1580840E+04  0.7818608E-02  0.8832406E-01
         -1   -1    0    0    0  501 -0.00000000000E+00  0.00000000000E+00  0.31342212993E+03  0.31342212993E+03  0.00000000000E+00 0.  1.
          1   -1    0    0  501    0  0.00000000000E+00 -0.00000000000E+00 -0.19933621268E+04  0.19933621268E+04  0.00000000000E+00 0. -1.
         23    2    1    2    0    0  0.18667238726E+03  0.19058677486E+03 -0.12248876008E+04  0.12593003928E+04  0.11965761804E+03 0.  0.
        254    2    1    2    0    0 -0.18667238726E+03 -0.19058677486E+03 -0.45505239606E+03  0.10474838640E+04  0.90497506225E+03 0.  0.
         23    2    4    4    0    0  0.12933018217E+03 -0.96496890755E+02  0.22187284218E+03  0.28831468967E+03  0.88655830261E+02 0.  0.
         23    2    4    4    0    0 -0.31600256944E+03 -0.94089884103E+02 -0.67692523824E+03  0.75916917434E+03  0.96951157397E+02 0.  0.
          4    1    3    3  502    0  0.15811323396E+03  0.19792121522E+03 -0.11687693693E+04  0.11959073714E+04  0.00000000000E+00 0. -1.
         -4    1    3    3    0  502  0.28559153299E+02 -0.73344403584E+01 -0.56118231520E+02  0.63393021394E+02  0.00000000000E+00 0.  1.
         13    1    5    5    0    0  0.28681679106E+02  0.12696743471E+02  0.18242214189E+02  0.36285319202E+02  0.00000000000E+00 0.  1.
        -13    1    5    5    0    0  0.10064850307E+03 -0.10919363423E+03  0.20363062799E+03  0.25202937047E+03  0.00000000000E+00 0. -1.
          2    1    6    6  503    0 -0.10249546839E+03 -0.38031848135E+02 -0.33310393231E+03  0.35058518541E+03  0.00000000000E+00 0. -1.
         -2    1    6    6    0  503 -0.21350710104E+03 -0.56058035968E+02 -0.34382130593E+03  0.40858398893E+03  0.00000000000E+00 0.  1.
<mgrwt>
<rscale>  0 0.15808400E+04</rscale>
<asrwt>0</asrwt>
<pdfrwt beam="1">  1        1 0.30667110E+00 0.15808400E+04</pdfrwt>
<pdfrwt beam="2">  1       -1 0.48218788E-01 0.15808400E+04</pdfrwt>
<totfact> 0.12449680E+01</totfact>
</mgrwt>
</event>
<event>
12    3  0.4688899E-008  0.1668659E+04  0.7818608E-02  0.8779444E-01
         -1   -1    0    0    0  501 -0.00000000000E+00  0.00000000000E+00  0.10053095046E+04  0.10053095046E+04  0.00000000000E+00 0.  1.
          1   -1    0    0  501    0  0.00000000000E+00 -0.00000000000E+00 -0.69242915699E+03  0.69242915699E+03  0.00000000000E+00 0. -1.
         23    2    1    2    0    0 -0.20279242708E+03  0.22382613116E+03  0.62262883337E+03  0.69740379204E+03  0.86501326804E+02 0.  0.
        254    2    1    2    0    0  0.20279242708E+03 -0.22382613116E+03 -0.30974848577E+03  0.10003348695E+04  0.90194391250E+03 0.  0.
         23    2    4    4    0    0  0.19595071453E+03 -0.47813405507E+03 -0.45447949146E+03  0.69420871520E+03  0.91461877078E+02 0.  0.
         23    2    4    4    0    0  0.68417125446E+01  0.25430792392E+03  0.14473100569E+03  0.30612615433E+03  0.89704120084E+02 0.  0.
          2    1    3    3  502    0  0.26157105482E+01  0.31773773974E+02  0.47478439782E+02  0.57189307552E+02  0.00000000000E+00 0. -1.
         -2    1    3    3    0  502 -0.20540813763E+03  0.19205235718E+03  0.57515039359E+03  0.64021448449E+03  0.00000000000E+00 0.  1.
         13    1    5    5    0    0  0.33245828319E+02 -0.15957353112E+03 -0.10358409002E+03  0.19312861166E+03  0.00000000000E+00 0.  1.
        -13    1    5    5    0    0  0.16270488622E+03 -0.31856052395E+03 -0.35089540144E+03  0.50108010354E+03  0.00000000000E+00 0. -1.
          1    1    6    6  503    0  0.43380550302E+02  0.17320895901E+03  0.11478430740E+03  0.21227023544E+03  0.00000000000E+00 0. -1.
         -1    1    6    6    0  503 -0.36538837757E+02  0.81098964903E+02  0.29946698291E+02  0.93855918894E+02  0.00000000000E+00 0.  1.
<mgrwt>
<rscale>  0 0.16686589E+04</rscale>
<asrwt>0</asrwt>
<pdfrwt beam="1">  1        1 0.10652756E+00 0.16686589E+04</pdfrwt>
<pdfrwt beam="2">  1       -1 0.15466300E+00 0.16686589E+04</pdfrwt>
<totfact> 0.84843687E+00</totfact>
</mgrwt>
</event>
<event>
12    3  0.4688899E-008  0.1625657E+04  0.7818608E-02  0.8804939E-01
         -2   -1    0    0    0  501 -0.00000000000E+00  0.00000000000E+00  0.29453047341E+03  0.29453047341E+03  0.00000000000E+00 0.  1.
          2   -1    0    0  501    0  0.00000000000E+00 -0.00000000000E+00 -0.22431986718E+04  0.22431986718E+04  0.00000000000E+00 0. -1.
         23    2    1    2    0    0 -0.34713040465E+03  0.40023718303E+03 -0.49031397523E+03  0.72770124065E+03  0.91934655206E+02 0.  0.
        254    2    1    2    0    0  0.34713040465E+03 -0.40023718303E+03 -0.14583542232E+04  0.18100279046E+04  0.93204863318E+03 0.  0.
         23    2    4    4    0    0  0.57334319687E+03 -0.13162976530E+02 -0.10360989721E+04  0.11875706075E+04  0.89034725747E+02 0.  0.
         23    2    4    4    0    0 -0.22621279223E+03 -0.38707420650E+03 -0.42225525108E+03  0.62245729712E+03  0.90304600987E+02 0.  0.
          3    1    3    3  502    0 -0.32110812607E+02  0.60623537031E+02 -0.10370740181E+03  0.12434445190E+03  0.00000000000E+00 0. -1.
         -3    1    3    3    0  502 -0.31501959204E+03  0.33961364600E+03 -0.38660657342E+03  0.60335678875E+03  0.00000000000E+00 0.  1.
         13    1    5    5    0    0  0.42041956350E+03 -0.33169654451E+02 -0.81986120165E+03  0.92196812598E+03  0.00000000000E+00 0. -1.
        -13    1    5    5    0    0  0.15292363338E+03  0.20006677922E+02 -0.21623777047E+03  0.26560248151E+03  0.00000000000E+00 0.  1.
          2    1    6    6  503    0 -0.22051191645E+03 -0.34197549382E+03 -0.34814450233E+03  0.53551595510E+03  0.00000000000E+00 0. -1.
         -2    1    6    6    0  503 -0.57008757822E+01 -0.45098712688E+02 -0.74110748755E+02  0.86941342017E+02  0.00000000000E+00 0.  1.
<mgrwt>
<rscale>  0 0.16256572E+04</rscale>
<asrwt>0</asrwt>
<pdfrwt beam="1">  1        2 0.34510747E+00 0.16256572E+04</pdfrwt>
<pdfrwt beam="2">  1       -2 0.45312382E-01 0.16256572E+04</pdfrwt>
<totfact> 0.21598988E+01</totfact>
</mgrwt>
</event>
<event>
12    3  0.4688899E-008  0.2835151E+04  0.7818608E-02  0.8292438E-01
          2   -1    0    0  501    0  0.00000000000E+00  0.00000000000E+00  0.21438696259E+04  0.21438696259E+04  0.00000000000E+00 0. -1.
         -2   -1    0    0    0  501 -0.00000000000E+00 -0.00000000000E+00 -0.93733310665E+03  0.93733310665E+03  0.00000000000E+00 0.  1.
         23    2    1    2    0    0  0.11931604585E+04  0.24399708538E+03  0.95248929435E+03  0.15488450006E+04  0.92295842137E+02 0.  0.
        254    2    1    2    0    0 -0.11931604585E+04 -0.24399708538E+03  0.25404722493E+03  0.15323577320E+04  0.89465846498E+03 0.  0.
         23    2    4    4    0    0  0.12572476874E+03 -0.34573565113E+02  0.93609955250E+02  0.18411166836E+03  0.90178898993E+02 0.  0.
         23    2    4    4    0    0 -0.13188852273E+04 -0.20942352027E+03  0.16043726968E+03  0.13482460637E+04  0.93332080139E+02 0.  0.
          2    1    3    3  502    0  0.71451169145E+02 -0.19849485269E+01  0.74968349838E+02  0.10358312155E+03  0.00000000000E+00 0.  1.
         -2    1    3    3    0  502  0.11217092894E+04  0.24598203391E+03  0.87752094452E+03  0.14452618790E+04  0.00000000000E+00 0. -1.
         13    1    5    5    0    0  0.21442675228E+02  0.13585259052E+02 -0.11997570685E+02  0.28076489931E+02  0.00000000000E+00 0. -1.
        -13    1    5    5    0    0  0.10428209351E+03 -0.48158824165E+02  0.10560752594E+03  0.15603517843E+03  0.00000000000E+00 0.  1.
          1    1    6    6  503    0 -0.22688842690E+03 -0.63457745615E+02  0.51547788751E+02  0.24116885841E+03  0.00000000000E+00 0. -1.
         -1    1    6    6    0  503 -0.10919968004E+04 -0.14596577465E+03  0.10888948093E+03  0.11070772053E+04  0.00000000000E+00 0.  1.
<mgrwt>
<rscale>  0 0.28351508E+04</rscale>
<asrwt>0</asrwt>
<pdfrwt beam="1">  1        2 0.32982610E+00 0.28351508E+04</pdfrwt>
<pdfrwt beam="2">  1       -2 0.14420509E+00 0.28351508E+04</pdfrwt>
<totfact> 0.16016453E+00</totfact>
</mgrwt>
</event>
<event>
12    3  0.4688899E-008  0.1483395E+04  0.7818608E-02  0.8895571E-01
         -1   -1    0    0    0  501 -0.00000000000E+00  0.00000000000E+00  0.12677812314E+04  0.12677812314E+04  0.00000000000E+00 0.  1.
          1   -1    0    0  501    0  0.00000000000E+00 -0.00000000000E+00 -0.43391938317E+03  0.43391938317E+03  0.00000000000E+00 0. -1.
         23    2    1    2    0    0 -0.22591530604E+03 -0.39038722839E+03  0.40947628909E+03  0.61605242633E+03  0.91705218365E+02 0.  0.
        254    2    1    2    0    0  0.22591530604E+03  0.39038722839E+03  0.42438555919E+03  0.10856481883E+04  0.89167761678E+03 0.  0.
         23    2    4    4    0    0  0.49511182488E+02 -0.39637272704E+02  0.57704642444E+03  0.58758332718E+03  0.90824665352E+02 0.  0.
         23    2    4    4    0    0  0.17640412355E+03  0.43002450110E+03 -0.15266086525E+03  0.49806486110E+03  0.93401176304E+02 0.  0.
          4    1    3    3  502    0 -0.35449907277E+02 -0.13579029905E+03  0.15235311074E+03  0.20714046344E+03  0.00000000000E+00 0. -1.
         -4    1    3    3    0  502 -0.19046539876E+03 -0.25459692934E+03  0.25712317834E+03  0.40891196289E+03  0.00000000000E+00 0.  1.
         13    1    5    5    0    0 -0.75235706800E+01 -0.30291494602E+02  0.63099132592E+02  0.70396585818E+02  0.00000000000E+00 0.  1.
        -13    1    5    5    0    0  0.57034753168E+02 -0.93457781022E+01  0.51394729185E+03  0.51718674136E+03  0.00000000000E+00 0. -1.
          2    1    6    6  503    0  0.15343669532E+03  0.42279096638E+03 -0.14134421795E+03  0.47145859698E+03  0.00000000000E+00 0. -1.
         -2    1    6    6    0  503  0.22967428229E+02  0.72335347161E+01 -0.11316647308E+02  0.26606264117E+02  0.00000000000E+00 0.  1.
<mgrwt>
<rscale>  0 0.14833946E+04</rscale>
<asrwt>0</asrwt>
<pdfrwt beam="1">  1        1 0.66756829E-01 0.14833946E+04</pdfrwt>
<pdfrwt beam="2">  1       -1 0.19504327E+00 0.14833946E+04</pdfrwt>
<totfact> 0.84862977E+00</totfact>
</mgrwt>
</event>
<event>
12    3  0.4688899E-008  0.1851535E+04  0.7818608E-02  0.8679364E-01
          2   -1    0    0  501    0  0.00000000000E+00  0.00000000000E+00  0.10006731878E+04  0.10006731878E+04  0.00000000000E+00 0. -1.
         -2   -1    0    0    0  501 -0.00000000000E+00 -0.00000000000E+00 -0.85646850669E+03  0.85646850669E+03  0.00000000000E+00 0.  1.
         23    2    1    2    0    0  0.62812131289E+03  0.18855145704E+03 -0.19205590030E+03  0.68946677806E+03  0.91602039040E+02 0.  0.
        254    2    1    2    0    0 -0.62812131289E+03 -0.18855145704E+03  0.33626058140E+03  0.11676749164E+04  0.90570718015E+03 0.  0.
         23    2    4    4    0    0 -0.29813058028E+03  0.33777322447E+03  0.27692863766E+03  0.53688055729E+03  0.92621101080E+02 0.  0.
         23    2    4    4    0    0 -0.32999073261E+03 -0.52632468152E+03  0.59331943735E+02  0.63079435913E+03  0.92030918607E+02 0.  0.
          3    1    3    3  502    0  0.47059032635E+03  0.14043270306E+03 -0.10141929241E+03  0.50146033963E+03  0.00000000000E+00 0. -1.
         -3    1    3    3    0  502  0.15753098653E+03  0.48118753979E+02 -0.90636607892E+02  0.18800643843E+03  0.00000000000E+00 0.  1.
         13    1    5    5    0    0 -0.27164264147E+03  0.26317439173E+03  0.24950125169E+03  0.45310193083E+03  0.00000000000E+00 0. -1.
        -13    1    5    5    0    0 -0.26487938805E+02  0.74598832746E+02  0.27427385968E+02  0.83778626452E+02  0.00000000000E+00 0.  1.
          1    1    6    6  503    0 -0.19308781782E+03 -0.38081337402E+03  0.21908020203E+02  0.42752975636E+03  0.00000000000E+00 0. -1.
         -1    1    6    6    0  503 -0.13690291478E+03 -0.14551130750E+03  0.37423923532E+02  0.20326460277E+03  0.00000000000E+00 0.  1.
<mgrwt>
<rscale>  0 0.18515346E+04</rscale>
<asrwt>0</asrwt>
<pdfrwt beam="1">  1        2 0.15394972E+00 0.18515346E+04</pdfrwt>
<pdfrwt beam="2">  1       -2 0.13176439E+00 0.18515346E+04</pdfrwt>
<totfact> 0.99291598E+00</totfact>
</mgrwt>
</event>
<event>
12    3  0.4688899E-008  0.1276703E+04  0.7818608E-02  0.9048247E-01
          1   -1    0    0  501    0  0.00000000000E+00  0.00000000000E+00  0.10189090680E+04  0.10189090680E+04  0.00000000000E+00 0. -1.
         -1   -1    0    0    0  501 -0.00000000000E+00 -0.00000000000E+00 -0.39993010825E+03  0.39993010825E+03  0.00000000000E+00 0.  1.
         23    2    1    2    0    0 -0.32095656059E+02  0.29708379863E+03  0.19900446428E+03  0.37040566047E+03  0.91151862057E+02 0.  0.
        254    2    1    2    0    0  0.32095656059E+02 -0.29708379863E+03  0.41997449542E+03  0.10484335157E+04  0.91298704566E+03 0.  0.
         23    2    4    4    0    0 -0.34599330425E+03 -0.41123234448E+03  0.31695560909E+03  0.63027607685E+03  0.89239381343E+02 0.  0.
         23    2    4    4    0    0  0.37808896031E+03  0.11414854585E+03  0.10301888633E+03  0.41815743888E+03  0.90893345865E+02 0.  0.
          1    1    3    3  502    0 -0.54415283052E+02  0.27573299365E+03  0.17299245888E+03  0.33002438947E+03  0.00000000000E+00 0. -1.
         -1    1    3    3    0  502  0.22319626992E+02  0.21350804984E+02  0.26012005402E+02  0.40381271000E+02  0.00000000000E+00 0.  1.
         13    1    5    5    0    0 -0.27527884742E+03 -0.33206860673E+03  0.29306105753E+03  0.52147175077E+03  0.00000000000E+00 0. -1.
        -13    1    5    5    0    0 -0.70714456825E+02 -0.79163737752E+02  0.23894551565E+02  0.10880432608E+03  0.00000000000E+00 0.  1.
          3    1    6    6  503    0  0.34328856189E+03  0.12506990912E+03  0.77090037620E+02  0.37340647127E+03  0.00000000000E+00 0. -1.
         -3    1    6    6    0  503  0.34800398420E+02 -0.10921363271E+02  0.25928848712E+02  0.44750967603E+02  0.00000000000E+00 0.  1.
<mgrwt>
<rscale>  0 0.12767026E+04</rscale>
<asrwt>0</asrwt>
<pdfrwt beam="1">  1        1 0.15675524E+00 0.12767026E+04</pdfrwt>
<pdfrwt beam="2">  1       -1 0.61527709E-01 0.12767026E+04</pdfrwt>
<totfact> 0.38568357E+01</totfact>
</mgrwt>
</event>
<event>
12    3  0.4688899E-008  0.3318779E+04  0.7818608E-02  0.8158133E-01
          2   -1    0    0  501    0  0.00000000000E+00  0.00000000000E+00  0.21354053272E+04  0.21354053272E+04  0.00000000000E+00 0. -1.
         -2   -1    0    0    0  501 -0.00000000000E+00 -0.00000000000E+00 -0.12894852109E+04  0.12894852109E+04  0.00000000000E+00 0.  1.
         23    2    1    2    0    0 -0.89034638108E+03  0.10892982043E+04  0.10253556565E+04  0.17433684495E+04  0.93231283207E+02 0.  0.
        254    2    1    2    0    0  0.89034638108E+03 -0.10892982043E+04 -0.17943554023E+03  0.16815220886E+04  0.90334498685E+03 0.  0.
         23    2    4    4    0    0  0.53295060626E+02 -0.21062857925E+03 -0.38075827213E+03  0.44800244174E+03  0.92328566163E+02 0.  0.
         23    2    4    4    0    0  0.83705132045E+03 -0.87866962504E+03  0.20132273190E+03  0.12335196469E+04  0.91239540904E+02 0.  0.
          2    1    3    3  502    0 -0.81350061819E+03  0.97483714474E+03  0.89312756903E+03  0.15523426069E+04  0.00000000000E+00 0. -1.
         -2    1    3    3    0  502 -0.76845762895E+02  0.11446105954E+03  0.13222808749E+03  0.19102584262E+03  0.00000000000E+00 0.  1.
         13    1    5    5    0    0  0.23712844914E+02 -0.20019319753E+03 -0.30074269554E+03  0.36205770849E+03  0.00000000000E+00 0. -1.
        -13    1    5    5    0    0  0.29582215712E+02 -0.10435381713E+02 -0.80015576584E+02  0.85944733253E+02  0.00000000000E+00 0.  1.
          1    1    6    6  503    0  0.79354605083E+03 -0.80359039615E+03  0.19864451205E+03  0.11467050631E+04  0.00000000000E+00 0. -1.
         -1    1    6    6    0  503  0.43505269626E+02 -0.75079228888E+02  0.26782198460E+01  0.86814583782E+02  0.00000000000E+00 0.  1.
<mgrwt>
<rscale>  0 0.33187790E+04</rscale>
<asrwt>0</asrwt>
<pdfrwt beam="1">  1        2 0.32852390E+00 0.33187790E+04</pdfrwt>
<pdfrwt beam="2">  1       -2 0.19838234E+00 0.33187790E+04</pdfrwt>
<totfact> 0.63812021E-01</totfact>
</mgrwt>
</event>
<event>
12    3  0.4688899E-008  0.1689360E+04  0.7818608E-02  0.8767456E-01
         -2   -1    0    0    0  501 -0.00000000000E+00  0.00000000000E+00  0.37631630430E+03  0.37631630430E+03  0.00000000000E+00 0.  1.
          2   -1    0    0  501    0  0.00000000000E+00 -0.00000000000E+00 -0.18959696256E+04  0.18959696256E+04  0.00000000000E+00 0. -1.
         23    2    1    2    0    0  0.14018712660E+03 -0.45829408430E+03 -0.10290136961E+04  0.11386963292E+04  0.89856804179E+02 0.  0.
        254    2    1    2    0    0 -0.14018712660E+03  0.45829408430E+03 -0.49063962527E+03  0.11335896007E+04  0.90255871990E+03 0.  0.
         23    2    4    4    0    0 -0.27786976832E+03  0.60499582407E+03 -0.58594472016E+03  0.89170821888E+03  0.92632484883E+02 0.  0.
         23    2    4    4    0    0  0.13768264172E+03 -0.14670173977E+03  0.95305094896E+02  0.24188138186E+03  0.94581348549E+02 0.  0.
          2    1    3    3  502    0  0.15251955640E+03 -0.40273233860E+03 -0.90373564985E+03  0.10010962374E+04  0.00000000000E+00 0. -1.
         -2    1    3    3    0  502 -0.12332429797E+02 -0.55561745691E+02 -0.12527804623E+03  0.13760009184E+03  0.00000000000E+00 0.  1.
         13    1    5    5    0    0 -0.62165219456E+02  0.20086740071E+03 -0.22963710371E+03  0.31136060537E+03  0.00000000000E+00 0. -1.
        -13    1    5    5    0    0 -0.21570454887E+03  0.40412842336E+03 -0.35630761645E+03  0.58034761351E+03  0.00000000000E+00 0.  1.
          1    1    6    6  503    0 -0.69489203200E+01 -0.22670536975E+02  0.34539209853E+02  0.41895080351E+02  0.00000000000E+00 0. -1.
         -1    1    6    6    0  503  0.14463156204E+03 -0.12403120279E+03  0.60765885044E+02  0.19998630151E+03  0.00000000000E+00 0.  1.
<mgrwt>
<rscale>  0 0.16893600E+04</rscale>
<asrwt>0</asrwt>
<pdfrwt beam="1">  1        2 0.29168764E+00 0.16893600E+04</pdfrwt>
<pdfrwt beam="2">  1       -2 0.57894814E-01 0.16893600E+04</pdfrwt>
<totfact> 0.20299044E+01</totfact>
</mgrwt>
</event>
<event>
12    3  0.4688899E-008  0.1506808E+04  0.7818608E-02  0.8879939E-01
          1   -1    0    0  501    0  0.00000000000E+00  0.00000000000E+00  0.10925294593E+04  0.10925294593E+04  0.00000000000E+00 0. -1.
         -1   -1    0    0    0  501 -0.00000000000E+00 -0.00000000000E+00 -0.51954414651E+03  0.51954414651E+03  0.00000000000E+00 0.  1.
         23    2    1    2    0    0  0.11977989179E+03 -0.10197653908E+03 -0.30215745261E+03  0.35195196718E+03  0.88456904955E+02 0.  0.
        254    2    1    2    0    0 -0.11977989179E+03  0.10197653908E+03  0.87514276543E+03  0.12601216387E+04  0.89290830847E+03 0.  0.
         23    2    4    4    0    0 -0.29807252516E+03  0.41260087955E+03  0.37924598958E+03  0.64152524622E+03  0.92953778102E+02 0.  0.
         23    2    4    4    0    0  0.17829263338E+03 -0.31062434047E+03  0.49589677585E+03  0.61859639244E+03  0.92044230861E+02 0.  0.
          1    1    3    3  502    0  0.99182761618E+02 -0.11539594472E+03 -0.23049994727E+03  0.27619498539E+03  0.00000000000E+00 0.  1.
         -1    1    3    3    0  502  0.20597130170E+02  0.13419405643E+02 -0.71657505338E+02  0.75756981792E+02  0.00000000000E+00 0. -1.
         13    1    5    5    0    0 -0.61942241321E+02  0.12318904426E+03  0.60843068995E+02  0.15071251086E+03  0.00000000000E+00 0. -1.
        -13    1    5    5    0    0 -0.23613028384E+03  0.28941183529E+03  0.31840292059E+03  0.49081273536E+03  0.00000000000E+00 0.  1.
          1    1    6    6  503    0  0.77732546551E+02 -0.55944146172E+02  0.11952624246E+03  0.15316206750E+03  0.00000000000E+00 0. -1.
         -1    1    6    6    0  503  0.10056008683E+03 -0.25468019430E+03  0.37637053339E+03  0.46543432494E+03  0.00000000000E+00 0.  1.
<mgrwt>
<rscale>  0 0.15068076E+04</rscale>
<asrwt>0</asrwt>
<pdfrwt beam="1">  1        1 0.16808146E+00 0.15068076E+04</pdfrwt>
<pdfrwt beam="2">  1       -1 0.79929869E-01 0.15068076E+04</pdfrwt>
<totfact> 0.19410680E+01</totfact>
</mgrwt>
</event>
<event>
12    3  0.4688899E-008  0.3285890E+04  0.7818608E-02  0.8166495E-01
          2   -1    0    0  501    0  0.00000000000E+00  0.00000000000E+00  0.30991216888E+04  0.30991216888E+04  0.00000000000E+00 0. -1.
         -2   -1    0    0    0  501 -0.00000000000E+00 -0.00000000000E+00 -0.87097840175E+03  0.87097840175E+03  0.00000000000E+00 0.  1.
         23    2    1    2    0    0  0.50590237314E+03  0.87597260722E+03  0.24381635985E+04  0.26411079455E+04  0.86857509059E+02 0.  0.
        254    2    1    2    0    0 -0.50590237314E+03 -0.87597260722E+03 -0.21002031141E+03  0.13289921451E+04  0.83597031694E+03 0.  0.
         23    2    4    4    0    0 -0.19835891229E+03  0.12057089746E+03 -0.12345000560E+03  0.27859828791E+03  0.92160201519E+02 0.  0.
         23    2    4    4    0    0 -0.30754346085E+03 -0.99654350468E+03 -0.86570305811E+02  0.10503938572E+04  0.90282336876E+02 0.  0.
          1    1    3    3  502    0  0.46174042053E+03  0.74101057675E+03  0.20792356802E+04  0.22551101757E+04  0.00000000000E+00 0. -1.
         -1    1    3    3    0  502  0.44161952610E+02  0.13496203047E+03  0.35892791830E+03  0.38599776976E+03  0.00000000000E+00 0.  1.
         13    1    5    5    0    0 -0.49042524506E+02  0.28184104826E+01 -0.61267419983E+02  0.78529035388E+02  0.00000000000E+00 0. -1.
        -13    1    5    5    0    0 -0.14931638779E+03  0.11775248698E+03 -0.62182585617E+02  0.20006925252E+03  0.00000000000E+00 0.  1.
          3    1    6    6  503    0 -0.32235639527E+02 -0.20184252881E+03  0.44233336126E+01  0.20444830342E+03  0.00000000000E+00 0. -1.
         -3    1    6    6    0  503 -0.27530782132E+03 -0.79470097587E+03 -0.90993639424E+02  0.84594555377E+03  0.00000000000E+00 0.  1.
<mgrwt>
<rscale>  0 0.32858899E+04</rscale>
<asrwt>0</asrwt>
<pdfrwt beam="1">  1        2 0.47678795E+00 0.32858899E+04</pdfrwt>
<pdfrwt beam="2">  1       -2 0.13399668E+00 0.32858899E+04</pdfrwt>
<totfact> 0.50619398E-01</totfact>
</mgrwt>
</event>
<event>
12    3  0.4688899E-008  0.2384925E+04  0.7818608E-02  0.8445169E-01
         -2   -1    0    0    0  501 -0.00000000000E+00  0.00000000000E+00  0.13903139800E+04  0.13903139800E+04  0.00000000000E+00 0. -1.
          2   -1    0    0  501    0  0.00000000000E+00 -0.00000000000E+00 -0.10227665321E+04  0.10227665321E+04  0.00000000000E+00 0.  1.
         23    2    1    2    0    0 -0.66564558788E+02  0.27883867713E+02  0.11961283291E+04  0.12017329548E+04  0.90723560295E+02 0.  0.
        254    2    1    2    0    0  0.66564558788E+02 -0.27883867713E+02 -0.82858088115E+03  0.12113475574E+04  0.88068625377E+03 0.  0.
         23    2    4    4    0    0 -0.38139528478E+02  0.25593900492E+03 -0.85229282819E+03  0.89491825670E+03  0.86696155150E+02 0.  0.
         23    2    4    4    0    0  0.10470408727E+03 -0.28382287263E+03  0.23711947037E+02  0.31642930068E+03  0.89704386608E+02 0.  0.
          1    1    3    3  502    0  0.41563886479E+01  0.42083619310E+02  0.53939710857E+03  0.54105225932E+03  0.00000000000E+00 0. -1.
         -1    1    3    3    0  502 -0.70720947436E+02 -0.14199751597E+02  0.65673122050E+03  0.66068069544E+03  0.00000000000E+00 0.  1.
         13    1    5    5    0    0  0.17545073671E+02  0.35184371453E+02 -0.20546036057E+03  0.20918826299E+03  0.00000000000E+00 0. -1.
        -13    1    5    5    0    0 -0.55684602149E+02  0.22075463347E+03 -0.64683246762E+03  0.68572999371E+03  0.00000000000E+00 0.  1.
          1    1    6    6  503    0  0.10123509346E+03 -0.25861625783E+03  0.47311557589E+02  0.28172556938E+03  0.00000000000E+00 0. -1.
         -1    1    6    6    0  503  0.34689938057E+01 -0.25206614805E+02 -0.23599610552E+02  0.34703731301E+02  0.00000000000E+00 0.  1.
<mgrwt>
<rscale>  0 0.23849248E+04</rscale>
<asrwt>0</asrwt>
<pdfrwt beam="1">  1        2 0.15734870E+00 0.23849248E+04</pdfrwt>
<pdfrwt beam="2">  1       -2 0.21389446E+00 0.23849248E+04</pdfrwt>
<totfact> 0.23700783E+00</totfact>
</mgrwt>
</event>
<event>
12    3  0.4688899E-008  0.2267537E+04  0.7818608E-02  0.8490832E-01
         -2   -1    0    0    0  501 -0.00000000000E+00  0.00000000000E+00  0.68938647775E+03  0.68938647775E+03  0.00000000000E+00 0.  1.
          2   -1    0    0  501    0  0.00000000000E+00 -0.00000000000E+00 -0.18646016051E+04  0.18646016051E+04  0.00000000000E+00 0. -1.
         23    2    1    2    0    0  0.21999670186E+03 -0.61977614780E+03  0.27914441311E+03  0.72025015920E+03  0.91201240327E+02 0.  0.
        254    2    1    2    0    0 -0.21999670186E+03  0.61977614780E+03 -0.14543595404E+04  0.18337379236E+04  0.90272480714E+03 0.  0.
         23    2    4    4    0    0 -0.42018075133E+02  0.35398713944E+03 -0.14542478564E+04  0.14999913269E+04  0.89803893240E+02 0.  0.
         23    2    4    4    0    0 -0.17797862673E+03  0.26578900836E+03 -0.11168399058E+00  0.33374659673E+03  0.95218642160E+02 0.  0.
          4    1    3    3  502    0  0.12727084196E+03 -0.26408471298E+03  0.15922962550E+03  0.33360557021E+03  0.00000000000E+00 0. -1.
         -4    1    3    3    0  502  0.92725859906E+02 -0.35569143482E+03  0.11991478762E+03  0.38664458899E+03  0.00000000000E+00 0.  1.
         13    1    5    5    0    0 -0.14419106848E+02  0.24312376288E+03 -0.81493247141E+03  0.85054806312E+03  0.00000000000E+00 0. -1.
        -13    1    5    5    0    0 -0.27598968285E+02  0.11086337656E+03 -0.63931538502E+03  0.64944326376E+03  0.00000000000E+00 0.  1.
          3    1    6    6  503    0 -0.57442586273E+02  0.34569458434E+02  0.25526155217E+02  0.71737596658E+02  0.00000000000E+00 0. -1.
         -3    1    6    6    0  503 -0.12053604046E+03  0.23121954993E+03 -0.25637839207E+02  0.26200900007E+03  0.00000000000E+00 0.  1.
<mgrwt>
<rscale>  0 0.22675371E+04</rscale>
<asrwt>0</asrwt>
<pdfrwt beam="1">  1        2 0.28686178E+00 0.22675371E+04</pdfrwt>
<pdfrwt beam="2">  1       -2 0.10605946E+00 0.22675371E+04</pdfrwt>
<totfact> 0.51821845E+00</totfact>
</mgrwt>
</event>
<event>
12    3  0.4688899E-008  0.1879304E+04  0.7818608E-02  0.8665227E-01
         -2   -1    0    0    0  501 -0.00000000000E+00  0.00000000000E+00  0.27069212911E+03  0.27069212911E+03  0.00000000000E+00 0.  1.
          2   -1    0    0  501    0  0.00000000000E+00 -0.00000000000E+00 -0.32618072088E+04  0.32618072088E+04  0.00000000000E+00 0. -1.
         23    2    1    2    0    0  0.76553266869E+02 -0.72293675751E+02  0.18536321798E+03  0.22982768694E+03  0.85874704572E+02 0.  0.
        254    2    1    2    0    0 -0.76553266869E+02  0.72293675751E+02 -0.31764782977E+04  0.33026716510E+04  0.89807509726E+03 0.  0.
         23    2    4    4    0    0 -0.49998600796E+02 -0.16641872944E+03 -0.29594037679E+04  0.29659148084E+04  0.91569295655E+02 0.  0.
         23    2    4    4    0    0 -0.26554666073E+02  0.23871240519E+03 -0.21707452981E+03  0.33675684256E+03  0.92709529370E+02 0.  0.
          2    1    3    3  502    0 -0.85760751118E+01  0.73005205798E+01  0.47381377633E+00  0.11272584644E+02  0.00000000000E+00 0. -1.
         -2    1    3    3    0  502  0.85129341981E+02 -0.79594196331E+02  0.18488940420E+03  0.21855510230E+03  0.00000000000E+00 0.  1.
         13    1    5    5    0    0 -0.16466449415E+02 -0.30225171918E+02 -0.19936173760E+03  0.20231116478E+03  0.00000000000E+00 0. -1.
        -13    1    5    5    0    0 -0.33532151381E+02 -0.13619355752E+03 -0.27600420303E+04  0.27636036437E+04  0.00000000000E+00 0.  1.
          2    1    6    6  503    0  0.14024892738E+02  0.61583577837E+02 -0.14851790634E+02  0.64883051412E+02  0.00000000000E+00 0. -1.
         -2    1    6    6    0  503 -0.40579558811E+02  0.17712882735E+03 -0.20222273917E+03  0.27187379114E+03  0.00000000000E+00 0.  1.
<mgrwt>
<rscale>  0 0.18793036E+04</rscale>
<asrwt>0</asrwt>
<pdfrwt beam="1">  1        2 0.50181651E+00 0.18793036E+04</pdfrwt>
<pdfrwt beam="2">  1       -2 0.41644942E-01 0.18793036E+04</pdfrwt>
<totfact> 0.60831193E+00</totfact>
</mgrwt>
</event>
<event>
12    3  0.4688899E-008  0.2151119E+04  0.7818608E-02  0.8539054E-01
          1   -1    0    0  501    0  0.00000000000E+00  0.00000000000E+00  0.11420370785E+04  0.11420370785E+04  0.00000000000E+00 0. -1.
         -1   -1    0    0    0  501 -0.00000000000E+00 -0.00000000000E+00 -0.10129512813E+04  0.10129512813E+04  0.00000000000E+00 0.  1.
         23    2    1    2    0    0  0.85807032065E+03  0.20951928173E+01 -0.13083992629E+03  0.87291074276E+03  0.92547358202E+02 0.  0.
        254    2    1    2    0    0 -0.85807032065E+03 -0.20951928173E+01  0.25992572348E+03  0.12820776170E+04  0.91644561718E+03 0.  0.
         23    2    4    4    0    0 -0.89761610858E+03  0.25621679874E+03  0.60449953013E+02  0.93978366824E+03  0.90429087906E+02 0.  0.
         23    2    4    4    0    0  0.39545787935E+02 -0.25831199156E+03  0.19947577047E+03  0.34229394874E+03  0.95318466281E+02 0.  0.
          4    1    3    3  502    0  0.65345123237E+02  0.95686794286E+00  0.14575465767E+02  0.66957784682E+02  0.00000000000E+00 0. -1.
         -4    1    3    3    0  502  0.79272519741E+03  0.11383248745E+01 -0.14541539206E+03  0.80595295808E+03  0.00000000000E+00 0.  1.
         13    1    5    5    0    0 -0.80586419271E+03  0.23714505743E+03  0.27620764459E+02  0.84048663403E+03  0.00000000000E+00 0. -1.
        -13    1    5    5    0    0 -0.91751915871E+02  0.19071741315E+02  0.32829188554E+02  0.99297034215E+02  0.00000000000E+00 0.  1.
          3    1    6    6  503    0 -0.21931019813E+02 -0.10589357973E+03  0.11367266631E+03  0.15689453440E+03  0.00000000000E+00 0. -1.
         -3    1    6    6    0  503  0.61476807748E+02 -0.15241841183E+03  0.85803104159E+02  0.18539941434E+03  0.00000000000E+00 0.  1.
<mgrwt>
<rscale>  0 0.21511187E+04</rscale>
<asrwt>0</asrwt>
<pdfrwt beam="1">  1        1 0.17569801E+00 0.21511187E+04</pdfrwt>
<pdfrwt beam="2">  1       -1 0.15583866E+00 0.21511187E+04</pdfrwt>
<totfact> 0.33950020E+00</totfact>
</mgrwt>
</event>
<event>
12    3  0.4688899E-008  0.1114070E+04  0.7818608E-02  0.9191586E-01
         -2   -1    0    0    0  501 -0.00000000000E+00  0.00000000000E+00  0.15757361457E+03  0.15757361457E+03  0.00000000000E+00 0.  1.
          2   -1    0    0  501    0  0.00000000000E+00 -0.00000000000E+00 -0.19691629901E+04  0.19691629901E+04  0.00000000000E+00 0. -1.
         23    2    1    2    0    0 -0.23672848714E+02  0.61791897153E+02 -0.14718349606E+02  0.11585205491E+03  0.93949063286E+02 0.  0.
        254    2    1    2    0    0  0.23672848714E+02 -0.61791897153E+02 -0.17968710259E+04  0.20108845498E+04  0.90029581047E+03 0.  0.
         23    2    4    4    0    0  0.19645228537E+03  0.22984815705E+03 -0.19590859740E+03  0.37192557349E+03  0.92329724110E+02 0.  0.
         23    2    4    4    0    0 -0.17277943666E+03 -0.29164005420E+03 -0.16009624285E+04  0.16389589763E+04  0.90549287276E+02 0.  0.
          3    1    3    3  502    0  0.20287337916E+02  0.64420046973E+02  0.47420314657E+01  0.67705283354E+02  0.00000000000E+00 0. -1.
         -3    1    3    3    0  502 -0.43960186630E+02 -0.26281498194E+01 -0.19460381072E+02  0.48146771558E+02  0.00000000000E+00 0.  1.
         13    1    5    5    0    0  0.13777329378E+03  0.18669654572E+03 -0.18805377563E+03  0.29866587216E+03  0.00000000000E+00 0.  1.
        -13    1    5    5    0    0  0.58678991587E+02  0.43151611331E+02 -0.78548217691E+01  0.73259701331E+02  0.00000000000E+00 0. -1.
          2    1    6    6  503    0 -0.18206060523E+03 -0.28452443956E+03 -0.15146948766E+04  0.15519023133E+04  0.00000000000E+00 0. -1.
         -2    1    6    6    0  503  0.92811685718E+01 -0.71156146354E+01 -0.86267551878E+02  0.87056662977E+02  0.00000000000E+00 0.  1.
<mgrwt>
<rscale>  0 0.11140702E+04</rscale>
<asrwt>0</asrwt>
<pdfrwt beam="1">  1        2 0.30294814E+00 0.11140702E+04</pdfrwt>
<pdfrwt beam="2">  1       -2 0.24242095E-01 0.11140702E+04</pdfrwt>
<totfact> 0.10477557E+02</totfact>
</mgrwt>
</event>
<event>
12    3  0.4688899E-008  0.3689699E+04  0.7818608E-02  0.8070248E-01
         -2   -1    0    0    0  501 -0.00000000000E+00  0.00000000000E+00  0.93604252782E+03  0.93604252782E+03  0.00000000000E+00 0.  1.
          2   -1    0    0  501    0  0.00000000000E+00 -0.00000000000E+00 -0.36360204178E+04  0.36360204178E+04  0.00000000000E+00 0. -1.
         23    2    1    2    0    0 -0.14817703890E+04  0.82795112720E+03 -0.83737661484E+03  0.18949444625E+04  0.92023725440E+02 0.  0.
        254    2    1    2    0    0  0.14817703890E+04 -0.82795112720E+03 -0.18626012752E+04  0.26771184832E+04  0.90362232588E+03 0.  0.
         23    2    4    4    0    0  0.14007514652E+04 -0.37463134656E+03 -0.14162391291E+04  0.20289998594E+04  0.93026047256E+02 0.  0.
         23    2    4    4    0    0  0.81018923797E+02 -0.45331978064E+03 -0.44636214605E+03  0.64811862377E+03  0.93571873477E+02 0.  0.
          2    1    3    3  502    0 -0.13567684636E+04  0.73244973401E+03 -0.77564102018E+03  0.17259554655E+04  0.00000000000E+00 0.  1.
         -2    1    3    3    0  502 -0.12500192544E+03  0.95501393194E+02 -0.61735594656E+02  0.16898899702E+03  0.00000000000E+00 0. -1.
         13    1    5    5    0    0  0.11775111004E+04 -0.32299181085E+03 -0.11443848070E+04  0.16734612896E+04  0.00000000000E+00 0. -1.
        -13    1    5    5    0    0  0.22324036486E+03 -0.51639535715E+02 -0.27185432214E+03  0.35553856980E+03  0.00000000000E+00 0.  1.
          1    1    6    6  503    0 -0.28515731445E+00 -0.26193155756E+03 -0.24462938732E+03  0.35840167313E+03  0.00000000000E+00 0. -1.
         -1    1    6    6    0  503  0.81304081111E+02 -0.19138822309E+03 -0.20173275873E+03  0.28971695064E+03  0.00000000000E+00 0.  1.
<mgrwt>
<rscale>  0 0.36896990E+04</rscale>
<asrwt>0</asrwt>
<pdfrwt beam="1">  1        2 0.55938775E+00 0.36896990E+04</pdfrwt>
<pdfrwt beam="2">  1       -2 0.14400654E+00 0.36896990E+04</pdfrwt>
<totfact> 0.17516282E-01</totfact>
</mgrwt>
</event>
<event>
12    3  0.4688899E-008  0.1893064E+04  0.7818608E-02  0.8658317E-01
          1   -1    0    0  501    0  0.00000000000E+00  0.00000000000E+00  0.16388333919E+04  0.16388333919E+04  0.00000000000E+00 0. -1.
         -1   -1    0    0    0  501 -0.00000000000E+00 -0.00000000000E+00 -0.54668316300E+03  0.54668316300E+03  0.00000000000E+00 0.  1.
         23    2    1    2    0    0 -0.24669989998E+03 -0.21442588805E+03 -0.32544956399E+03  0.47418935389E+03  0.10999464770E+03 0.  0.
        254    2    1    2    0    0  0.24669989998E+03  0.21442588805E+03  0.14175997929E+04  0.17113272010E+04  0.90122822526E+03 0.  0.
         23    2    4    4    0    0 -0.20655239418E+03  0.12776475709E+03  0.11318496263E+04  0.11609831794E+04  0.88377835171E+02 0.  0.
         23    2    4    4    0    0  0.45325229416E+03  0.86661130963E+02  0.28575016662E+03  0.55034402158E+03  0.90981265015E+02 0.  0.
          2    1    3    3  502    0 -0.51194824681E+02 -0.71017740528E+02 -0.31260115437E+02  0.92960337569E+02  0.00000000000E+00 0. -1.
         -2    1    3    3    0  502 -0.19550507530E+03 -0.14340814753E+03 -0.29418944855E+03  0.38122901632E+03  0.00000000000E+00 0.  1.
         13    1    5    5    0    0 -0.28274573052E+02  0.36082801584E+02  0.38413629571E+03  0.38686187940E+03  0.00000000000E+00 0. -1.
        -13    1    5    5    0    0 -0.17827782112E+03  0.91681955508E+02  0.74771333056E+03  0.77412130004E+03  0.00000000000E+00 0.  1.
          2    1    6    6  503    0  0.18963941163E+03  0.80678899822E+02  0.13893042759E+03  0.24854346709E+03  0.00000000000E+00 0. -1.
         -2    1    6    6    0  503  0.26361288252E+03  0.59822311404E+01  0.14681973903E+03  0.30180055449E+03  0.00000000000E+00 0.  1.
<mgrwt>
<rscale>  0 0.18930638E+04</rscale>
<asrwt>0</asrwt>
<pdfrwt beam="1">  1        1 0.25212821E+00 0.18930638E+04</pdfrwt>
<pdfrwt beam="2">  1       -1 0.84105102E-01 0.18930638E+04</pdfrwt>
<totfact> 0.68819117E+00</totfact>
</mgrwt>
</event>
<event>
12    3  0.4688899E-008  0.2508640E+04  0.7818608E-02  0.8399914E-01
          2   -1    0    0  501    0  0.00000000000E+00  0.00000000000E+00  0.39954141705E+04  0.39954141705E+04  0.00000000000E+00 0. -1.
         -2   -1    0    0    0  501 -0.00000000000E+00 -0.00000000000E+00 -0.39378125386E+03  0.39378125386E+03  0.00000000000E+00 0.  1.
         23    2    1    2    0    0 -0.10366459573E+04 -0.22081518442E+03  0.20450918758E+04  0.23052251722E+04  0.90929244929E+02 0.  0.
        254    2    1    2    0    0  0.10366459573E+04  0.22081518442E+03  0.15565410409E+04  0.20839702522E+04  0.89259050731E+03 0.  0.
         23    2    4    4    0    0  0.11555371340E+04  0.79569614496E+02  0.14315300322E+04  0.18436124692E+04  0.89617587252E+02 0.  0.
         23    2    4    4    0    0 -0.11889117671E+03  0.14124556992E+03  0.12501100864E+03  0.24035778297E+03  0.89770199011E+02 0.  0.
          3    1    3    3  502    0 -0.13694850449E+03 -0.60387644788E+02  0.27123694056E+03  0.30979192767E+03  0.00000000000E+00 0. -1.
         -3    1    3    3    0  502 -0.89969745279E+03 -0.16042753963E+03  0.17738549352E+04  0.19954332445E+04  0.00000000000E+00 0.  1.
         13    1    5    5    0    0  0.10170195001E+04  0.64572320843E+02  0.13018535239E+04  0.16532757925E+04  0.00000000000E+00 0.  1.
        -13    1    5    5    0    0  0.13851763386E+03  0.14997293653E+02  0.12967650827E+03  0.19033667672E+03  0.00000000000E+00 0. -1.
          2    1    6    6  503    0  0.14166665008E+02  0.23947821814E+02  0.19392215651E+02  0.33915344535E+02  0.00000000000E+00 0. -1.
         -2    1    6    6    0  503 -0.13305784172E+03  0.11729774811E+03  0.10561879299E+03  0.20644243844E+03  0.00000000000E+00 0.  1.
<mgrwt>
<rscale>  0 0.25086404E+04</rscale>
<asrwt>0</asrwt>
<pdfrwt beam="1">  1        2 0.61467908E+00 0.25086404E+04</pdfrwt>
<pdfrwt beam="2">  1       -2 0.60581734E-01 0.25086404E+04</pdfrwt>
<totfact> 0.78297827E-01</totfact>
</mgrwt>
</event>
<event>
12    3  0.4688899E-008  0.2760694E+04  0.7818608E-02  0.8315576E-01
          2   -1    0    0  501    0  0.00000000000E+00  0.00000000000E+00  0.17583629630E+04  0.17583629630E+04  0.00000000000E+00 0. -1.
         -2   -1    0    0    0  501 -0.00000000000E+00 -0.00000000000E+00 -0.10835978026E+04  0.10835978026E+04  0.00000000000E+00 0.  1.
         23    2    1    2    0    0 -0.11318432233E+04  0.22499883638E+01 -0.19933416797E+03  0.11528290936E+04  0.90590639386E+02 0.  0.
        254    2    1    2    0    0  0.11318432233E+04 -0.22499883638E+01  0.87409932844E+03  0.16891316720E+04  0.89891157789E+03 0.  0.
         23    2    4    4    0    0  0.88609875391E+03 -0.27813857915E+03  0.26336601487E+03  0.96957336613E+03  0.90436627674E+02 0.  0.
         23    2    4    4    0    0  0.24574446937E+03  0.27588859078E+03  0.61073331357E+03  0.71955830588E+03  0.90907186174E+02 0.  0.
          3    1    3    3  502    0 -0.10187203904E+04 -0.42897553013E+01 -0.20589402635E+03  0.10393276605E+04  0.00000000000E+00 0. -1.
         -3    1    3    3    0  502 -0.11312283287E+03  0.65397436651E+01  0.65598583799E+01  0.11350143306E+03  0.00000000000E+00 0.  1.
         13    1    5    5    0    0  0.43372923622E+03 -0.14052250912E+03  0.82531119102E+02  0.46333466473E+03  0.00000000000E+00 0.  1.
        -13    1    5    5    0    0  0.45236951769E+03 -0.13761607003E+03  0.18083489576E+03  0.50623870140E+03  0.00000000000E+00 0. -1.
          4    1    6    6  503    0  0.21971480289E+02  0.52070935544E+01  0.12382280636E+02  0.25752293939E+02  0.00000000000E+00 0. -1.
         -4    1    6    6    0  503  0.22377298908E+03  0.27068149723E+03  0.59835103294E+03  0.69380601194E+03  0.00000000000E+00 0.  1.
<mgrwt>
<rscale>  0 0.27606943E+04</rscale>
<asrwt>0</asrwt>
<pdfrwt beam="1">  1        2 0.27051738E+00 0.27606943E+04</pdfrwt>
<pdfrwt beam="2">  1       -2 0.16670735E+00 0.27606943E+04</pdfrwt>
<totfact> 0.17880237E+00</totfact>
</mgrwt>
</event>
<event>
12    3  0.4688899E-008  0.1529120E+04  0.7818608E-02  0.8865316E-01
         -4   -1    0    0    0  501 -0.00000000000E+00  0.00000000000E+00  0.76336946001E+03  0.76336946001E+03  0.00000000000E+00 0. -1.
          4   -1    0    0  501    0  0.00000000000E+00 -0.00000000000E+00 -0.76575252513E+03  0.76575252513E+03  0.00000000000E+00 0.  1.
         23    2    1    2    0    0  0.35648970106E+03  0.39126799997E+02  0.33666501521E+03  0.49988296474E+03  0.89015911665E+02 0.  0.
        254    2    1    2    0    0 -0.35648970106E+03 -0.39126799997E+02 -0.33904808033E+03  0.10292390204E+04  0.90319629478E+03 0.  0.
         23    2    4    4    0    0 -0.37992431055E+03 -0.39616706790E+03 -0.35434335637E+03  0.65956194400E+03  0.90398652300E+02 0.  0.
         23    2    4    4    0    0  0.23434609488E+02  0.35704026790E+03  0.15295276039E+02  0.36967707641E+03  0.91652940634E+02 0.  0.
          3    1    3    3  502    0  0.18412302083E+03  0.30951070635E+02  0.23300486994E+03  0.29858085168E+03  0.00000000000E+00 0. -1.
         -3    1    3    3    0  502  0.17236668024E+03  0.81757293624E+01  0.10366014526E+03  0.20130211306E+03  0.00000000000E+00 0.  1.
         13    1    5    5    0    0 -0.10702877325E+01 -0.27967270422E+02 -0.18470278399E+02  0.33533042135E+02  0.00000000000E+00 0. -1.
        -13    1    5    5    0    0 -0.37885402282E+03 -0.36819979747E+03 -0.33587307797E+03  0.62602890187E+03  0.00000000000E+00 0.  1.
          2    1    6    6  503    0 -0.33431633004E+02  0.17663636319E+03 -0.15007810983E+01  0.17977856165E+03  0.00000000000E+00 0. -1.
         -2    1    6    6    0  503  0.56866242492E+02  0.18040390471E+03  0.16796057137E+02  0.18989851475E+03  0.00000000000E+00 0.  1.
<mgrwt>
<rscale>  0 0.15291201E+04</rscale>
<asrwt>0</asrwt>
<pdfrwt beam="1">  1        4 0.11780808E+00 0.15291201E+04</pdfrwt>
<pdfrwt beam="2">  1       -4 0.11744145E+00 0.15291201E+04</pdfrwt>
<totfact> 0.59695573E-01</totfact>
</mgrwt>
</event>
<event>
12    3  0.4688899E-008  0.1326605E+04  0.7818608E-02  0.9008729E-01
         -1   -1    0    0    0  501 -0.00000000000E+00  0.00000000000E+00  0.68804087105E+03  0.68804087105E+03  0.00000000000E+00 0.  1.
          1   -1    0    0  501    0  0.00000000000E+00 -0.00000000000E+00 -0.63945350063E+03  0.63945350063E+03  0.00000000000E+00 0. -1.
         23    2    1    2    0    0  0.77574607959E+02 -0.85831478115E+02 -0.31320421396E+03  0.34642376228E+03  0.92345443817E+02 0.  0.
        254    2    1    2    0    0 -0.77574607959E+02  0.85831478115E+02  0.36179158438E+03  0.98107060939E+03  0.90455598370E+03 0.  0.
         23    2    4    4    0    0 -0.40942216327E+03  0.31341511711E+02  0.45581580362E+03  0.62008180782E+03  0.90136582047E+02 0.  0.
         23    2    4    4    0    0  0.33184755531E+03  0.54489966404E+02 -0.94024219236E+02  0.36098880158E+03  0.91544550104E+02 0.  0.
          2    1    3    3  502    0  0.67462844777E+01 -0.36551551382E+02 -0.20342807156E+03  0.20679581369E+03  0.00000000000E+00 0. -1.
         -2    1    3    3    0  502  0.70828323482E+02 -0.49279926734E+02 -0.10977614240E+03  0.13962794859E+03  0.00000000000E+00 0.  1.
         13    1    5    5    0    0 -0.16863741027E+02 -0.13402092216E+02  0.82329220892E+01  0.23060417241E+02  0.00000000000E+00 0.  1.
        -13    1    5    5    0    0 -0.39255842225E+03  0.44743603927E+02  0.44758288153E+03  0.59702139058E+03  0.00000000000E+00 0. -1.
          1    1    6    6  503    0  0.27228228057E+03  0.70845946146E+01 -0.75358786577E+02  0.28260710980E+03  0.00000000000E+00 0. -1.
         -1    1    6    6    0  503  0.59565274744E+02  0.47405371790E+02 -0.18665432659E+02  0.78381691780E+02  0.00000000000E+00 0.  1.
<mgrwt>
<rscale>  0 0.13266049E+04</rscale>
<asrwt>0</asrwt>
<pdfrwt beam="1">  1        1 0.98377462E-01 0.13266049E+04</pdfrwt>
<pdfrwt beam="2">  1       -1 0.10585244E+00 0.13266049E+04</pdfrwt>
<totfact> 0.25573913E+01</totfact>
</mgrwt>
</event>
<event>
12    3  0.4688899E-008  0.2358750E+04  0.7818608E-02  0.8455110E-01
          1   -1    0    0  501    0  0.00000000000E+00  0.00000000000E+00  0.12583299356E+04  0.12583299356E+04  0.00000000000E+00 0. -1.
         -1   -1    0    0    0  501 -0.00000000000E+00 -0.00000000000E+00 -0.11053744735E+04  0.11053744735E+04  0.00000000000E+00 0.  1.
         23    2    1    2    0    0 -0.91787871772E+03 -0.10635586937E+03  0.46122821925E+03  0.10369216153E+04  0.93070159619E+02 0.  0.
        254    2    1    2    0    0  0.91787871772E+03  0.10635586937E+03 -0.30827275715E+03  0.13267827938E+04  0.90083715377E+03 0.  0.
         23    2    4    4    0    0  0.60835660025E+03  0.48203875803E+03 -0.28270699149E+03  0.83072654979E+03  0.87887656547E+02 0.  0.
         23    2    4    4    0    0  0.30952211748E+03 -0.37568288866E+03 -0.25565765659E+02  0.49605624397E+03  0.92068532997E+02 0.  0.
          1    1    3    3  502    0 -0.79840461418E+03 -0.68221563103E+02  0.42123848750E+03  0.90528778461E+03  0.00000000000E+00 0. -1.
         -1    1    3    3    0  502 -0.11947410354E+03 -0.38134306269E+02  0.39989731752E+02  0.13163383067E+03  0.00000000000E+00 0.  1.
         13    1    5    5    0    0  0.51016740713E+03  0.38856570697E+03 -0.26547721322E+03  0.69406933564E+03  0.00000000000E+00 0. -1.
        -13    1    5    5    0    0  0.98189193115E+02  0.93473051061E+02 -0.17229778265E+02  0.13665721415E+03  0.00000000000E+00 0.  1.
          2    1    6    6  503    0  0.31281623242E+03 -0.36250108953E+03 -0.15351850850E+02  0.47905815357E+03  0.00000000000E+00 0. -1.
         -2    1    6    6    0  503 -0.32941149428E+01 -0.13181799129E+02 -0.10213914810E+02  0.16998090401E+02  0.00000000000E+00 0.  1.
<mgrwt>
<rscale>  0 0.23587503E+04</rscale>
<asrwt>0</asrwt>
<pdfrwt beam="1">  1        1 0.19358922E+00 0.23587503E+04</pdfrwt>
<pdfrwt beam="2">  1       -1 0.17005761E+00 0.23587503E+04</pdfrwt>
<totfact> 0.21426821E+00</totfact>
</mgrwt>
</event>
<event>
12    3  0.4688899E-008  0.2724864E+04  0.7818608E-02  0.8326982E-01
          2   -1    0    0  501    0  0.00000000000E+00  0.00000000000E+00  0.15928325360E+04  0.15928325360E+04  0.00000000000E+00 0. -1.
         -2   -1    0    0    0  501 -0.00000000000E+00 -0.00000000000E+00 -0.11653586250E+04  0.11653586250E+04  0.00000000000E+00 0.  1.
         23    2    1    2    0    0 -0.11999019622E+04 -0.10130589386E+03  0.30056989046E+03  0.12445659476E+04  0.92598789667E+02 0.  0.
        254    2    1    2    0    0  0.11999019622E+04  0.10130589386E+03  0.12690402046E+03  0.15136252135E+04  0.90825605063E+03 0.  0.
         23    2    4    4    0    0 -0.11662221171E+03  0.84318989188E+02  0.92404644621E+02  0.19334864592E+03  0.90192285309E+02 0.  0.
         23    2    4    4    0    0  0.13165241739E+04  0.16986904676E+02  0.34499375836E+02  0.13202765675E+04  0.91736320924E+02 0.  0.
          3    1    3    3  502    0 -0.44383574278E+03 -0.66775643091E+02  0.77055493134E+02  0.45539730137E+03  0.00000000000E+00 0. -1.
         -3    1    3    3    0  502 -0.75606621938E+03 -0.34530250773E+02  0.22351439733E+03  0.78916864618E+03  0.00000000000E+00 0.  1.
         13    1    5    5    0    0 -0.10538000327E+03  0.71431242095E+02  0.11040959824E+03  0.16851601354E+03  0.00000000000E+00 0.  1.
        -13    1    5    5    0    0 -0.11242208442E+02  0.12887747093E+02 -0.18004953623E+02  0.24832632376E+02  0.00000000000E+00 0. -1.
          3    1    6    6  503    0  0.94271555049E+02 -0.12026844921E+02  0.22308518908E+02  0.97618856304E+02  0.00000000000E+00 0. -1.
         -3    1    6    6    0  503  0.12222526188E+04  0.29013749597E+02  0.12190856928E+02  0.12226577112E+04  0.00000000000E+00 0.  1.
<mgrwt>
<rscale>  0 0.27248641E+04</rscale>
<asrwt>0</asrwt>
<pdfrwt beam="1">  1        2 0.24505116E+00 0.27248641E+04</pdfrwt>
<pdfrwt beam="2">  1       -2 0.17928594E+00 0.27248641E+04</pdfrwt>
<totfact> 0.18076012E+00</totfact>
</mgrwt>
</event>
<event>
12    3  0.4688899E-008  0.1716313E+04  0.7818608E-02  0.8752115E-01
          2   -1    0    0  501    0  0.00000000000E+00  0.00000000000E+00  0.13069871635E+04  0.13069871635E+04  0.00000000000E+00 0. -1.
         -2   -1    0    0    0  501 -0.00000000000E+00 -0.00000000000E+00 -0.56345810459E+03  0.56345810459E+03  0.00000000000E+00 0.  1.
         23    2    1    2    0    0  0.28195835418E+03 -0.22806696097E+03 -0.27292659937E+03  0.46332879452E+03  0.93110638544E+02 0.  0.
        254    2    1    2    0    0 -0.28195835418E+03  0.22806696097E+03  0.10164556582E+04  0.14071164735E+04  0.90292835414E+03 0.  0.
         23    2    4    4    0    0  0.90255165764E+02 -0.16586257799E+03  0.78197309898E+03  0.80956952798E+03  0.90909314065E+02 0.  0.
         23    2    4    4    0    0 -0.37221351995E+03  0.39392953895E+03  0.23448255927E+03  0.59754694554E+03  0.91416056765E+02 0.  0.
          2    1    3    3  502    0  0.73769997524E+02 -0.70731915788E+02 -0.13140510653E+03  0.16647017291E+03  0.00000000000E+00 0. -1.
         -2    1    3    3    0  502  0.20818835666E+03 -0.15733504518E+03 -0.14152149284E+03  0.29685862161E+03  0.00000000000E+00 0.  1.
         13    1    5    5    0    0  0.65242655041E+02 -0.16833513176E+03  0.62334401585E+03  0.64896154178E+03  0.00000000000E+00 0.  1.
        -13    1    5    5    0    0  0.25012510723E+02  0.24725537743E+01  0.15862908313E+03  0.16060798620E+03  0.00000000000E+00 0. -1.
          3    1    6    6  503    0 -0.83213624971E+01  0.43512100212E+02  0.15349984750E+02  0.46884645359E+02  0.00000000000E+00 0. -1.
         -3    1    6    6    0  503 -0.36389215745E+03  0.35041743874E+03  0.21913257452E+03  0.55066230018E+03  0.00000000000E+00 0.  1.
<mgrwt>
<rscale>  0 0.17163129E+04</rscale>
<asrwt>0</asrwt>
<pdfrwt beam="1">  1        2 0.20107495E+00 0.17163129E+04</pdfrwt>
<pdfrwt beam="2">  1       -2 0.86685863E-01 0.17163129E+04</pdfrwt>
<totfact> 0.17931804E+01</totfact>
</mgrwt>
</event>
<event>
12    3  0.4688899E-008  0.2255214E+04  0.7818608E-02  0.8495792E-01
          3   -1    0    0  501    0  0.00000000000E+00  0.00000000000E+00  0.12472979612E+04  0.12472979612E+04  0.00000000000E+00 0. -1.
         -3   -1    0    0    0  501 -0.00000000000E+00 -0.00000000000E+00 -0.10194017776E+04  0.10194017776E+04  0.00000000000E+00 0.  1.
         23    2    1    2    0    0  0.65218282005E+03  0.68565692814E+03  0.14413430373E+03  0.96148170255E+03  0.90578766607E+02 0.  0.
        254    2    1    2    0    0 -0.65218282005E+03 -0.68565692814E+03  0.83761879881E+02  0.13052180362E+04  0.89504760519E+03 0.  0.
         23    2    4    4    0    0 -0.14102755435E+03 -0.56110019360E+03 -0.28973353276E+03  0.65349305006E+03  0.91572092496E+02 0.  0.
         23    2    4    4    0    0 -0.51115526570E+03 -0.12455673454E+03  0.37349541264E+03  0.65172498612E+03  0.91937742461E+02 0.  0.
          1    1    3    3  502    0  0.50724730818E+03  0.58423330260E+03  0.11581372624E+03  0.78233062238E+03  0.00000000000E+00 0. -1.
         -1    1    3    3    0  502  0.14493551188E+03  0.10142362553E+03  0.28320577489E+02  0.17915108018E+03  0.00000000000E+00 0.  1.
         13    1    5    5    0    0 -0.85255642689E+02 -0.46137585699E+03 -0.25534587756E+03  0.53417012572E+03  0.00000000000E+00 0. -1.
        -13    1    5    5    0    0 -0.55771911661E+02 -0.99724336605E+02 -0.34387655201E+02  0.11932292433E+03  0.00000000000E+00 0.  1.
          2    1    6    6  503    0 -0.32630824664E+03 -0.11366495588E+03  0.20756046510E+03  0.40308577337E+03  0.00000000000E+00 0. -1.
         -2    1    6    6    0  503 -0.18484701906E+03 -0.10891778654E+02  0.16593494754E+03  0.24863921275E+03  0.00000000000E+00 0.  1.
<mgrwt>
<rscale>  0 0.22552142E+04</rscale>
<asrwt>0</asrwt>
<pdfrwt beam="1">  1        3 0.19189199E+00 0.22552142E+04</pdfrwt>
<pdfrwt beam="2">  1       -3 0.15683104E+00 0.22552142E+04</pdfrwt>
<totfact> 0.11306820E-01</totfact>
</mgrwt>
</event>
<event>
12    3  0.4688899E-008  0.1995923E+04  0.7818608E-02  0.8608529E-01
         -1   -1    0    0    0  501 -0.00000000000E+00  0.00000000000E+00  0.40850965271E+03  0.40850965271E+03  0.00000000000E+00 0.  1.
          1   -1    0    0  501    0  0.00000000000E+00 -0.00000000000E+00 -0.24379522017E+04  0.24379522017E+04  0.00000000000E+00 0. -1.
         23    2    1    2    0    0  0.14250566677E+03  0.66547140180E+03 -0.23929087748E+03  0.72728979265E+03  0.92359443334E+02 0.  0.
        254    2    1    2    0    0 -0.14250566677E+03 -0.66547140180E+03 -0.17901516715E+04  0.21191720617E+04  0.90724151614E+03 0.  0.
         23    2    4    4    0    0  0.27729029618E+03 -0.42389995207E+02 -0.91949119388E+03  0.96557257494E+03  0.90440708830E+02 0.  0.
         23    2    4    4    0    0 -0.41979596295E+03 -0.62308140660E+03 -0.87066047759E+03  0.11535994868E+04  0.91011092069E+02 0.  0.
          4    1    3    3  502    0  0.72873809174E+02  0.38347418223E+03 -0.18431765327E+03  0.43166658176E+03  0.00000000000E+00 0. -1.
         -4    1    3    3    0  502  0.69631857595E+02  0.28199721957E+03 -0.54973224209E+02  0.29562321089E+03  0.00000000000E+00 0.  1.
         13    1    5    5    0    0  0.26044835350E+03 -0.46572383352E+02 -0.75203333730E+03  0.79721795774E+03  0.00000000000E+00 0.  1.
        -13    1    5    5    0    0  0.16841942678E+02  0.41823881445E+01 -0.16745785658E+03  0.16835461720E+03  0.00000000000E+00 0. -1.
          1    1    6    6  503    0 -0.51030578599E+02 -0.63831608413E+02 -0.14174896313E+03  0.16361956708E+03  0.00000000000E+00 0. -1.
         -1    1    6    6    0  503 -0.36876538435E+03 -0.55924979818E+03 -0.72891151446E+03  0.98997991968E+03  0.00000000000E+00 0.  1.
<mgrwt>
<rscale>  0 0.19959229E+04</rscale>
<asrwt>0</asrwt>
<pdfrwt beam="1">  1        1 0.37506957E+00 0.19959229E+04</pdfrwt>
<pdfrwt beam="2">  1       -1 0.62847639E-01 0.19959229E+04</pdfrwt>
<totfact> 0.35654875E+00</totfact>
</mgrwt>
</event>
<event>
12    3  0.4688899E-008  0.2259326E+04  0.7818608E-02  0.8494133E-01
          1   -1    0    0  501    0  0.00000000000E+00  0.00000000000E+00  0.12817047073E+04  0.12817047073E+04  0.00000000000E+00 0. -1.
         -1   -1    0    0    0  501 -0.00000000000E+00 -0.00000000000E+00 -0.99565699551E+03  0.99565699551E+03  0.00000000000E+00 0.  1.
         23    2    1    2    0    0 -0.71382421006E+03 -0.59610152887E+03  0.32717825959E+03  0.98991366185E+03  0.89450594104E+02 0.  0.
        254    2    1    2    0    0  0.71382421006E+03  0.59610152887E+03 -0.41130547804E+02  0.12874480409E+04  0.88935296738E+03 0.  0.
         23    2    4    4    0    0  0.85525106734E+02  0.37155880036E+03  0.33523265942E+03  0.51603716680E+03  0.92428002090E+02 0.  0.
         23    2    4    4    0    0  0.62829910333E+03  0.22454272851E+03 -0.37636320722E+03  0.77141087415E+03  0.90808990949E+02 0.  0.
          4    1    3    3  502    0 -0.54926658541E+03 -0.42483435811E+03  0.27418351496E+03  0.74656186184E+03  0.00000000000E+00 0. -1.
         -4    1    3    3    0  502 -0.16455762465E+03 -0.17126717076E+03  0.52994744621E+02  0.24335180001E+03  0.00000000000E+00 0.  1.
         13    1    5    5    0    0 -0.38346212740E+01  0.15610523431E+03  0.16570969873E+03  0.22769113456E+03  0.00000000000E+00 0. -1.
        -13    1    5    5    0    0  0.89359728008E+02  0.21545356604E+03  0.16952296069E+03  0.28834603224E+03  0.00000000000E+00 0.  1.
          3    1    6    6  503    0  0.62364472480E+03  0.21461122661E+03 -0.37821493607E+03  0.76028761612E+03  0.00000000000E+00 0. -1.
         -3    1    6    6    0  503  0.46543785247E+01  0.99315019054E+01  0.18517288427E+01  0.11123258032E+02  0.00000000000E+00 0.  1.
<mgrwt>
<rscale>  0 0.22593258E+04</rscale>
<asrwt>0</asrwt>
<pdfrwt beam="1">  1        1 0.19718534E+00 0.22593258E+04</pdfrwt>
<pdfrwt beam="2">  1       -1 0.15317800E+00 0.22593258E+04</pdfrwt>
<totfact> 0.27875734E+00</totfact>
</mgrwt>
</event>
<event>
12    3  0.4688899E-008  0.1117899E+04  0.7818608E-02  0.9187919E-01
          1   -1    0    0  501    0  0.00000000000E+00  0.00000000000E+00  0.28338827478E+04  0.28338827478E+04  0.00000000000E+00 0. -1.
         -1   -1    0    0    0  501 -0.00000000000E+00 -0.00000000000E+00 -0.11024618099E+03  0.11024618099E+03  0.00000000000E+00 0.  1.
         23    2    1    2    0    0  0.15862662132E+03 -0.56130692010E+02  0.66813655337E+03  0.69518708060E+03  0.92550329610E+02 0.  0.
        254    2    1    2    0    0 -0.15862662132E+03  0.56130692010E+02  0.20555000134E+04  0.22489418482E+04  0.89685342819E+03 0.  0.
         23    2    4    4    0    0 -0.37050706849E+03  0.26430688487E+03  0.59047099474E+03  0.75129369364E+03  0.93019359782E+02 0.  0.
         23    2    4    4    0    0  0.21188044717E+03 -0.20817619286E+03  0.14650290187E+04  0.14976481545E+04  0.91702333484E+02 0.  0.
          1    1    3    3  502    0  0.78159412716E+02 -0.33935778710E+01  0.16095031663E+03  0.17895646004E+03  0.00000000000E+00 0.  1.
         -1    1    3    3    0  502  0.80467208603E+02 -0.52737114139E+02  0.50718623673E+03  0.51623062055E+03  0.00000000000E+00 0. -1.
         13    1    5    5    0    0 -0.16669199628E+03  0.77059228282E+02  0.28544670401E+03  0.33941739366E+03  0.00000000000E+00 0. -1.
        -13    1    5    5    0    0 -0.20381507221E+03  0.18724765658E+03  0.30502429072E+03  0.41187629998E+03  0.00000000000E+00 0.  1.
          1    1    6    6  503    0  0.57188948190E+02 -0.20342085607E+02  0.18523986681E+03  0.19493123018E+03  0.00000000000E+00 0. -1.
         -1    1    6    6    0  503  0.15469149898E+03 -0.18783410725E+03  0.12797891519E+04  0.13027169243E+04  0.00000000000E+00 0.  1.
<mgrwt>
<rscale>  0 0.11178994E+04</rscale>
<asrwt>0</asrwt>
<pdfrwt beam="1">  1        1 0.43598191E+00 0.11178994E+04</pdfrwt>
<pdfrwt beam="2">  1       -1 0.16960953E-01 0.11178994E+04</pdfrwt>
<totfact> 0.21391282E+01</totfact>
</mgrwt>
</event>
<event>
12    3  0.4688899E-008  0.2095896E+04  0.7818608E-02  0.8563053E-01
          2   -1    0    0  501    0  0.00000000000E+00  0.00000000000E+00  0.56410530150E+03  0.56410530150E+03  0.00000000000E+00 0.  1.
         -2   -1    0    0    0  501 -0.00000000000E+00 -0.00000000000E+00 -0.19467904030E+04  0.19467904030E+04  0.00000000000E+00 0. -1.
         23    2    1    2    0    0  0.21913285351E+03 -0.14246864897E+03  0.40808661086E+03  0.49289990563E+03  0.89995064177E+02 0.  0.
        254    2    1    2    0    0 -0.21913285351E+03  0.14246864897E+03 -0.17907717124E+04  0.20179957989E+04  0.89281979988E+03 0.  0.
         23    2    4    4    0    0 -0.47516733324E+03  0.30677023547E+03 -0.85039859212E+03  0.10253903665E+04  0.91409334146E+02 0.  0.
         23    2    4    4    0    0  0.25603447973E+03 -0.16430158650E+03 -0.94037312027E+03  0.99260543236E+03  0.91734796513E+02 0.  0.
          2    1    3    3  502    0  0.17132317301E+02 -0.47880511111E+02  0.10413273238E+03  0.11588652033E+03  0.00000000000E+00 0. -1.
         -2    1    3    3    0  502  0.20200053621E+03 -0.94588137861E+02  0.30395387848E+03  0.37701338530E+03  0.00000000000E+00 0.  1.
         13    1    5    5    0    0 -0.31726841277E+03  0.15497907000E+03 -0.49814451665E+03  0.61059456053E+03  0.00000000000E+00 0. -1.
        -13    1    5    5    0    0 -0.15789892047E+03  0.15179116547E+03 -0.35225407547E+03  0.41479580601E+03  0.00000000000E+00 0.  1.
          1    1    6    6  503    0  0.19225344381E+03 -0.71459684839E+02 -0.60947078714E+03  0.64305716199E+03  0.00000000000E+00 0. -1.
         -1    1    6    6    0  503  0.63781035921E+02 -0.92841901658E+02 -0.33090233314E+03  0.34954827037E+03  0.00000000000E+00 0.  1.
<mgrwt>
<rscale>  0 0.20958958E+04</rscale>
<asrwt>0</asrwt>
<pdfrwt beam="1">  1        2 0.86785430E-01 0.20958958E+04</pdfrwt>
<pdfrwt beam="2">  1       -2 0.29950622E+00 0.20958958E+04</pdfrwt>
<totfact> 0.15772640E+00</totfact>
</mgrwt>
</event>
<event>
12    3  0.4688899E-008  0.2373569E+04  0.7818608E-02  0.8449466E-01
          2   -1    0    0  501    0  0.00000000000E+00  0.00000000000E+00  0.22871605002E+04  0.22871605002E+04  0.00000000000E+00 0. -1.
         -2   -1    0    0    0  501 -0.00000000000E+00 -0.00000000000E+00 -0.61581045337E+03  0.61581045337E+03  0.00000000000E+00 0.  1.
         23    2    1    2    0    0  0.89702755320E+03 -0.36833164806E+02  0.12773762993E+04  0.15639629190E+04  0.90965315876E+02 0.  0.
        254    2    1    2    0    0 -0.89702755320E+03  0.36833164806E+02  0.39397374746E+03  0.13390080345E+04  0.91198250510E+03 0.  0.
         23    2    4    4    0    0 -0.96516285563E+03  0.20861841616E+03  0.49552778501E+03  0.11085764214E+04  0.91284800730E+02 0.  0.
         23    2    4    4    0    0  0.68135302425E+02 -0.17178525135E+03 -0.10155403755E+03  0.23043161317E+03  0.92913474724E+02 0.  0.
          3    1    3    3  502    0  0.80474393378E+03 -0.53522657926E+01  0.11468903887E+04  0.14010706654E+04  0.00000000000E+00 0. -1.
         -3    1    3    3    0  502  0.92283619426E+02 -0.31480899013E+02  0.13048591062E+03  0.16289225362E+03  0.00000000000E+00 0.  1.
         13    1    5    5    0    0 -0.36461770536E+01  0.88726606402E+01  0.40439376951E+01  0.10410194332E+02  0.00000000000E+00 0.  1.
        -13    1    5    5    0    0 -0.96151667858E+03  0.19974575552E+03  0.49148384732E+03  0.10981662270E+04  0.00000000000E+00 0. -1.
          1    1    6    6  503    0  0.38722692208E+02 -0.63870295126E+02  0.64202397726E+01  0.74967199294E+02  0.00000000000E+00 0. -1.
         -1    1    6    6    0  503  0.29412610216E+02 -0.10791495622E+03 -0.10797427732E+03  0.15546441387E+03  0.00000000000E+00 0.  1.
<mgrwt>
<rscale>  0 0.23735689E+04</rscale>
<asrwt>0</asrwt>
<pdfrwt beam="1">  1        2 0.35187084E+00 0.23735689E+04</pdfrwt>
<pdfrwt beam="2">  1       -2 0.94740071E-01 0.23735689E+04</pdfrwt>
<totfact> 0.38965565E+00</totfact>
</mgrwt>
</event>
<event>
12    3  0.4688899E-008  0.1301090E+04  0.7818608E-02  0.9028701E-01
         -2   -1    0    0    0  501 -0.00000000000E+00  0.00000000000E+00  0.20518979624E+03  0.20518979624E+03  0.00000000000E+00 0.  1.
          2   -1    0    0  501    0  0.00000000000E+00 -0.00000000000E+00 -0.20625231981E+04  0.20625231981E+04  0.00000000000E+00 0. -1.
         23    2    1    2    0    0 -0.14583985311E+03 -0.15612475310E+03 -0.91800172851E+03  0.94682634237E+03  0.90048585629E+02 0.  0.
        254    2    1    2    0    0  0.14583985311E+03  0.15612475310E+03 -0.93933167332E+03  0.13208866519E+04  0.90374407520E+03 0.  0.
         23    2    4    4    0    0  0.45959451314E+03 -0.11212885594E+03 -0.65153359150E+03  0.80993650490E+03  0.87756049789E+02 0.  0.
         23    2    4    4    0    0 -0.31375466003E+03  0.26825360904E+03 -0.28779808182E+03  0.51095014703E+03  0.88545645876E+02 0.  0.
          1    1    3    3  502    0 -0.77116657403E+02 -0.20488114912E+02 -0.31418977115E+03  0.32416346802E+03  0.00000000000E+00 0. -1.
         -1    1    3    3    0  502 -0.68723195707E+02 -0.13563663819E+03 -0.60381195736E+03  0.62266287435E+03  0.00000000000E+00 0.  1.
         13    1    5    5    0    0  0.40053688119E+03 -0.84478086964E+02 -0.60225124549E+03  0.72819839540E+03  0.00000000000E+00 0.  1.
        -13    1    5    5    0    0  0.59057631944E+02 -0.27650768971E+02 -0.49282346007E+02  0.81738109493E+02  0.00000000000E+00 0. -1.
          1    1    6    6  503    0 -0.52826510860E+02  0.10543121202E+02 -0.52480981205E+02  0.75206722057E+02  0.00000000000E+00 0. -1.
         -1    1    6    6    0  503 -0.26092814917E+03  0.25771048783E+03 -0.23531710061E+03  0.43574342497E+03  0.00000000000E+00 0.  1.
<mgrwt>
<rscale>  0 0.13010899E+04</rscale>
<asrwt>0</asrwt>
<pdfrwt beam="1">  1        2 0.31731127E+00 0.13010899E+04</pdfrwt>
<pdfrwt beam="2">  1       -2 0.31567661E-01 0.13010899E+04</pdfrwt>
<totfact> 0.56393545E+01</totfact>
</mgrwt>
</event>
<event>
12    3  0.4688899E-008  0.3123990E+04  0.7818608E-02  0.8209185E-01
          1   -1    0    0  501    0  0.00000000000E+00  0.00000000000E+00  0.96310448383E+03  0.96310448383E+03  0.00000000000E+00 0. -1.
         -1   -1    0    0    0  501 -0.00000000000E+00 -0.00000000000E+00 -0.25332962992E+04  0.25332962992E+04  0.00000000000E+00 0.  1.
         23    2    1    2    0    0  0.10348371760E+04  0.65708718642E+03  0.10478762191E+03  0.12332960319E+04  0.85948270633E+02 0.  0.
        254    2    1    2    0    0 -0.10348371760E+04 -0.65708718642E+03 -0.16749794373E+04  0.22631047511E+04  0.90190656275E+03 0.  0.
         23    2    4    4    0    0 -0.51476439839E+03 -0.27808071751E+03 -0.14648595814E+04  0.15800704580E+04  0.92183445751E+02 0.  0.
         23    2    4    4    0    0 -0.52007277759E+03 -0.37900646891E+03 -0.21011985586E+03  0.68303429313E+03  0.90905964083E+02 0.  0.
          3    1    3    3  502    0  0.97609108880E+03  0.60010214653E+03  0.84171483129E+02  0.11488956604E+04  0.00000000000E+00 0. -1.
         -3    1    3    3    0  502  0.58746087180E+02  0.56985039891E+02  0.20616138781E+02  0.84400371495E+02  0.00000000000E+00 0.  1.
         13    1    5    5    0    0 -0.36926354059E+03 -0.22419495447E+03 -0.97999400430E+03  0.10709842149E+04  0.00000000000E+00 0. -1.
        -13    1    5    5    0    0 -0.14550085780E+03 -0.53885763044E+02 -0.48486557711E+03  0.50908624313E+03  0.00000000000E+00 0.  1.
          2    1    6    6  503    0 -0.26352474105E+02 -0.49917600349E+02 -0.14594196492E+02  0.58302746824E+02  0.00000000000E+00 0. -1.
         -2    1    6    6    0  503 -0.49372030348E+03 -0.32908886856E+03 -0.19552565937E+03  0.62473154631E+03  0.00000000000E+00 0.  1.
<mgrwt>
<rscale>  0 0.31239904E+04</rscale>
<asrwt>0</asrwt>
<pdfrwt beam="1">  1        1 0.14816992E+00 0.31239904E+04</pdfrwt>
<pdfrwt beam="2">  1       -1 0.38973788E+00 0.31239904E+04</pdfrwt>
<totfact> 0.11443368E-01</totfact>
</mgrwt>
</event>
<event>
12    3  0.4688899E-008  0.1623142E+04  0.7818608E-02  0.8806456E-01
          2   -1    0    0  501    0  0.00000000000E+00  0.00000000000E+00  0.11389961915E+04  0.11389961915E+04  0.00000000000E+00 0. -1.
         -2   -1    0    0    0  501 -0.00000000000E+00 -0.00000000000E+00 -0.57827003624E+03  0.57827003624E+03  0.00000000000E+00 0.  1.
         23    2    1    2    0    0  0.17140655199E+03 -0.20032863266E+03 -0.32548491494E+03  0.42888079827E+03  0.92122430191E+02 0.  0.
        254    2    1    2    0    0 -0.17140655199E+03  0.20032863266E+03  0.88621107023E+03  0.12883854295E+04  0.89724867613E+03 0.  0.
         23    2    4    4    0    0 -0.14767451529E+03  0.10660483404E+02  0.10217686848E+04  0.10365763937E+04  0.92509276889E+02 0.  0.
         23    2    4    4    0    0 -0.23732036699E+02  0.18966814926E+03 -0.13555761455E+03  0.25180903585E+03  0.92166736209E+02 0.  0.
          1    1    3    3  502    0  0.17739803279E+01 -0.56289610520E+02 -0.75566798959E+02  0.94244407598E+02  0.00000000000E+00 0. -1.
         -1    1    3    3    0  502  0.16963257166E+03 -0.14403902214E+03 -0.24991811598E+03  0.33463639067E+03  0.00000000000E+00 0.  1.
         13    1    5    5    0    0 -0.15525042960E+03  0.18397339777E+02  0.10011912362E+04  0.10133237634E+04  0.00000000000E+00 0.  1.
        -13    1    5    5    0    0  0.75759143143E+01 -0.77368563724E+01  0.20577448583E+02  0.23252630268E+02  0.00000000000E+00 0. -1.
          4    1    6    6  503    0 -0.15436445174E+02 -0.45956505335E+01 -0.27447153281E+01  0.16338216111E+02  0.00000000000E+00 0. -1.
         -4    1    6    6    0  503 -0.82955915250E+01  0.19426379979E+03 -0.13281289922E+03  0.23547081974E+03  0.00000000000E+00 0.  1.
<mgrwt>
<rscale>  0 0.16231419E+04</rscale>
<asrwt>0</asrwt>
<pdfrwt beam="1">  1        2 0.17523018E+00 0.16231419E+04</pdfrwt>
<pdfrwt beam="2">  1       -2 0.88964622E-01 0.16231419E+04</pdfrwt>
<totfact> 0.21425407E+01</totfact>
</mgrwt>
</event>
<event>
12    3  0.4688899E-008  0.1159819E+04  0.7818608E-02  0.9148773E-01
         -1   -1    0    0    0  501 -0.00000000000E+00  0.00000000000E+00  0.40472349261E+03  0.40472349261E+03  0.00000000000E+00 0.  1.
          1   -1    0    0  501    0  0.00000000000E+00 -0.00000000000E+00 -0.83092543333E+03  0.83092543333E+03  0.00000000000E+00 0. -1.
         23    2    1    2    0    0  0.13935796187E+02  0.56368755277E+02  0.12896554490E+03  0.16812516437E+03  0.90897283443E+02 0.  0.
        254    2    1    2    0    0 -0.13935796187E+02 -0.56368755277E+02 -0.55516748562E+03  0.10675237616E+04  0.90995846138E+03 0.  0.
         23    2    4    4    0    0  0.24087285904E+03 -0.12945385829E+02  0.15763686557E+03  0.30376079574E+03  0.96093300525E+02 0.  0.
         23    2    4    4    0    0 -0.25480865523E+03 -0.43423369448E+02 -0.71280435119E+03  0.76376296582E+03  0.91819306733E+02 0.  0.
          2    1    3    3  502    0 -0.38089688991E+02  0.24126614162E+02  0.69101892176E+02  0.82510541270E+02  0.00000000000E+00 0. -1.
         -2    1    3    3    0  502  0.52025485178E+02  0.32242141115E+02  0.59863652724E+02  0.85614623103E+02  0.00000000000E+00 0.  1.
         13    1    5    5    0    0  0.35288500200E+02  0.14429702058E+01 -0.11511439314E+02  0.37146650515E+02  0.00000000000E+00 0.  1.
        -13    1    5    5    0    0  0.20558435884E+03 -0.14388356035E+02  0.16914830489E+03  0.26661414523E+03  0.00000000000E+00 0. -1.
          2    1    6    6  503    0 -0.25641108648E+03 -0.31310123012E+02 -0.69963158417E+03  0.74579576470E+03  0.00000000000E+00 0. -1.
         -2    1    6    6    0  503  0.16024312564E+01 -0.12113246436E+02 -0.13172767020E+02  0.17967201121E+02  0.00000000000E+00 0.  1.
<mgrwt>
<rscale>  0 0.11598190E+04</rscale>
<asrwt>0</asrwt>
<pdfrwt beam="1">  1        1 0.12783468E+00 0.11598190E+04</pdfrwt>
<pdfrwt beam="2">  1       -1 0.62265153E-01 0.11598190E+04</pdfrwt>
<totfact> 0.53989468E+01</totfact>
</mgrwt>
</event>
<event>
12    3  0.4688899E-008  0.1520568E+04  0.7818608E-02  0.8870890E-01
         -1   -1    0    0    0  501 -0.00000000000E+00  0.00000000000E+00  0.91440194245E+03  0.91440194245E+03  0.00000000000E+00 0.  1.
          1   -1    0    0  501    0  0.00000000000E+00 -0.00000000000E+00 -0.63214147557E+03  0.63214147557E+03  0.00000000000E+00 0. -1.
         23    2    1    2    0    0 -0.10514969855E+03  0.35628521198E+03  0.40749121529E+03  0.55897983065E+03  0.91726491030E+02 0.  0.
        254    2    1    2    0    0  0.10514969855E+03 -0.35628521198E+03 -0.12523074842E+03  0.98756358737E+03  0.90642345919E+03 0.  0.
         23    2    4    4    0    0  0.35487017700E+03 -0.53460300055E+03 -0.15379498210E+03  0.66631166445E+03  0.92655960130E+02 0.  0.
         23    2    4    4    0    0 -0.24972047845E+03  0.17831778857E+03  0.28564233684E+02  0.32125192292E+03  0.90715662657E+02 0.  0.
          4    1    3    3  502    0 -0.82424389216E+02  0.33556752853E+03  0.39739367253E+03  0.52661283417E+03  0.00000000000E+00 0.  1.
         -4    1    3    3    0  502 -0.22725309331E+02  0.20717683447E+02  0.10097542761E+02  0.32366996484E+02  0.00000000000E+00 0. -1.
         13    1    5    5    0    0  0.17211389806E+03 -0.20040404621E+03 -0.30368737558E+02  0.26590832229E+03  0.00000000000E+00 0.  1.
        -13    1    5    5    0    0  0.18275627894E+03 -0.33419895433E+03 -0.12342624454E+03  0.40040334216E+03  0.00000000000E+00 0. -1.
          2    1    6    6  503    0 -0.18096889487E+03  0.16986200770E+03  0.38854832981E+02  0.25122209421E+03  0.00000000000E+00 0. -1.
         -2    1    6    6    0  503 -0.68751583582E+02  0.84557808686E+01 -0.10290599296E+02  0.70029828709E+02  0.00000000000E+00 0.  1.
<mgrwt>
<rscale>  0 0.15205675E+04</rscale>
<asrwt>0</asrwt>
<pdfrwt beam="1">  1        1 0.97252535E-01 0.15205675E+04</pdfrwt>
<pdfrwt beam="2">  1       -1 0.14067722E+00 0.15205675E+04</pdfrwt>
<totfact> 0.12687421E+01</totfact>
</mgrwt>
</event>
<event>
12    3  0.4688899E-008  0.1877321E+04  0.7818608E-02  0.8666228E-01
         -1   -1    0    0    0  501 -0.00000000000E+00  0.00000000000E+00  0.40057087033E+03  0.40057087033E+03  0.00000000000E+00 0.  1.
          1   -1    0    0  501    0  0.00000000000E+00 -0.00000000000E+00 -0.21995701224E+04  0.21995701224E+04  0.00000000000E+00 0. -1.
         23    2    1    2    0    0 -0.48980146462E+03  0.43898619497E+03 -0.33275384436E+03  0.74295140026E+03  0.92937118997E+02 0.  0.
        254    2    1    2    0    0  0.48980146462E+03 -0.43898619497E+03 -0.14662454077E+04  0.18571895925E+04  0.93094749187E+03 0.  0.
         23    2    4    4    0    0  0.60009226565E+03 -0.29932630151E+03 -0.42992280502E+03  0.80173175377E+03  0.90737118418E+02 0.  0.
         23    2    4    4    0    0 -0.11029080103E+03 -0.13965989345E+03 -0.10363226027E+04  0.10554578387E+04  0.91420816983E+02 0.  0.
          2    1    3    3  502    0 -0.83647564660E+02  0.57078496906E+02 -0.18395610950E+02  0.10292360460E+03  0.00000000000E+00 0. -1.
         -2    1    3    3    0  502 -0.40615389996E+03  0.38190769806E+03 -0.31435823341E+03  0.64002779565E+03  0.00000000000E+00 0.  1.
         13    1    5    5    0    0  0.16751675285E+03 -0.60729429865E+02 -0.74427156422E+02  0.19310444777E+03  0.00000000000E+00 0. -1.
        -13    1    5    5    0    0  0.43257551281E+03 -0.23859687165E+03 -0.35549564860E+03  0.60862730600E+03  0.00000000000E+00 0.  1.
          3    1    6    6  503    0 -0.50127358548E+02 -0.11670776509E+03 -0.52750172543E+03  0.54257858863E+03  0.00000000000E+00 0. -1.
         -3    1    6    6    0  503 -0.60163442483E+02 -0.22952128358E+02 -0.50882087727E+03  0.51287925007E+03  0.00000000000E+00 0.  1.
<mgrwt>
<rscale>  0 0.18773212E+04</rscale>
<asrwt>0</asrwt>
<pdfrwt beam="1">  1        1 0.33839540E+00 0.18773212E+04</pdfrwt>
<pdfrwt beam="2">  1       -1 0.61626289E-01 0.18773212E+04</pdfrwt>
<totfact> 0.54590190E+00</totfact>
</mgrwt>
</event>
<event>
12    3  0.4688899E-008  0.2517508E+04  0.7818608E-02  0.8396775E-01
          2   -1    0    0  501    0  0.00000000000E+00  0.00000000000E+00  0.15341862864E+04  0.15341862864E+04  0.00000000000E+00 0. -1.
         -2   -1    0    0    0  501 -0.00000000000E+00 -0.00000000000E+00 -0.10327700306E+04  0.10327700306E+04  0.00000000000E+00 0.  1.
         23    2    1    2    0    0 -0.97745553711E+03  0.50567936990E+03  0.23652836356E+03  0.11291705225E+04  0.89159687573E+02 0.  0.
        254    2    1    2    0    0  0.97745553711E+03 -0.50567936990E+03  0.26488789218E+03  0.14377857945E+04  0.88652774542E+03 0.  0.
         23    2    4    4    0    0  0.10906405067E+04 -0.44777438435E+03  0.38107236682E+03  0.12425107834E+04  0.92834712323E+02 0.  0.
         23    2    4    4    0    0 -0.11318496963E+03 -0.57904985545E+02 -0.11618447464E+03  0.19527501118E+03  0.92030827129E+02 0.  0.
          4    1    3    3  502    0 -0.48174823576E+03  0.28640048755E+03  0.15085950701E+03  0.58040088972E+03  0.00000000000E+00 0. -1.
         -4    1    3    3    0  502 -0.49570730135E+03  0.21927888234E+03  0.85668856553E+02  0.54876963276E+03  0.00000000000E+00 0.  1.
         13    1    5    5    0    0  0.94966730759E+03 -0.35798127337E+03  0.31335190255E+03  0.10621713619E+04  0.00000000000E+00 0. -1.
        -13    1    5    5    0    0  0.14097319914E+03 -0.89793110981E+02  0.67720464264E+02  0.18033942147E+03  0.00000000000E+00 0.  1.
          4    1    6    6  503    0 -0.11998122455E+03 -0.72241705513E+02 -0.11059439023E+03  0.17845301177E+03  0.00000000000E+00 0. -1.
         -4    1    6    6    0  503  0.67962549181E+01  0.14336719969E+02 -0.55900844102E+01  0.16821999408E+02  0.00000000000E+00 0.  1.
<mgrwt>
<rscale>  0 0.25175080E+04</rscale>
<asrwt>0</asrwt>
<pdfrwt beam="1">  1        2 0.23602866E+00 0.25175080E+04</pdfrwt>
<pdfrwt beam="2">  1       -2 0.15888770E+00 0.25175080E+04</pdfrwt>
<totfact> 0.27766330E+00</totfact>
</mgrwt>
</event>
<event>
12    3  0.4688899E-008  0.1857012E+04  0.7818608E-02  0.8676555E-01
         -2   -1    0    0    0  501 -0.00000000000E+00  0.00000000000E+00  0.12694630479E+04  0.12694630479E+04  0.00000000000E+00 0.  1.
          2   -1    0    0  501    0  0.00000000000E+00 -0.00000000000E+00 -0.67912431059E+03  0.67912431059E+03  0.00000000000E+00 0. -1.
         23    2    1    2    0    0  0.58828437922E+03  0.13699981877E+03  0.59205164800E+03  0.85063688361E+03  0.90611768979E+02 0.  0.
        254    2    1    2    0    0 -0.58828437922E+03 -0.13699981877E+03 -0.17129107052E+01  0.10979504749E+04  0.91686686602E+03 0.  0.
         23    2    4    4    0    0 -0.74642886535E+03 -0.33284271195E+03  0.49701775466E+02  0.82371635332E+03  0.89989123347E+02 0.  0.
         23    2    4    4    0    0  0.15814448612E+03  0.19584289318E+03 -0.51414686171E+02  0.27423412154E+03  0.95899771437E+02 0.  0.
          4    1    3    3  502    0  0.68235596567E+01 -0.44925701347E+01  0.24688095418E+02  0.26004734342E+02  0.00000000000E+00 0. -1.
         -4    1    3    3    0  502  0.58146081957E+03  0.14149238890E+03  0.56736355258E+03  0.82463214927E+03  0.00000000000E+00 0.  1.
         13    1    5    5    0    0 -0.63867361248E+03 -0.26513956146E+03  0.69184404925E+02  0.69497442558E+03  0.00000000000E+00 0. -1.
        -13    1    5    5    0    0 -0.10775525287E+03 -0.67703150492E+02 -0.19482629459E+02  0.12874192774E+03  0.00000000000E+00 0.  1.
          1    1    6    6  503    0  0.15552189361E+03  0.16596392775E+03 -0.16263360878E+02  0.22802539686E+03  0.00000000000E+00 0. -1.
         -1    1    6    6    0  503  0.26225925140E+01  0.29878965436E+02 -0.35151325292E+02  0.46208724683E+02  0.00000000000E+00 0.  1.
<mgrwt>
<rscale>  0 0.18570118E+04</rscale>
<asrwt>0</asrwt>
<pdfrwt beam="1">  1        2 0.10448066E+00 0.18570118E+04</pdfrwt>
<pdfrwt beam="2">  1       -2 0.19530201E+00 0.18570118E+04</pdfrwt>
<totfact> 0.57108772E+00</totfact>
</mgrwt>
</event>
<event>
12    3  0.4688899E-008  0.1121832E+04  0.7818608E-02  0.9184170E-01
          2   -1    0    0  501    0  0.00000000000E+00  0.00000000000E+00  0.84732549497E+03  0.84732549497E+03  0.00000000000E+00 0. -1.
         -2   -1    0    0    0  501 -0.00000000000E+00 -0.00000000000E+00 -0.37131765304E+03  0.37131765304E+03  0.00000000000E+00 0.  1.
         23    2    1    2    0    0 -0.16733008515E+03 -0.10269545490E+03  0.18091838848E+03  0.28203222283E+03  0.90912032052E+02 0.  0.
        254    2    1    2    0    0  0.16733008515E+03  0.10269545490E+03  0.29508945345E+03  0.93661092518E+03  0.86695820302E+03 0.  0.
         23    2    4    4    0    0  0.41660742471E+03  0.15950930253E+03  0.43587787934E+03  0.63004865461E+03  0.89257030853E+02 0.  0.
         23    2    4    4    0    0 -0.24927733956E+03 -0.56813847636E+02 -0.14078842589E+03  0.30656227057E+03  0.93765876365E+02 0.  0.
          1    1    3    3  502    0 -0.12208510557E+03 -0.67472359924E+02  0.17586939629E+03  0.22447123849E+03  0.00000000000E+00 0. -1.
         -1    1    3    3    0  502 -0.45244979575E+02 -0.35223094971E+02  0.50489921872E+01  0.57560984340E+02  0.00000000000E+00 0.  1.
         13    1    5    5    0    0  0.20174705072E+03  0.40418147698E+02  0.15996722177E+03  0.26062427204E+03  0.00000000000E+00 0. -1.
        -13    1    5    5    0    0  0.21486037399E+03  0.11909115483E+03  0.27591065758E+03  0.36942438256E+03  0.00000000000E+00 0.  1.
          2    1    6    6  503    0 -0.16978618636E+03  0.75825673268E+01 -0.91095950308E+02  0.19282976059E+03  0.00000000000E+00 0. -1.
         -2    1    6    6    0  503 -0.79491153202E+02 -0.64396414963E+02 -0.49692475585E+02  0.11373250998E+03  0.00000000000E+00 0.  1.
<mgrwt>
<rscale>  0 0.11218323E+04</rscale>
<asrwt>0</asrwt>
<pdfrwt beam="1">  1        2 0.13035777E+00 0.11218323E+04</pdfrwt>
<pdfrwt beam="2">  1       -2 0.57125793E-01 0.11218323E+04</pdfrwt>
<totfact> 0.90798903E+01</totfact>
</mgrwt>
</event>
<event>
12    3  0.4688899E-008  0.1962956E+04  0.7818608E-02  0.8624138E-01
         -2   -1    0    0    0  501 -0.00000000000E+00  0.00000000000E+00  0.58935981046E+03  0.58935981046E+03  0.00000000000E+00 0.  1.
          2   -1    0    0  501    0  0.00000000000E+00 -0.00000000000E+00 -0.16344845474E+04  0.16344845474E+04  0.00000000000E+00 0. -1.
         23    2    1    2    0    0 -0.53787283720E+03  0.55170700730E+03 -0.48854489073E+03  0.91687621660E+03  0.91093772581E+02 0.  0.
        254    2    1    2    0    0  0.53787283720E+03 -0.55170700730E+03 -0.55657984620E+03  0.13069681413E+04  0.89704893187E+03 0.  0.
         23    2    4    4    0    0  0.10460595483E+03  0.12357735252E+03  0.14594940630E+03  0.23663236656E+03  0.92086263146E+02 0.  0.
         23    2    4    4    0    0  0.43326688237E+03 -0.67528435982E+03 -0.70252925250E+03  0.10703357747E+04  0.91335436746E+02 0.  0.
          4    1    3    3  502    0 -0.48739966738E+03  0.50158721083E+03 -0.47225777732E+03  0.84390495559E+03  0.00000000000E+00 0. -1.
         -4    1    3    3    0  502 -0.50473169822E+02  0.50119796473E+02 -0.16287113412E+02  0.72971261012E+02  0.00000000000E+00 0.  1.
         13    1    5    5    0    0  0.69929394497E+02  0.57454434786E+02  0.13297066673E+03  0.16084878148E+03  0.00000000000E+00 0.  1.
        -13    1    5    5    0    0  0.34676560336E+02  0.66122917737E+02  0.12978739566E+02  0.75783585079E+02  0.00000000000E+00 0. -1.
          3    1    6    6  503    0  0.18210732442E+03 -0.35775752571E+03 -0.32038934075E+03  0.51361742034E+03  0.00000000000E+00 0. -1.
         -3    1    6    6    0  503  0.25115955795E+03 -0.31752683412E+03 -0.38213991175E+03  0.55671835437E+03  0.00000000000E+00 0.  1.
<mgrwt>
<rscale>  0 0.19629564E+04</rscale>
<asrwt>0</asrwt>
<pdfrwt beam="1">  1        2 0.25145916E+00 0.19629564E+04</pdfrwt>
<pdfrwt beam="2">  1       -2 0.90670740E-01 0.19629564E+04</pdfrwt>
<totfact> 0.10326543E+01</totfact>
</mgrwt>
</event>
<event>
12    3  0.4688899E-008  0.2268924E+04  0.7818608E-02  0.8490276E-01
          2   -1    0    0  501    0  0.00000000000E+00  0.00000000000E+00  0.25741098083E+04  0.25741098083E+04  0.00000000000E+00 0. -1.
         -2   -1    0    0    0  501 -0.00000000000E+00 -0.00000000000E+00 -0.49998012695E+03  0.49998012695E+03  0.00000000000E+00 0.  1.
         23    2    1    2    0    0  0.77228878035E+03  0.26787744336E+03  0.15515593647E+04  0.17562852084E+04  0.94936749191E+02 0.  0.
        254    2    1    2    0    0 -0.77228878035E+03 -0.26787744336E+03  0.52257031673E+03  0.13178047269E+04  0.89181908329E+03 0.  0.
         23    2    4    4    0    0 -0.85286161123E+03 -0.92580118493E+01  0.56765862315E+03  0.10287088863E+04  0.92450103600E+02 0.  0.
         23    2    4    4    0    0  0.80572830882E+02 -0.25861943151E+03 -0.45088306425E+02  0.28909584055E+03  0.90373990821E+02 0.  0.
          2    1    3    3  502    0  0.53073577689E+03  0.22756116356E+03  0.10593456422E+04  0.12065147068E+04  0.00000000000E+00 0. -1.
         -2    1    3    3    0  502  0.24155300346E+03  0.40316279794E+02  0.49221372244E+03  0.54977050162E+03  0.00000000000E+00 0.  1.
         13    1    5    5    0    0 -0.23333214744E+02 -0.15128459459E+02  0.12198064108E+02  0.30366131856E+02  0.00000000000E+00 0. -1.
        -13    1    5    5    0    0 -0.82952839648E+03  0.58704476102E+01  0.55546055905E+03  0.99834275446E+03  0.00000000000E+00 0.  1.
          1    1    6    6  503    0 -0.12722540875E+02 -0.98257701283E+02 -0.44894745331E+01  0.99179606216E+02  0.00000000000E+00 0. -1.
         -1    1    6    6    0  503  0.93295371758E+02 -0.16036173023E+03 -0.40598831892E+02  0.18991623433E+03  0.00000000000E+00 0.  1.
<mgrwt>
<rscale>  0 0.22689238E+04</rscale>
<asrwt>0</asrwt>
<pdfrwt beam="1">  1        2 0.39601689E+00 0.22689238E+04</pdfrwt>
<pdfrwt beam="2">  1       -2 0.76920021E-01 0.22689238E+04</pdfrwt>
<totfact> 0.43241668E+00</totfact>
</mgrwt>
</event>
<event>
12    3  0.4688899E-008  0.1199443E+04  0.7818608E-02  0.9113344E-01
          2   -1    0    0  501    0  0.00000000000E+00  0.00000000000E+00  0.24264955924E+04  0.24264955924E+04  0.00000000000E+00 0. -1.
         -2   -1    0    0    0  501 -0.00000000000E+00 -0.00000000000E+00 -0.14822451492E+03  0.14822451492E+03  0.00000000000E+00 0.  1.
         23    2    1    2    0    0  0.12464971370E+03 -0.12751424204E+03  0.83377615512E+03  0.85772593476E+03  0.93347036646E+02 0.  0.
        254    2    1    2    0    0 -0.12464971370E+03  0.12751424204E+03  0.14444949223E+04  0.17169941725E+04  0.91088197637E+03 0.  0.
         23    2    4    4    0    0 -0.46362295141E+03 -0.54511481287E+02  0.48591782497E+03  0.68003956350E+03  0.91760190926E+02 0.  0.
         23    2    4    4    0    0  0.33897323771E+03  0.18202572333E+03  0.95857709734E+03  0.10369546090E+04  0.91479996724E+02 0.  0.
          4    1    3    3  502    0  0.10534898546E+03 -0.13048924214E+03  0.80888854381E+03  0.82609111323E+03  0.00000000000E+00 0.  1.
         -4    1    3    3    0  502  0.19300728233E+02  0.29750000989E+01  0.24887611312E+02  0.31634821522E+02  0.00000000000E+00 0. -1.
         13    1    5    5    0    0 -0.34071204900E+03 -0.69505077614E+01  0.38420415470E+03  0.51356191679E+03  0.00000000000E+00 0. -1.
        -13    1    5    5    0    0 -0.12291090241E+03 -0.47560973525E+02  0.10171367027E+03  0.16647764671E+03  0.00000000000E+00 0.  1.
          4    1    6    6  503    0  0.10747319990E+03  0.29574921748E+02  0.19484240908E+03  0.22447433944E+03  0.00000000000E+00 0. -1.
         -4    1    6    6    0  503  0.23150003781E+03  0.15245080158E+03  0.76373468827E+03  0.81248026959E+03  0.00000000000E+00 0.  1.
<mgrwt>
<rscale>  0 0.11994434E+04</rscale>
<asrwt>0</asrwt>
<pdfrwt beam="1">  1        2 0.37330699E+00 0.11994434E+04</pdfrwt>
<pdfrwt beam="2">  1       -2 0.22803773E-01 0.11994434E+04</pdfrwt>
<totfact> 0.64495858E+01</totfact>
</mgrwt>
</event>
<event>
12    3  0.4688899E-008  0.2989009E+04  0.7818608E-02  0.8246876E-01
          2   -1    0    0  501    0  0.00000000000E+00  0.00000000000E+00  0.17494517229E+04  0.17494517229E+04  0.00000000000E+00 0. -1.
         -2   -1    0    0    0  501 -0.00000000000E+00 -0.00000000000E+00 -0.12767108031E+04  0.12767108031E+04  0.00000000000E+00 0.  1.
         23    2    1    2    0    0  0.12651607942E+04 -0.24028957604E+03 -0.21746113952E+03  0.13090415269E+04  0.89047496033E+02 0.  0.
        254    2    1    2    0    0 -0.12651607942E+04  0.24028957604E+03  0.69020205931E+03  0.17171209990E+04  0.90208354774E+03 0.  0.
         23    2    4    4    0    0  0.76379556797E+02  0.82390298386E+02 -0.73243854281E+02  0.16299588449E+03  0.92633677487E+02 0.  0.
         23    2    4    4    0    0 -0.13415403510E+04  0.15789927766E+03  0.76344591360E+03  0.15541251145E+04  0.88275214281E+02 0.  0.
          4    1    3    3  502    0  0.12436443999E+04 -0.22924003660E+03 -0.22329911887E+03  0.12841592130E+04  0.00000000000E+00 0. -1.
         -4    1    3    3    0  502  0.21516394249E+02 -0.11049539447E+02  0.58379793531E+01  0.24882313928E+02  0.00000000000E+00 0.  1.
         13    1    5    5    0    0 -0.80576379831E+01  0.53356959623E+02 -0.42061689893E+02  0.68418392460E+02  0.00000000000E+00 0. -1.
        -13    1    5    5    0    0  0.84437194780E+02  0.29033338763E+02 -0.31182164388E+02  0.94577492026E+02  0.00000000000E+00 0.  1.
          1    1    6    6  503    0 -0.62354796558E+03  0.82756397649E+02  0.30616685121E+03  0.69957045929E+03  0.00000000000E+00 0. -1.
         -1    1    6    6    0  503 -0.71799238539E+03  0.75142880008E+02  0.45727906238E+03  0.85455465524E+03  0.00000000000E+00 0.  1.
<mgrwt>
<rscale>  0 0.29890091E+04</rscale>
<asrwt>0</asrwt>
<pdfrwt beam="1">  1        2 0.26914642E+00 0.29890091E+04</pdfrwt>
<pdfrwt beam="2">  1       -2 0.19641705E+00 0.29890091E+04</pdfrwt>
<totfact> 0.11077741E+00</totfact>
</mgrwt>
</event>
<event>
12    3  0.4688899E-008  0.1980111E+04  0.7818608E-02  0.8615976E-01
         -1   -1    0    0    0  501 -0.00000000000E+00  0.00000000000E+00  0.76710452533E+03  0.76710452533E+03  0.00000000000E+00 0.  1.
          1   -1    0    0  501    0  0.00000000000E+00 -0.00000000000E+00 -0.12778050977E+04  0.12778050977E+04  0.00000000000E+00 0. -1.
         23    2    1    2    0    0  0.23525494159E+03 -0.74175087940E+02  0.53101773834E+03  0.59278577686E+03  0.92565153310E+02 0.  0.
        254    2    1    2    0    0 -0.23525494159E+03  0.74175087940E+02 -0.10417183107E+04  0.14521238462E+04  0.98114208684E+03 0.  0.
         23    2    4    4    0    0 -0.38897141555E+03 -0.22549984171E+03 -0.10010734962E+04  0.11008185785E+04  0.86628270903E+02 0.  0.
         23    2    4    4    0    0  0.15371647397E+03  0.29967492965E+03 -0.40644814520E+02  0.35130526765E+03  0.91266490591E+02 0.  0.
          3    1    3    3  502    0  0.94384189355E+01  0.13419420211E+02  0.71314122267E+02  0.73176967863E+02  0.00000000000E+00 0. -1.
         -3    1    3    3    0  502  0.22581652265E+03 -0.87594508150E+02  0.45970361607E+03  0.51960880900E+03  0.00000000000E+00 0.  1.
         13    1    5    5    0    0 -0.30227557641E+03 -0.15876322546E+03 -0.83316322740E+03  0.90040948981E+03  0.00000000000E+00 0.  1.
        -13    1    5    5    0    0 -0.86695839139E+02 -0.66736616249E+02 -0.16791026879E+03  0.20040908871E+03  0.00000000000E+00 0. -1.
          2    1    6    6  503    0  0.22853900611E+02  0.60756718270E+02 -0.44787243242E+02  0.78864293222E+02  0.00000000000E+00 0. -1.
         -2    1    6    6    0  503  0.13086257335E+03  0.23891821138E+03  0.41424287226E+01  0.27244097443E+03  0.00000000000E+00 0.  1.
<mgrwt>
<rscale>  0 0.19801112E+04</rscale>
<asrwt>0</asrwt>
<pdfrwt beam="1">  1        1 0.19658540E+00 0.19801112E+04</pdfrwt>
<pdfrwt beam="2">  1       -1 0.11801608E+00 0.19801112E+04</pdfrwt>
<totfact> 0.56228763E+00</totfact>
</mgrwt>
</event>
<event>
12    3  0.4688899E-008  0.2374374E+04  0.7818608E-02  0.8449160E-01
         -2   -1    0    0    0  501 -0.00000000000E+00  0.00000000000E+00  0.66570098691E+03  0.66570098691E+03  0.00000000000E+00 0.  1.
          2   -1    0    0  501    0  0.00000000000E+00 -0.00000000000E+00 -0.21171864621E+04  0.21171864621E+04  0.00000000000E+00 0. -1.
         23    2    1    2    0    0 -0.81627030464E+02 -0.50728487007E+03  0.41202599000E+03  0.66476791766E+03  0.90277662843E+02 0.  0.
        254    2    1    2    0    0  0.81627030464E+02  0.50728487007E+03 -0.18635114651E+04  0.21181195313E+04  0.86588362766E+03 0.  0.
         23    2    4    4    0    0 -0.14083036545E+03  0.64102219249E+03 -0.90724627860E+03  0.11231221728E+04  0.86976789209E+02 0.  0.
         23    2    4    4    0    0  0.22245739591E+03 -0.13373732242E+03 -0.95626518655E+03  0.99499735852E+03  0.90574124678E+02 0.  0.
          1    1    3    3  502    0 -0.14016973908E+02 -0.11981402167E+02  0.31572273920E+02  0.36562795789E+02  0.00000000000E+00 0. -1.
         -1    1    3    3    0  502 -0.67610056556E+02 -0.49530346790E+03  0.38045371608E+03  0.62820512187E+03  0.00000000000E+00 0.  1.
         13    1    5    5    0    0  0.66108457379E+01  0.74595606869E+02 -0.78099701394E+02  0.10820245470E+03  0.00000000000E+00 0.  1.
        -13    1    5    5    0    0 -0.14744121119E+03  0.56642658562E+03 -0.82914657720E+03  0.10149197181E+04  0.00000000000E+00 0. -1.
          2    1    6    6  503    0  0.22862928722E+03 -0.13393643743E+03 -0.94975327052E+03  0.98602312098E+03  0.00000000000E+00 0. -1.
         -2    1    6    6    0  503 -0.61718913073E+01  0.19911500982E+00 -0.65119160237E+01  0.89742375384E+01  0.00000000000E+00 0.  1.
<mgrwt>
<rscale>  0 0.23743741E+04</rscale>
<asrwt>0</asrwt>
<pdfrwt beam="1">  1        2 0.32572100E+00 0.23743741E+04</pdfrwt>
<pdfrwt beam="2">  1       -2 0.10241554E+00 0.23743741E+04</pdfrwt>
<totfact> 0.40408428E+00</totfact>
</mgrwt>
</event>
<event>
12    3  0.4688899E-008  0.1143390E+04  0.7818608E-02  0.9163904E-01
          3   -1    0    0  501    0  0.00000000000E+00  0.00000000000E+00  0.26410302197E+03  0.26410302197E+03  0.00000000000E+00 0. -1.
         -3   -1    0    0    0  501 -0.00000000000E+00 -0.00000000000E+00 -0.12375285419E+04  0.12375285419E+04  0.00000000000E+00 0.  1.
         23    2    1    2    0    0 -0.37674170819E+02 -0.19049049285E+03 -0.13718676945E+03  0.25609098160E+03  0.95165172889E+02 0.  0.
        254    2    1    2    0    0  0.37674170819E+02  0.19049049285E+03 -0.83623875045E+03  0.12455405822E+04  0.90242458037E+03 0.  0.
         23    2    4    4    0    0  0.12353348517E+03 -0.15434333307E+03 -0.85166138935E+03  0.87879640936E+03  0.88733424185E+02 0.  0.
         23    2    4    4    0    0 -0.85859314349E+02  0.34483382591E+03  0.15422638901E+02  0.36674417289E+03  0.89337792681E+02 0.  0.
          2    1    3    3  502    0 -0.39591138596E+00 -0.29463212286E+02 -0.73100539726E+02  0.78815775910E+02  0.00000000000E+00 0. -1.
         -2    1    3    3    0  502 -0.37278259433E+02 -0.16102728056E+03 -0.64086229725E+02  0.17727520569E+03  0.00000000000E+00 0.  1.
         13    1    5    5    0    0  0.10247708566E+03 -0.15415199918E+03 -0.82094550013E+03  0.84155564648E+03  0.00000000000E+00 0. -1.
        -13    1    5    5    0    0  0.21056399513E+02 -0.19133388369E+00 -0.30715889219E+02  0.37240762877E+02  0.00000000000E+00 0.  1.
          2    1    6    6  503    0 -0.94734362317E+02  0.23113587313E+03  0.30721525768E+02  0.25167877025E+03  0.00000000000E+00 0. -1.
         -2    1    6    6    0  503  0.88750479678E+01  0.11369795279E+03 -0.15298886867E+02  0.11506540264E+03  0.00000000000E+00 0.  1.
<mgrwt>
<rscale>  0 0.11433897E+04</rscale>
<asrwt>0</asrwt>
<pdfrwt beam="1">  1        3 0.40631235E-01 0.11433897E+04</pdfrwt>
<pdfrwt beam="2">  1       -3 0.19038900E+00 0.11433897E+04</pdfrwt>
<totfact> 0.26424749E+00</totfact>
</mgrwt>
</event>
<event>
12    3  0.4688899E-008  0.1397586E+04  0.7818608E-02  0.8955568E-01
          2   -1    0    0  501    0  0.00000000000E+00  0.00000000000E+00  0.35316339854E+03  0.35316339854E+03  0.00000000000E+00 0. -1.
         -2   -1    0    0    0  501 -0.00000000000E+00 -0.00000000000E+00 -0.13826782568E+04  0.13826782568E+04  0.00000000000E+00 0.  1.
         23    2    1    2    0    0  0.32119151582E+03 -0.11031808340E+03 -0.56194168966E+03  0.66310558488E+03  0.92717230117E+02 0.  0.
        254    2    1    2    0    0 -0.32119151582E+03  0.11031808340E+03 -0.46757316862E+03  0.10727360705E+04  0.90377206170E+03 0.  0.
         23    2    4    4    0    0  0.24855400803E+03  0.21300003748E+03 -0.32264431173E+03  0.46877312734E+03  0.92199686234E+02 0.  0.
         23    2    4    4    0    0 -0.56974552385E+03 -0.10268195408E+03 -0.14492885688E+03  0.60396294313E+03  0.92807960195E+02 0.  0.
          2    1    3    3  502    0  0.19845805161E+02 -0.36742275063E+02 -0.62183936940E+02  0.74904557757E+02  0.00000000000E+00 0. -1.
         -2    1    3    3    0  502  0.30134571066E+03 -0.73575808341E+02 -0.49975775272E+03  0.58820102712E+03  0.00000000000E+00 0.  1.
         13    1    5    5    0    0  0.13632940494E+03  0.66348780553E+02 -0.11109009226E+03  0.18795977211E+03  0.00000000000E+00 0. -1.
        -13    1    5    5    0    0  0.11222460309E+03  0.14665125693E+03 -0.21155421947E+03  0.28081335523E+03  0.00000000000E+00 0.  1.
          3    1    6    6  503    0 -0.51559947126E+03 -0.66741324720E+02 -0.14183317301E+03  0.53890061064E+03  0.00000000000E+00 0. -1.
         -3    1    6    6    0  503 -0.54146052598E+02 -0.35940629358E+02 -0.30956838788E+01  0.65062332492E+02  0.00000000000E+00 0.  1.
<mgrwt>
<rscale>  0 0.13975856E+04</rscale>
<asrwt>0</asrwt>
<pdfrwt beam="1">  1        2 0.54332830E-01 0.13975856E+04</pdfrwt>
<pdfrwt beam="2">  1       -2 0.21271973E+00 0.13975856E+04</pdfrwt>
<totfact> 0.97888030E+00</totfact>
</mgrwt>
</event>
<event>
12    3  0.4688899E-008  0.1172661E+04  0.7818608E-02  0.9137129E-01
         -2   -1    0    0    0  501 -0.00000000000E+00  0.00000000000E+00  0.10352397630E+03  0.10352397630E+03  0.00000000000E+00 0. -1.
          2   -1    0    0  501    0  0.00000000000E+00 -0.00000000000E+00 -0.33208074838E+04  0.33208074838E+04  0.00000000000E+00 0.  1.
         23    2    1    2    0    0  0.11107488465E+02  0.18716793271E+02 -0.17514694417E+02  0.96920364557E+02  0.92806777204E+02 0.  0.
        254    2    1    2    0    0 -0.11107488465E+02 -0.18716793271E+02 -0.31997688131E+04  0.33274110955E+04  0.91250777906E+03 0.  0.
         23    2    4    4    0    0  0.28969133999E+02 -0.30701758611E+03 -0.41142104355E+03  0.52242216832E+03  0.92512907005E+02 0.  0.
         23    2    4    4    0    0 -0.40076622464E+02  0.28830079284E+03 -0.27883477695E+04  0.28049889272E+04  0.91411788918E+02 0.  0.
          4    1    3    3  502    0 -0.19539719778E+02 -0.19684173815E+01  0.30526445610E+02  0.36297922772E+02  0.00000000000E+00 0. -1.
         -4    1    3    3    0  502  0.30647208243E+02  0.20685210653E+02 -0.48041140028E+02  0.60622441785E+02  0.00000000000E+00 0.  1.
         13    1    5    5    0    0  0.45110723451E+01 -0.66784381798E+02 -0.16188664587E+03  0.17517930682E+03  0.00000000000E+00 0.  1.
        -13    1    5    5    0    0  0.24458061654E+02 -0.24023320431E+03 -0.24953439769E+03  0.34724286150E+03  0.00000000000E+00 0. -1.
          1    1    6    6  503    0 -0.94121711560E+01  0.24297234450E+03 -0.24732530158E+04  0.24851769815E+04  0.00000000000E+00 0. -1.
         -1    1    6    6    0  503 -0.30664451308E+02  0.45328448345E+02 -0.31509475374E+03  0.31981194574E+03  0.00000000000E+00 0.  1.
<mgrwt>
<rscale>  0 0.11726606E+04</rscale>
<asrwt>0</asrwt>
<pdfrwt beam="1">  1        2 0.51089341E+00 0.11726606E+04</pdfrwt>
<pdfrwt beam="2">  1       -2 0.15926767E-01 0.11726606E+04</pdfrwt>
<totfact> 0.34590423E+01</totfact>
</mgrwt>
</event>
<event>
12    3  0.4688899E-008  0.1376916E+04  0.7818608E-02  0.8970700E-01
          2   -1    0    0  501    0  0.00000000000E+00  0.00000000000E+00  0.30942972956E+04  0.30942972956E+04  0.00000000000E+00 0. -1.
         -2   -1    0    0    0  501 -0.00000000000E+00 -0.00000000000E+00 -0.15317664881E+03  0.15317664881E+03  0.00000000000E+00 0.  1.
         23    2    1    2    0    0  0.12396979473E+03 -0.37421042605E+03  0.10045128558E+04  0.10822325195E+04  0.82335871658E+02 0.  0.
        254    2    1    2    0    0 -0.12396979473E+03  0.37421042605E+03  0.19366077910E+04  0.21652414249E+04  0.88454436811E+03 0.  0.
         23    2    4    4    0    0  0.98039465187E+02 -0.25113446072E+03  0.41709615893E+03  0.50477183406E+03  0.90250454681E+02 0.  0.
         23    2    4    4    0    0 -0.22200925991E+03  0.62534488677E+03  0.15195116320E+04  0.16604695909E+04  0.88878137697E+02 0.  0.
          3    1    3    3  502    0  0.11729981900E+03 -0.22968922660E+03  0.65684735556E+03  0.70566623617E+03  0.00000000000E+00 0. -1.
         -3    1    3    3    0  502  0.66699757244E+01 -0.14452119945E+03  0.34766550024E+03  0.37656628331E+03  0.00000000000E+00 0.  1.
         13    1    5    5    0    0  0.94032201450E+02 -0.25795010063E+03  0.39294984006E+03  0.47936404342E+03  0.00000000000E+00 0. -1.
        -13    1    5    5    0    0  0.40072637368E+01  0.68156399088E+01  0.24146318872E+02  0.25407790637E+02  0.00000000000E+00 0.  1.
          1    1    6    6  503    0 -0.20855404518E+03  0.58960396697E+03  0.13673209642E+04  0.15035605231E+04  0.00000000000E+00 0. -1.
         -1    1    6    6    0  503 -0.13455214730E+02  0.35740919801E+02  0.15219066785E+03  0.15690906772E+03  0.00000000000E+00 0.  1.
<mgrwt>
<rscale>  0 0.13769155E+04</rscale>
<asrwt>0</asrwt>
<pdfrwt beam="1">  1        2 0.47604569E+00 0.13769155E+04</pdfrwt>
<pdfrwt beam="2">  1       -2 0.23565641E-01 0.13769155E+04</pdfrwt>
<totfact> 0.23878812E+01</totfact>
</mgrwt>
</event>
<event>
12    3  0.4688899E-008  0.1987808E+04  0.7818608E-02  0.8612342E-01
         -1   -1    0    0    0  501 -0.00000000000E+00  0.00000000000E+00  0.99777838704E+03  0.99777838704E+03  0.00000000000E+00 0.  1.
          1   -1    0    0  501    0  0.00000000000E+00 -0.00000000000E+00 -0.99004447949E+03  0.99004447949E+03  0.00000000000E+00 0. -1.
         23    2    1    2    0    0 -0.74458349046E+02 -0.38375830900E+02  0.78388686405E+03  0.79350332227E+03  0.90289294370E+02 0.  0.
        254    2    1    2    0    0  0.74458349046E+02  0.38375830900E+02 -0.77615295650E+03  0.11943195443E+04  0.90386338114E+03 0.  0.
         23    2    4    4    0    0  0.21844498139E+03  0.42666156041E+02  0.12903894988E+03  0.27320354598E+03  0.91926689167E+02 0.  0.
         23    2    4    4    0    0 -0.14398663234E+03 -0.42903251412E+01 -0.90519190639E+03  0.92111599828E+03  0.91278352968E+02 0.  0.
          1    1    3    3  502    0 -0.59777952960E+02 -0.15594575202E+02  0.20803804496E+03  0.21701710206E+03  0.00000000000E+00 0. -1.
         -1    1    3    3    0  502 -0.14680396087E+02 -0.22781255697E+02  0.57584881909E+03  0.57648622021E+03  0.00000000000E+00 0.  1.
         13    1    5    5    0    0  0.16297725463E+03  0.63340340444E+02  0.66445582452E+02  0.18705239822E+03  0.00000000000E+00 0. -1.
        -13    1    5    5    0    0  0.55467726764E+02 -0.20674184403E+02  0.62593367432E+02  0.86151147755E+02  0.00000000000E+00 0.  1.
          4    1    6    6  503    0 -0.27628477126E+02  0.37653107298E+02 -0.26546834352E+03  0.26954504382E+03  0.00000000000E+00 0. -1.
         -4    1    6    6    0  503 -0.11635815522E+03 -0.41943432439E+02 -0.63972356287E+03  0.65157095446E+03  0.00000000000E+00 0.  1.
<mgrwt>
<rscale>  0 0.19878078E+04</rscale>
<asrwt>0</asrwt>
<pdfrwt beam="1">  1        1 0.15231454E+00 0.19878078E+04</pdfrwt>
<pdfrwt beam="2">  1       -1 0.15350437E+00 0.19878078E+04</pdfrwt>
<totfact> 0.46884274E+00</totfact>
</mgrwt>
</event>
<event>
12    3  0.4688899E-008  0.2013577E+04  0.7818608E-02  0.8600299E-01
         -2   -1    0    0    0  501 -0.00000000000E+00  0.00000000000E+00  0.36797891429E+03  0.36797891429E+03  0.00000000000E+00 0.  1.
          2   -1    0    0  501    0  0.00000000000E+00 -0.00000000000E+00 -0.27545681194E+04  0.27545681194E+04  0.00000000000E+00 0. -1.
         23    2    1    2    0    0  0.40314965078E+03  0.22904194108E+03  0.59382516618E+02  0.47614357622E+03  0.90534911485E+02 0.  0.
        254    2    1    2    0    0 -0.40314965078E+03 -0.22904194108E+03 -0.24459717217E+04  0.26464034574E+04  0.89759887731E+03 0.  0.
         23    2    4    4    0    0 -0.15604843055E+03  0.24998905266E+03 -0.29318464583E+03  0.42532083506E+03  0.89971868151E+02 0.  0.
         23    2    4    4    0    0 -0.24710122023E+03 -0.47903099373E+03 -0.21527870759E+04  0.22210826224E+04  0.90477154327E+02 0.  0.
          1    1    3    3  502    0  0.33880171371E+02  0.50983796186E+02 -0.38656093860E+01  0.61336420026E+02  0.00000000000E+00 0. -1.
         -1    1    3    3    0  502  0.36926947941E+03  0.17805814489E+03  0.63248126004E+02  0.41480715619E+03  0.00000000000E+00 0.  1.
         13    1    5    5    0    0 -0.12980889469E+03  0.22570742302E+03 -0.28952593513E+03  0.38938343193E+03  0.00000000000E+00 0.  1.
        -13    1    5    5    0    0 -0.26239535858E+02  0.24281629632E+02 -0.36587107027E+01  0.35937403129E+02  0.00000000000E+00 0. -1.
          4    1    6    6  503    0 -0.21502049750E+02 -0.12431035355E+03 -0.50258414068E+03  0.51817585876E+03  0.00000000000E+00 0. -1.
         -4    1    6    6    0  503 -0.22559917048E+03 -0.35472064019E+03 -0.16502029352E+04  0.17029067636E+04  0.00000000000E+00 0.  1.
<mgrwt>
<rscale>  0 0.20135769E+04</rscale>
<asrwt>0</asrwt>
<pdfrwt beam="1">  1        2 0.42377971E+00 0.20135769E+04</pdfrwt>
<pdfrwt beam="2">  1       -2 0.56612141E-01 0.20135769E+04</pdfrwt>
<totfact> 0.66992057E+00</totfact>
</mgrwt>
</event>
<event>
12    3  0.4688899E-008  0.2403707E+04  0.7818608E-02  0.8438117E-01
         -1   -1    0    0    0  501 -0.00000000000E+00  0.00000000000E+00  0.34634618556E+03  0.34634618556E+03  0.00000000000E+00 0.  1.
          1   -1    0    0  501    0  0.00000000000E+00 -0.00000000000E+00 -0.41705440654E+04  0.41705440654E+04  0.00000000000E+00 0. -1.
         23    2    1    2    0    0  0.79483008496E+03  0.64988112736E+03 -0.15141851892E+04  0.18317298961E+04  0.91527489544E+02 0.  0.
        254    2    1    2    0    0 -0.79483008496E+03 -0.64988112736E+03 -0.23100126906E+04  0.26851603549E+04  0.90544307210E+03 0.  0.
         23    2    4    4    0    0 -0.66437518193E+03 -0.15679443575E+02 -0.15071936072E+04  0.16496953206E+04  0.90674440027E+02 0.  0.
         23    2    4    4    0    0 -0.13045490303E+03 -0.63420168379E+03 -0.80281908345E+03  0.10354650342E+04  0.91864568407E+02 0.  0.
          3    1    3    3  502    0  0.72313007459E+03  0.57444156744E+03 -0.13136390860E+04  0.16057857477E+04  0.00000000000E+00 0. -1.
         -3    1    3    3    0  502  0.71700010373E+02  0.75439559925E+02 -0.20054610321E+03  0.22594414842E+03  0.00000000000E+00 0.  1.
         13    1    5    5    0    0 -0.64630081556E+03 -0.80392181230E+01 -0.14876695412E+04  0.16220141914E+04  0.00000000000E+00 0. -1.
        -13    1    5    5    0    0 -0.18074366371E+02 -0.76402254515E+01 -0.19524066010E+02  0.27681129280E+02  0.00000000000E+00 0.  1.
          2    1    6    6  503    0 -0.11782810031E+03 -0.56051385350E+03 -0.75104907052E+03  0.94452842600E+03  0.00000000000E+00 0. -1.
         -2    1    6    6    0  503 -0.12626802712E+02 -0.73687830283E+02 -0.51770012935E+02  0.90936608238E+02  0.00000000000E+00 0.  1.
<mgrwt>
<rscale>  0 0.24037072E+04</rscale>
<asrwt>0</asrwt>
<pdfrwt beam="1">  1        1 0.64162216E+00 0.24037072E+04</pdfrwt>
<pdfrwt beam="2">  1       -1 0.53284029E-01 0.24037072E+04</pdfrwt>
<totfact> 0.21529039E-01</totfact>
</mgrwt>
</event>
<event>
12    3  0.4688899E-008  0.2427528E+04  0.7818608E-02  0.8429269E-01
         -1   -1    0    0    0  501 -0.00000000000E+00  0.00000000000E+00  0.48259207973E+03  0.48259207973E+03  0.00000000000E+00 0.  1.
          1   -1    0    0  501    0  0.00000000000E+00 -0.00000000000E+00 -0.30527285503E+04  0.30527285503E+04  0.00000000000E+00 0. -1.
         23    2    1    2    0    0 -0.12185032800E+03  0.72585513877E+03 -0.27503094266E+02  0.74239474620E+03  0.93168417826E+02 0.  0.
        254    2    1    2    0    0  0.12185032800E+03 -0.72585513877E+03 -0.25426333763E+04  0.27929258838E+04  0.89091936861E+03 0.  0.
         23    2    4    4    0    0  0.39140760095E+03 -0.63400571809E+03 -0.11838849903E+04  0.14017969730E+04  0.91038028081E+02 0.  0.
         23    2    4    4    0    0 -0.26955727296E+03 -0.91849420687E+02 -0.13587483859E+04  0.13911289108E+04  0.89134901497E+02 0.  0.
          2    1    3    3  502    0 -0.77121150909E+02  0.20392236535E+03 -0.10620058017E+02  0.21827686235E+03  0.00000000000E+00 0. -1.
         -2    1    3    3    0  502 -0.44729177088E+02  0.52193277343E+03 -0.16883036249E+02  0.52411788385E+03  0.00000000000E+00 0.  1.
         13    1    5    5    0    0  0.38238240356E+03 -0.62612312332E+03 -0.11794693088E+04  0.13890263923E+04  0.00000000000E+00 0. -1.
        -13    1    5    5    0    0  0.90251973930E+01 -0.78825947638E+01 -0.44156815300E+01  0.12770580706E+02  0.00000000000E+00 0.  1.
          3    1    6    6  503    0 -0.24545222264E+03 -0.56345434287E+02 -0.10717790702E+04  0.11009686539E+04  0.00000000000E+00 0. -1.
         -3    1    6    6    0  503 -0.24105050317E+02 -0.35503986399E+02 -0.28696931570E+03  0.29016025685E+03  0.00000000000E+00 0.  1.
<mgrwt>
<rscale>  0 0.24275276E+04</rscale>
<asrwt>0</asrwt>
<pdfrwt beam="1">  1        1 0.46965055E+00 0.24275276E+04</pdfrwt>
<pdfrwt beam="2">  1       -1 0.74244935E-01 0.24275276E+04</pdfrwt>
<totfact> 0.89300955E-01</totfact>
</mgrwt>
</event>
<event>
12    3  0.4688899E-008  0.1511104E+04  0.7818608E-02  0.8877102E-01
         -1   -1    0    0    0  501 -0.00000000000E+00  0.00000000000E+00  0.25531622886E+03  0.25531622886E+03  0.00000000000E+00 0.  1.
          1   -1    0    0  501    0  0.00000000000E+00 -0.00000000000E+00 -0.22358906899E+04  0.22358906899E+04  0.00000000000E+00 0. -1.
         23    2    1    2    0    0 -0.31410551253E+03  0.82951625752E+02 -0.12677778188E+04  0.13118502623E+04  0.90262216867E+02 0.  0.
        254    2    1    2    0    0  0.31410551253E+03 -0.82951625752E+02 -0.71279664223E+03  0.11793566564E+04  0.88162340292E+03 0.  0.
         23    2    4    4    0    0  0.51460159623E+02 -0.45149553573E+03 -0.26249496555E+03  0.53462405030E+03  0.10209261193E+03 0.  0.
         23    2    4    4    0    0  0.26264535290E+03  0.36854390998E+03 -0.45030167668E+03  0.64473260608E+03  0.90007434893E+02 0.  0.
          1    1    3    3  502    0 -0.22092610890E+03  0.99048055950E+02 -0.94321279770E+03  0.97379117101E+03  0.00000000000E+00 0. -1.
         -1    1    3    3    0  502 -0.93179403623E+02 -0.16096430198E+02 -0.32456502107E+03  0.33805909132E+03  0.00000000000E+00 0.  1.
         13    1    5    5    0    0  0.65133820621E+01 -0.27401003492E+03 -0.10635866080E+03  0.29400014985E+03  0.00000000000E+00 0. -1.
        -13    1    5    5    0    0  0.44946777561E+02 -0.17748550081E+03 -0.15613630475E+03  0.24062390046E+03  0.00000000000E+00 0.  1.
          2    1    6    6  503    0  0.21590396014E+03  0.27802136081E+03 -0.39395991398E+03  0.52831317501E+03  0.00000000000E+00 0. -1.
         -2    1    6    6    0  503  0.46741392768E+02  0.90522549167E+02 -0.56341762703E+02  0.11641943107E+03  0.00000000000E+00 0.  1.
<mgrwt>
<rscale>  0 0.15111045E+04</rscale>
<asrwt>0</asrwt>
<pdfrwt beam="1">  1        1 0.34398318E+00 0.15111045E+04</pdfrwt>
<pdfrwt beam="2">  1       -1 0.39279420E-01 0.15111045E+04</pdfrwt>
<totfact> 0.12547976E+01</totfact>
</mgrwt>
</event>
<event>
12    3  0.4688899E-008  0.1282579E+04  0.7818608E-02  0.9043495E-01
         -1   -1    0    0    0  501 -0.00000000000E+00  0.00000000000E+00  0.13754413911E+04  0.13754413911E+04  0.00000000000E+00 0.  1.
          1   -1    0    0  501    0  0.00000000000E+00 -0.00000000000E+00 -0.29899649639E+03  0.29899649639E+03  0.00000000000E+00 0. -1.
         23    2    1    2    0    0  0.94009348401E+02  0.28442779813E+03  0.13720468461E+03  0.34205266336E+03  0.91858418750E+02 0.  0.
        254    2    1    2    0    0 -0.94009348401E+02 -0.28442779813E+03  0.93924021012E+03  0.13323852242E+04  0.89629307891E+03 0.  0.
         23    2    4    4    0    0  0.22066605774E+02  0.27568115912E+03  0.89910522135E+02  0.30453487039E+03  0.90391087542E+02 0.  0.
         23    2    4    4    0    0 -0.11607595417E+03 -0.56010895725E+03  0.84932968799E+03  0.10278503538E+04  0.88993031890E+02 0.  0.
          4    1    3    3  502    0  0.73700658402E+02  0.22013491455E+03  0.14572398753E+03  0.27409240813E+03  0.00000000000E+00 0. -1.
         -4    1    3    3    0  502  0.20308689998E+02  0.64292883573E+02 -0.85193029193E+01  0.67960255222E+02  0.00000000000E+00 0.  1.
         13    1    5    5    0    0  0.20668969877E+01 -0.38402157472E+01  0.13327653783E+02  0.14023040879E+02  0.00000000000E+00 0. -1.
        -13    1    5    5    0    0  0.19999708786E+02  0.27952137487E+03  0.76582868353E+02  0.29051182951E+03  0.00000000000E+00 0.  1.
          4    1    6    6  503    0 -0.19552991668E+02 -0.15986375483E+03  0.17555893707E+03  0.23824290121E+03  0.00000000000E+00 0. -1.
         -4    1    6    6    0  503 -0.96522962507E+02 -0.40024520241E+03  0.67377075092E+03  0.78960745256E+03  0.00000000000E+00 0.  1.
<mgrwt>
<rscale>  0 0.12825789E+04</rscale>
<asrwt>0</asrwt>
<pdfrwt beam="1">  1        1 0.45999462E-01 0.12825789E+04</pdfrwt>
<pdfrwt beam="2">  1       -1 0.21160636E+00 0.12825789E+04</pdfrwt>
<totfact> 0.10864464E+01</totfact>
</mgrwt>
</event>
<event>
12    3  0.4688899E-008  0.1806741E+04  0.7818608E-02  0.8702723E-01
         -2   -1    0    0    0  501 -0.00000000000E+00  0.00000000000E+00  0.56030593747E+03  0.56030593747E+03  0.00000000000E+00 0.  1.
          2   -1    0    0  501    0  0.00000000000E+00 -0.00000000000E+00 -0.14564861284E+04  0.14564861284E+04  0.00000000000E+00 0. -1.
         23    2    1    2    0    0  0.42760317678E+03  0.65524656190E+02  0.24774653513E+03  0.50637601260E+03  0.88883986815E+02 0.  0.
        254    2    1    2    0    0 -0.42760317678E+03 -0.65524656190E+02 -0.11439267260E+04  0.15104160532E+04  0.88636919056E+03 0.  0.
         23    2    4    4    0    0 -0.65900175234E+03 -0.20688448692E+03 -0.87265191538E+03  0.11167589357E+04  0.92437300853E+02 0.  0.
         23    2    4    4    0    0  0.23139857556E+03  0.14135983073E+03 -0.27127481064E+03  0.39365711750E+03  0.88588942645E+02 0.  0.
          4    1    3    3  502    0  0.31617890495E+03  0.47326172003E+02  0.13568577281E+03  0.34730317510E+03  0.00000000000E+00 0. -1.
         -4    1    3    3    0  502  0.11142427183E+03  0.18198484187E+02  0.11206076232E+03  0.15907283750E+03  0.00000000000E+00 0.  1.
         13    1    5    5    0    0 -0.32510803372E+03 -0.76915903096E+02 -0.35800971378E+03  0.48967565275E+03  0.00000000000E+00 0. -1.
        -13    1    5    5    0    0 -0.33389371862E+03 -0.12996858382E+03 -0.51464220160E+03  0.62708328297E+03  0.00000000000E+00 0.  1.
          3    1    6    6  503    0  0.45284033895E+02  0.70198031851E+02 -0.57456838490E+02  0.10138883415E+03  0.00000000000E+00 0.  1.
         -3    1    6    6    0  503  0.18611454166E+03  0.71161798876E+02 -0.21381797215E+03  0.29226828335E+03  0.00000000000E+00 0. -1.
<mgrwt>
<rscale>  0 0.18067405E+04</rscale>
<asrwt>0</asrwt>
<pdfrwt beam="1">  1        2 0.22407479E+00 0.18067405E+04</pdfrwt>
<pdfrwt beam="2">  1       -2 0.86200914E-01 0.18067405E+04</pdfrwt>
<totfact> 0.14794029E+01</totfact>
</mgrwt>
</event>
<event>
12    3  0.4688899E-008  0.1403735E+04  0.7818608E-02  0.8951119E-01
          1   -1    0    0  501    0  0.00000000000E+00  0.00000000000E+00  0.88434259135E+03  0.88434259135E+03  0.00000000000E+00 0. -1.
         -1   -1    0    0    0  501 -0.00000000000E+00 -0.00000000000E+00 -0.55704438716E+03  0.55704438716E+03  0.00000000000E+00 0.  1.
         23    2    1    2    0    0 -0.44290975968E+02 -0.30022180792E+03  0.37053071047E+03  0.48693410141E+03  0.87846384163E+02 0.  0.
        254    2    1    2    0    0  0.44290975968E+02  0.30022180792E+03 -0.43232506282E+02  0.95445287710E+03  0.90388960637E+03 0.  0.
         23    2    4    4    0    0 -0.25677651169E+03  0.50735003374E+03 -0.38443582919E+02  0.57765650175E+03  0.94185408909E+02 0.  0.
         23    2    4    4    0    0  0.30106748766E+03 -0.20712822583E+03 -0.47889233636E+01  0.37679637535E+03  0.91699730810E+02 0.  0.
          3    1    3    3  502    0  0.44642146016E+01 -0.10801035717E+03  0.19084354598E+03  0.21933405005E+03  0.00000000000E+00 0. -1.
         -3    1    3    3    0  502 -0.48755190570E+02 -0.19221145074E+03  0.17968716449E+03  0.26760005136E+03  0.00000000000E+00 0.  1.
         13    1    5    5    0    0 -0.23618692615E+03  0.41362791561E+03 -0.59540207822E+01  0.47634836729E+03  0.00000000000E+00 0.  1.
        -13    1    5    5    0    0 -0.20589585542E+02  0.93722118136E+02 -0.32489562137E+02  0.10130813446E+03  0.00000000000E+00 0. -1.
          1    1    6    6  503    0  0.54641572219E+02 -0.29981240812E+01 -0.14656048589E+02  0.56652360258E+02  0.00000000000E+00 0. -1.
         -1    1    6    6    0  503  0.24642591544E+03 -0.20413010174E+03  0.98671252252E+01  0.32014401509E+03  0.00000000000E+00 0.  1.
<mgrwt>
<rscale>  0 0.14037351E+04</rscale>
<asrwt>0</asrwt>
<pdfrwt beam="1">  1        1 0.13605271E+00 0.14037351E+04</pdfrwt>
<pdfrwt beam="2">  1       -1 0.85699136E-01 0.14037351E+04</pdfrwt>
<totfact> 0.24584257E+01</totfact>
</mgrwt>
</event>
<event>
12    3  0.4688899E-008  0.1297248E+04  0.7818608E-02  0.9031750E-01
          2   -1    0    0  501    0  0.00000000000E+00  0.00000000000E+00  0.21403656123E+04  0.21403656123E+04  0.00000000000E+00 0. -1.
         -2   -1    0    0    0  501 -0.00000000000E+00 -0.00000000000E+00 -0.19656137922E+03  0.19656137922E+03  0.00000000000E+00 0.  1.
         23    2    1    2    0    0  0.29237888772E+03 -0.11020754599E+03  0.31626208398E+03  0.45381179774E+03  0.91062203030E+02 0.  0.
        254    2    1    2    0    0 -0.29237888772E+03  0.11020754599E+03  0.16275421491E+04  0.18831151937E+04  0.89420258822E+03 0.  0.
         23    2    4    4    0    0  0.90447056502E+02  0.42138602814E+03  0.67127124840E+03  0.80289095154E+03  0.91005144977E+02 0.  0.
         23    2    4    4    0    0 -0.38282594423E+03 -0.31117848215E+03  0.95627090066E+03  0.10802242422E+04  0.95092726678E+02 0.  0.
          4    1    3    3  502    0  0.17309364616E+03 -0.10267707630E+03  0.23438488761E+03  0.30893408339E+03  0.00000000000E+00 0. -1.
         -4    1    3    3    0  502  0.11928524157E+03 -0.75304696890E+01  0.81877196369E+02  0.14487771435E+03  0.00000000000E+00 0.  1.
         13    1    5    5    0    0  0.51163783410E+02  0.71696436375E+02  0.11927695722E+03  0.14827374766E+03  0.00000000000E+00 0.  1.
        -13    1    5    5    0    0  0.39283273092E+02  0.34968959176E+03  0.55199429118E+03  0.65461720388E+03  0.00000000000E+00 0. -1.
          4    1    6    6  503    0 -0.36627255617E+03 -0.31415176963E+03  0.89629626647E+03  0.10179361066E+04  0.00000000000E+00 0. -1.
         -4    1    6    6    0  503 -0.16553388054E+02  0.29732874820E+01  0.59974634193E+02  0.62288135637E+02  0.00000000000E+00 0.  1.
<mgrwt>
<rscale>  0 0.12972482E+04</rscale>
<asrwt>0</asrwt>
<pdfrwt beam="1">  1        2 0.32928700E+00 0.12972482E+04</pdfrwt>
<pdfrwt beam="2">  1       -2 0.30240214E-01 0.12972482E+04</pdfrwt>
<totfact> 0.55340313E+01</totfact>
</mgrwt>
</event>
<event>
12    3  0.4688899E-008  0.2015411E+04  0.7818608E-02  0.8599449E-01
          1   -1    0    0  501    0  0.00000000000E+00  0.00000000000E+00  0.25466555184E+04  0.25466555184E+04  0.00000000000E+00 0. -1.
         -1   -1    0    0    0  501 -0.00000000000E+00 -0.00000000000E+00 -0.39874672399E+03  0.39874672399E+03  0.00000000000E+00 0.  1.
         23    2    1    2    0    0 -0.11348159401E+03  0.34222098115E+03 -0.19090682704E+03  0.41810662340E+03  0.91512074610E+02 0.  0.
        254    2    1    2    0    0  0.11348159401E+03 -0.34222098115E+03  0.23388156215E+04  0.25272956190E+04  0.88722678191E+03 0.  0.
         23    2    4    4    0    0  0.40942487805E+03 -0.44033210793E+00  0.16078383267E+04  0.16618510552E+04  0.94741332402E+02 0.  0.
         23    2    4    4    0    0 -0.29594328404E+03 -0.34178064904E+03  0.73097729475E+03  0.86544456384E+03  0.10134124634E+03 0.  0.
          1    1    3    3  502    0  0.31727515746E+01  0.77708319795E+02 -0.13548987445E+02  0.78944438554E+02  0.00000000000E+00 0. -1.
         -1    1    3    3    0  502 -0.11665434559E+03  0.26451266136E+03 -0.17735783959E+03  0.33916218484E+03  0.00000000000E+00 0.  1.
         13    1    5    5    0    0  0.35869707353E+03 -0.11486309869E+02  0.12582886341E+04  0.13084669704E+04  0.00000000000E+00 0. -1.
        -13    1    5    5    0    0  0.50727804519E+02  0.11045977761E+02  0.34954969263E+03  0.35338408480E+03  0.00000000000E+00 0.  1.
          1    1    6    6  503    0 -0.88965950865E+02 -0.42843954506E+02  0.13393025379E+03  0.16639668786E+03  0.00000000000E+00 0. -1.
         -1    1    6    6    0  503 -0.20697733317E+03 -0.29893669454E+03  0.59704704096E+03  0.69904787598E+03  0.00000000000E+00 0.  1.
<mgrwt>
<rscale>  0 0.20154112E+04</rscale>
<asrwt>0</asrwt>
<pdfrwt beam="1">  1        1 0.39179315E+00 0.20154112E+04</pdfrwt>
<pdfrwt beam="2">  1       -1 0.61345651E-01 0.20154112E+04</pdfrwt>
<totfact> 0.31405898E+00</totfact>
</mgrwt>
</event>
<event>
12    3  0.4688899E-008  0.1448167E+04  0.7818608E-02  0.8919672E-01
          2   -1    0    0  501    0  0.00000000000E+00  0.00000000000E+00  0.90516450367E+03  0.90516450367E+03  0.00000000000E+00 0. -1.
         -2   -1    0    0    0  501 -0.00000000000E+00 -0.00000000000E+00 -0.57922855039E+03  0.57922855039E+03  0.00000000000E+00 0.  1.
         23    2    1    2    0    0  0.12631341467E+03 -0.95720125089E+02 -0.31852822592E+03  0.36683295200E+03  0.89379879697E+02 0.  0.
        254    2    1    2    0    0 -0.12631341467E+03  0.95720125089E+02  0.64446417920E+03  0.11175601021E+04  0.89916020950E+03 0.  0.
         23    2    4    4    0    0 -0.11192404850E+03  0.46872008524E+03  0.51802361877E+03  0.71287203964E+03  0.87250010634E+02 0.  0.
         23    2    4    4    0    0 -0.14389366164E+02 -0.37299996015E+03  0.12644056043E+03  0.40468806241E+03  0.91919466967E+02 0.  0.
          4    1    3    3  502    0  0.63383961118E+02 -0.61939305890E+02 -0.85646987403E+02  0.12324532686E+03  0.00000000000E+00 0. -1.
         -4    1    3    3    0  502  0.62929453550E+02 -0.33780819198E+02 -0.23288123852E+03  0.24358762515E+03  0.00000000000E+00 0.  1.
         13    1    5    5    0    0 -0.10644497823E+03  0.26008332160E+03  0.29799341390E+03  0.40960217564E+03  0.00000000000E+00 0. -1.
        -13    1    5    5    0    0 -0.54790702793E+01  0.20863676364E+03  0.22003020487E+03  0.30326986400E+03  0.00000000000E+00 0.  1.
          2    1    6    6  503    0 -0.35340894756E+02 -0.53460510195E+02  0.17389190271E+02  0.66403229822E+02  0.00000000000E+00 0.  1.
         -2    1    6    6    0  503  0.20951528592E+02 -0.31953944995E+03  0.10905137016E+03  0.33828483259E+03  0.00000000000E+00 0. -1.
<mgrwt>
<rscale>  0 0.14481673E+04</rscale>
<asrwt>0</asrwt>
<pdfrwt beam="1">  1        2 0.13925608E+00 0.14481673E+04</pdfrwt>
<pdfrwt beam="2">  1       -2 0.89112085E-01 0.14481673E+04</pdfrwt>
<totfact> 0.30512482E+01</totfact>
</mgrwt>
</event>
<event>
12    3  0.4688899E-008  0.1499301E+04  0.7818608E-02  0.8884918E-01
         -2   -1    0    0    0  501 -0.00000000000E+00  0.00000000000E+00  0.43948482466E+03  0.43948482466E+03  0.00000000000E+00 0.  1.
          2   -1    0    0  501    0  0.00000000000E+00 -0.00000000000E+00 -0.12787156071E+04  0.12787156071E+04  0.00000000000E+00 0. -1.
         23    2    1    2    0    0  0.28635953513E+03  0.34887209507E+03 -0.12296936288E+03  0.47677961701E+03  0.92107637627E+02 0.  0.
        254    2    1    2    0    0 -0.28635953513E+03 -0.34887209507E+03 -0.71626141953E+03  0.12414208147E+04  0.90795467732E+03 0.  0.
         23    2    4    4    0    0 -0.14739104722E+03 -0.55453208433E+03 -0.12574380430E+03  0.59441045177E+03  0.91007293697E+02 0.  0.
         23    2    4    4    0    0 -0.13896848791E+03  0.20565998926E+03 -0.59051761523E+03  0.64701036297E+03  0.91121260273E+02 0.  0.
          3    1    3    3  502    0  0.15863460567E+03  0.15557795003E+03 -0.10096345688E+03  0.24405543689E+03  0.00000000000E+00 0. -1.
         -3    1    3    3    0  502  0.12772492946E+03  0.19329414504E+03 -0.22005906005E+02  0.23272418012E+03  0.00000000000E+00 0.  1.
         13    1    5    5    0    0 -0.15914311772E+03 -0.49924633734E+03 -0.12028700348E+03  0.53762663669E+03  0.00000000000E+00 0.  1.
        -13    1    5    5    0    0  0.11752070498E+02 -0.55285746981E+02 -0.54568008242E+01  0.56783815084E+02  0.00000000000E+00 0. -1.
          4    1    6    6  503    0 -0.48508812175E+02  0.16520562021E+02 -0.16273563585E+03  0.17061336701E+03  0.00000000000E+00 0. -1.
         -4    1    6    6    0  503 -0.90459675731E+02  0.18913942724E+03 -0.42778197938E+03  0.47639699595E+03  0.00000000000E+00 0.  1.
<mgrwt>
<rscale>  0 0.14993013E+04</rscale>
<asrwt>0</asrwt>
<pdfrwt beam="1">  1        2 0.19672547E+00 0.14993013E+04</pdfrwt>
<pdfrwt beam="2">  1       -2 0.67613051E-01 0.14993013E+04</pdfrwt>
<totfact> 0.32957023E+01</totfact>
</mgrwt>
</event>
<event>
12    3  0.4688899E-008  0.3028430E+04  0.7818608E-02  0.8235659E-01
          2   -1    0    0  501    0  0.00000000000E+00  0.00000000000E+00  0.92785085818E+03  0.92785085818E+03  0.00000000000E+00 0. -1.
         -2   -1    0    0    0  501 -0.00000000000E+00 -0.00000000000E+00 -0.24711381756E+04  0.24711381756E+04  0.00000000000E+00 0.  1.
         23    2    1    2    0    0  0.13710704373E+04 -0.78988841843E+02 -0.59011858332E+03  0.14975609569E+04  0.91517737332E+02 0.  0.
        254    2    1    2    0    0 -0.13710704373E+04  0.78988841843E+02 -0.95316873410E+03  0.19014280768E+04  0.90599377187E+03 0.  0.
         23    2    4    4    0    0 -0.89052174143E+02 -0.25337730909E+03 -0.31459006153E+02  0.28530281769E+03  0.90981746720E+02 0.  0.
         23    2    4    4    0    0 -0.12820182631E+04  0.33236615093E+03 -0.92170972795E+03  0.16161252592E+04  0.90961230277E+02 0.  0.
          2    1    3    3  502    0  0.39112249899E+02 -0.15821261874E+02 -0.98775963041E+01  0.43331828120E+02  0.00000000000E+00 0. -1.
         -2    1    3    3    0  502  0.13319581874E+04 -0.63167579969E+02 -0.58024098701E+03  0.14542291288E+04  0.00000000000E+00 0.  1.
         13    1    5    5    0    0 -0.77366857627E+02 -0.24575827373E+03 -0.49639868287E+02  0.26238688285E+03  0.00000000000E+00 0. -1.
        -13    1    5    5    0    0 -0.11685316516E+02 -0.76190353511E+01  0.18180862135E+02  0.22915934843E+02  0.00000000000E+00 0.  1.
          3    1    6    6  503    0 -0.12552186196E+04  0.31869515629E+03 -0.91390738048E+03  0.15850448214E+04  0.00000000000E+00 0. -1.
         -3    1    6    6    0  503 -0.26799643509E+02  0.13670994640E+02 -0.78023474739E+01  0.31080437782E+02  0.00000000000E+00 0.  1.
<mgrwt>
<rscale>  0 0.30284304E+04</rscale>
<asrwt>0</asrwt>
<pdfrwt beam="1">  1        2 0.14274629E+00 0.30284304E+04</pdfrwt>
<pdfrwt beam="2">  1       -2 0.38017510E+00 0.30284304E+04</pdfrwt>
<totfact> 0.23938724E-01</totfact>
</mgrwt>
</event>
<event>
12    3  0.4688899E-008  0.1607027E+04  0.7818608E-02  0.8816243E-01
         -1   -1    0    0    0  501 -0.00000000000E+00  0.00000000000E+00  0.66774862547E+03  0.66774862547E+03  0.00000000000E+00 0.  1.
          1   -1    0    0  501    0  0.00000000000E+00 -0.00000000000E+00 -0.96688124999E+03  0.96688124999E+03  0.00000000000E+00 0. -1.
         23    2    1    2    0    0 -0.37736895748E+03 -0.17142773562E+03 -0.46607887992E+03  0.63038958329E+03  0.91469698837E+02 0.  0.
        254    2    1    2    0    0  0.37736895748E+03  0.17142773562E+03  0.16694625540E+03  0.10042402922E+04  0.89935127377E+03 0.  0.
         23    2    4    4    0    0  0.66582085554E+03  0.13751914744E+03  0.10730438993E+03  0.69413346972E+03  0.89878329448E+02 0.  0.
         23    2    4    4    0    0 -0.28845189806E+03  0.33908588183E+02  0.59641865471E+02  0.31010682246E+03  0.90855926442E+02 0.  0.
          1    1    3    3  502    0 -0.17400095006E+03 -0.66985265442E+02 -0.27598975806E+03  0.33306711480E+03  0.00000000000E+00 0. -1.
         -1    1    3    3    0  502 -0.20336800742E+03 -0.10444247018E+03 -0.19008912186E+03  0.29732246849E+03  0.00000000000E+00 0.  1.
         13    1    5    5    0    0  0.46561715729E+03  0.90038839974E+02  0.33069316055E+02  0.47539447780E+03  0.00000000000E+00 0. -1.
        -13    1    5    5    0    0  0.20020369825E+03  0.47480307467E+02  0.74235073871E+02  0.21873899191E+03  0.00000000000E+00 0.  1.
          3    1    6    6  503    0 -0.28133471011E+03  0.44661629459E+02  0.41523486978E+02  0.28786816467E+03  0.00000000000E+00 0. -1.
         -3    1    6    6    0  503 -0.71171879519E+01 -0.10753041276E+02  0.18118378493E+02  0.22238657789E+02  0.00000000000E+00 0.  1.
<mgrwt>
<rscale>  0 0.16070266E+04</rscale>
<asrwt>0</asrwt>
<pdfrwt beam="1">  1        1 0.14875096E+00 0.16070266E+04</pdfrwt>
<pdfrwt beam="2">  1       -1 0.10273056E+00 0.16070266E+04</pdfrwt>
<totfact> 0.13806204E+01</totfact>
</mgrwt>
</event>
<event>
12    3  0.4688899E-008  0.1404917E+04  0.7818608E-02  0.8950267E-01
          1   -1    0    0  501    0  0.00000000000E+00  0.00000000000E+00  0.93735239534E+03  0.93735239534E+03  0.00000000000E+00 0. -1.
         -1   -1    0    0    0  501 -0.00000000000E+00 -0.00000000000E+00 -0.52642749957E+03  0.52642749957E+03  0.00000000000E+00 0.  1.
         23    2    1    2    0    0 -0.35477766277E+03  0.18925719004E+03  0.16142929672E+03  0.44258886312E+03  0.90222003628E+02 0.  0.
        254    2    1    2    0    0  0.35477766277E+03 -0.18925719004E+03  0.24949559905E+03  0.10211910318E+04  0.90492960802E+03 0.  0.
         23    2    4    4    0    0  0.22869704168E+03  0.34046831668E+03  0.10393930019E+02  0.41966491858E+03  0.88258702491E+02 0.  0.
         23    2    4    4    0    0  0.12608062109E+03 -0.52972550672E+03  0.23910166904E+03  0.60152611321E+03  0.90325086502E+02 0.  0.
          1    1    3    3  502    0 -0.99091448163E+02  0.31284877273E+02  0.80177441816E+02  0.13124892693E+03  0.00000000000E+00 0. -1.
         -1    1    3    3    0  502 -0.25568621461E+03  0.15797231277E+03  0.81251854903E+02  0.31133993619E+03  0.00000000000E+00 0.  1.
         13    1    5    5    0    0  0.12042306548E+03  0.10276837394E+03  0.61344989705E+01  0.15843195845E+03  0.00000000000E+00 0. -1.
        -13    1    5    5    0    0  0.10827397620E+03  0.23769994274E+03  0.42594310483E+01  0.26123296012E+03  0.00000000000E+00 0.  1.
          2    1    6    6  503    0 -0.31040179658E+01 -0.16139479137E+03  0.77555515313E+02  0.17908872540E+03  0.00000000000E+00 0. -1.
         -2    1    6    6    0  503  0.12918463906E+03 -0.36833071536E+03  0.16154615372E+03  0.42243738782E+03  0.00000000000E+00 0.  1.
<mgrwt>
<rscale>  0 0.14049172E+04</rscale>
<asrwt>0</asrwt>
<pdfrwt beam="1">  1        1 0.14420806E+00 0.14049172E+04</pdfrwt>
<pdfrwt beam="2">  1       -1 0.80988846E-01 0.14049172E+04</pdfrwt>
<totfact> 0.25135783E+01</totfact>
</mgrwt>
</event>
<event>
12    3  0.4688899E-008  0.1448973E+04  0.7818608E-02  0.8919113E-01
         -2   -1    0    0    0  501 -0.00000000000E+00  0.00000000000E+00  0.44143735360E+03  0.44143735360E+03  0.00000000000E+00 0.  1.
          2   -1    0    0  501    0  0.00000000000E+00 -0.00000000000E+00 -0.11890269149E+04  0.11890269149E+04  0.00000000000E+00 0. -1.
         23    2    1    2    0    0  0.17359764399E+03  0.11465724651E+03 -0.66585355340E+03  0.70020540793E+03  0.60367479239E+02 0.  0.
        254    2    1    2    0    0 -0.17359764399E+03 -0.11465724651E+03 -0.81736007904E+02  0.93025886057E+03  0.90300517524E+03 0.  0.
         23    2    4    4    0    0 -0.54129450635E+01 -0.47413259910E+03 -0.17450114013E+03  0.51281475228E+03  0.87734262110E+02 0.  0.
         23    2    4    4    0    0 -0.16818469892E+03  0.35947535259E+03  0.92765132229E+02  0.41744410829E+03  0.90252931884E+02 0.  0.
          3    1    3    3  502    0  0.15565571816E+03  0.81494281083E+02 -0.49548098520E+03  0.52571040235E+03  0.00000000000E+00 0. -1.
         -3    1    3    3    0  502  0.17941925824E+02  0.33162965422E+02 -0.17037256820E+03  0.17449500558E+03  0.00000000000E+00 0.  1.
         13    1    5    5    0    0 -0.15610337483E+02 -0.38502819680E+03 -0.17477749531E+03  0.42312831131E+03  0.00000000000E+00 0. -1.
        -13    1    5    5    0    0  0.10197392420E+02 -0.89104402303E+02  0.27635518195E+00  0.89686440971E+02  0.00000000000E+00 0.  1.
          4    1    6    6  503    0 -0.17127113132E+03  0.36033698015E+03  0.83463604521E+02  0.40760607573E+03  0.00000000000E+00 0. -1.
         -4    1    6    6    0  503  0.30864323997E+01 -0.86162755813E+00  0.93015277076E+01  0.98380325625E+01  0.00000000000E+00 0.  1.
<mgrwt>
<rscale>  0 0.14489733E+04</rscale>
<asrwt>0</asrwt>
<pdfrwt beam="1">  1        2 0.18292722E+00 0.14489733E+04</pdfrwt>
<pdfrwt beam="2">  1       -2 0.67913438E-01 0.14489733E+04</pdfrwt>
<totfact> 0.37035824E+01</totfact>
</mgrwt>
</event>
<event>
12    3  0.4688899E-008  0.1400055E+04  0.7818608E-02  0.8953779E-01
          2   -1    0    0  501    0  0.00000000000E+00  0.00000000000E+00  0.80507845581E+03  0.80507845581E+03  0.00000000000E+00 0. -1.
         -2   -1    0    0    0  501 -0.00000000000E+00 -0.00000000000E+00 -0.60868411996E+03  0.60868411996E+03  0.00000000000E+00 0.  1.
         23    2    1    2    0    0  0.29307637016E+03 -0.27567381612E+03  0.70003545485E+01  0.41282244037E+03  0.92106192326E+02 0.  0.
        254    2    1    2    0    0 -0.29307637016E+03  0.27567381612E+03  0.18939398131E+03  0.10009401354E+04  0.89672808747E+03 0.  0.
         23    2    4    4    0    0 -0.44346634703E+03  0.25006956699E+03  0.45017699056E+03  0.68559895424E+03  0.90495380801E+02 0.  0.
         23    2    4    4    0    0  0.15038997686E+03  0.25604249136E+02 -0.26078300925E+03  0.31534118116E+03  0.90330282341E+02 0.  0.
          4    1    3    3  502    0  0.34192092499E+02 -0.77435762572E+01  0.19360170578E+02  0.40048450251E+02  0.00000000000E+00 0. -1.
         -4    1    3    3    0  502  0.25888427766E+03 -0.26793023986E+03 -0.12359816030E+02  0.37277399012E+03  0.00000000000E+00 0.  1.
         13    1    5    5    0    0 -0.44221675516E+03  0.25101476559E+03  0.45386964328E+03  0.68158764967E+03  0.00000000000E+00 0. -1.
        -13    1    5    5    0    0 -0.12495918649E+01 -0.94519860347E+00 -0.36926527213E+01  0.40113045695E+01  0.00000000000E+00 0.  1.
          2    1    6    6  503    0  0.12113765250E+03  0.43845513265E+02 -0.24628201133E+03  0.27794170071E+03  0.00000000000E+00 0. -1.
         -2    1    6    6    0  503  0.29252324364E+02 -0.18241264129E+02 -0.14500997923E+02  0.37399480457E+02  0.00000000000E+00 0.  1.
<mgrwt>
<rscale>  0 0.14000550E+04</rscale>
<asrwt>0</asrwt>
<pdfrwt beam="1">  1        2 0.12385822E+00 0.14000550E+04</pdfrwt>
<pdfrwt beam="2">  1       -2 0.93643711E-01 0.14000550E+04</pdfrwt>
<totfact> 0.32051764E+01</totfact>
</mgrwt>
</event>
<event>
12    3  0.4688899E-008  0.1165489E+04  0.7818608E-02  0.9143612E-01
         -2   -1    0    0    0  501 -0.00000000000E+00  0.00000000000E+00  0.20791660518E+03  0.20791660518E+03  0.00000000000E+00 0. -1.
          2   -1    0    0  501    0  0.00000000000E+00 -0.00000000000E+00 -0.16333060182E+04  0.16333060182E+04  0.00000000000E+00 0.  1.
         23    2    1    2    0    0  0.15119630335E+03  0.14599345857E+03 -0.17455032302E+03  0.28837221568E+03  0.92283841581E+02 0.  0.
        254    2    1    2    0    0 -0.15119630335E+03 -0.14599345857E+03 -0.12508390900E+04  0.15528504077E+04  0.89586357641E+03 0.  0.
         23    2    4    4    0    0 -0.15729898119E+03 -0.45751268915E+03 -0.10780458360E+04  0.11854442764E+04  0.95049869974E+02 0.  0.
         23    2    4    4    0    0  0.61026778400E+01  0.31151923058E+03 -0.17279325403E+03  0.36740613129E+03  0.89712223093E+02 0.  0.
          2    1    3    3  502    0  0.10090059661E+03  0.13557554516E+03 -0.95551165777E+02  0.19414346274E+03  0.00000000000E+00 0. -1.
         -2    1    3    3    0  502  0.50295706738E+02  0.10417913412E+02 -0.78999157242E+02  0.94228752942E+02  0.00000000000E+00 0.  1.
         13    1    5    5    0    0 -0.66459893146E+02 -0.12846359978E+03 -0.41863169066E+03  0.44291342980E+03  0.00000000000E+00 0. -1.
        -13    1    5    5    0    0 -0.90839088044E+02 -0.32904908937E+03 -0.65941414535E+03  0.74253084665E+03  0.00000000000E+00 0.  1.
          1    1    6    6  503    0 -0.30932534962E+02  0.53737755455E+02 -0.18512614967E+02  0.64709234221E+02  0.00000000000E+00 0. -1.
         -1    1    6    6    0  503  0.37035212802E+02  0.25778147513E+03 -0.15428063906E+03  0.30269689707E+03  0.00000000000E+00 0.  1.
<mgrwt>
<rscale>  0 0.11654895E+04</rscale>
<asrwt>0</asrwt>
<pdfrwt beam="1">  1        2 0.25127786E+00 0.11654895E+04</pdfrwt>
<pdfrwt beam="2">  1       -2 0.31987169E-01 0.11654895E+04</pdfrwt>
<totfact> 0.96014214E+01</totfact>
</mgrwt>
</event>
<event>
12    3  0.4688899E-008  0.2613127E+04  0.7818608E-02  0.8363756E-01
          2   -1    0    0  501    0  0.00000000000E+00  0.00000000000E+00  0.14030254931E+04  0.14030254931E+04  0.00000000000E+00 0. -1.
         -2   -1    0    0    0  501 -0.00000000000E+00 -0.00000000000E+00 -0.12167335310E+04  0.12167335310E+04  0.00000000000E+00 0.  1.
         23    2    1    2    0    0  0.41453837571E+03  0.10656466900E+04 -0.61602385623E+02  0.11487946361E+04  0.92137555511E+02 0.  0.
        254    2    1    2    0    0 -0.41453837571E+03 -0.10656466900E+04  0.24789434770E+03  0.14709643880E+04  0.89153782321E+03 0.  0.
         23    2    4    4    0    0  0.49469714214E+02  0.10012222091E+03  0.15241919747E+03  0.20922885978E+03  0.89852057657E+02 0.  0.
         23    2    4    4    0    0 -0.46400808992E+03 -0.11657689109E+04  0.95475150230E+02  0.12617355282E+04  0.92414163591E+02 0.  0.
          1    1    3    3  502    0  0.17466235822E+03  0.45696098903E+03  0.19179627685E+02  0.48957955736E+03  0.00000000000E+00 0. -1.
         -1    1    3    3    0  502  0.23987601749E+03  0.60868570098E+03 -0.80782013308E+02  0.65921507873E+03  0.00000000000E+00 0.  1.
         13    1    5    5    0    0  0.59545203283E+02  0.81622339627E+02  0.15790418920E+03  0.18746085065E+03  0.00000000000E+00 0.  1.
        -13    1    5    5    0    0 -0.10075489068E+02  0.18499881278E+02 -0.54849917299E+01  0.21768009132E+02  0.00000000000E+00 0. -1.
          4    1    6    6  503    0 -0.38648653997E+02 -0.11929735504E+03  0.36389808328E+02  0.13057486560E+03  0.00000000000E+00 0. -1.
         -4    1    6    6    0  503 -0.42535943593E+03 -0.10464715559E+04  0.59085341901E+02  0.11311606626E+04  0.00000000000E+00 0.  1.
<mgrwt>
<rscale>  0 0.26131270E+04</rscale>
<asrwt>0</asrwt>
<pdfrwt beam="1">  1        2 0.21585007E+00 0.26131270E+04</pdfrwt>
<pdfrwt beam="2">  1       -2 0.18718977E+00 0.26131270E+04</pdfrwt>
<totfact> 0.20622314E+00</totfact>
</mgrwt>
</event>
<event>
12    3  0.4688899E-008  0.1084211E+04  0.7818608E-02  0.9220719E-01
         -2   -1    0    0    0  501 -0.00000000000E+00  0.00000000000E+00  0.30126017042E+03  0.30126017042E+03  0.00000000000E+00 0. -1.
          2   -1    0    0  501    0  0.00000000000E+00 -0.00000000000E+00 -0.97549772550E+03  0.97549772550E+03  0.00000000000E+00 0.  1.
         23    2    1    2    0    0 -0.85991481610E+02 -0.10708084777E+03 -0.15500882710E+03  0.22832940010E+03  0.96154748219E+02 0.  0.
        254    2    1    2    0    0  0.85991481610E+02  0.10708084777E+03 -0.51922872798E+03  0.10484284958E+04  0.90041268096E+03 0.  0.
         23    2    4    4    0    0 -0.30458043984E+03 -0.79442359748E+01  0.70306053953E+02  0.32614881279E+03  0.92724061863E+02 0.  0.
         23    2    4    4    0    0  0.39057192145E+03  0.11502508374E+03 -0.58953478193E+03  0.72227968303E+03  0.91430223129E+02 0.  0.
          2    1    3    3  502    0 -0.46327368119E+01  0.17914447365E+02 -0.16544611997E+02  0.24821640979E+02  0.00000000000E+00 0. -1.
         -2    1    3    3    0  502 -0.81358744799E+02 -0.12499529513E+03 -0.13846421510E+03  0.20350775912E+03  0.00000000000E+00 0.  1.
         13    1    5    5    0    0 -0.15479410683E+03  0.42327399958E+02  0.36481025113E+02  0.16457122922E+03  0.00000000000E+00 0. -1.
        -13    1    5    5    0    0 -0.14978633301E+03 -0.50271635933E+02  0.33825028840E+02  0.16157758357E+03  0.00000000000E+00 0.  1.
          3    1    6    6  503    0  0.30612364186E+03  0.10159424190E+03 -0.52071020330E+03  0.61251301203E+03  0.00000000000E+00 0. -1.
         -3    1    6    6    0  503  0.84448279589E+02  0.13430841837E+02 -0.68824578637E+02  0.10976667100E+03  0.00000000000E+00 0.  1.
<mgrwt>
<rscale>  0 0.10842114E+04</rscale>
<asrwt>0</asrwt>
<pdfrwt beam="1">  1        2 0.15007657E+00 0.10842114E+04</pdfrwt>
<pdfrwt beam="2">  1       -2 0.46347719E-01 0.10842114E+04</pdfrwt>
<totfact> 0.11454915E+02</totfact>
</mgrwt>
</event>
<event>
12    3  0.4688899E-008  0.1713809E+04  0.7818608E-02  0.8753528E-01
         -1   -1    0    0    0  501 -0.00000000000E+00  0.00000000000E+00  0.69048138128E+03  0.69048138128E+03  0.00000000000E+00 0.  1.
          1   -1    0    0  501    0  0.00000000000E+00 -0.00000000000E+00 -0.10634394648E+04  0.10634394648E+04  0.00000000000E+00 0. -1.
         23    2    1    2    0    0 -0.23213238521E+03  0.40830666565E+03 -0.55796958239E+03  0.73506099129E+03  0.91568709560E+02 0.  0.
        254    2    1    2    0    0  0.23213238521E+03 -0.40830666565E+03  0.18501149889E+03  0.10188598548E+04  0.88501207418E+03 0.  0.
         23    2    4    4    0    0  0.36359781587E+03 -0.37352501357E+03 -0.22625783153E+03  0.57522130742E+03  0.89233618728E+02 0.  0.
         23    2    4    4    0    0 -0.13146543066E+03 -0.34781652075E+02  0.41126933042E+03  0.44363854734E+03  0.95811146342E+02 0.  0.
          4    1    3    3  502    0 -0.19416050280E+03  0.36116999030E+03 -0.52492584945E+03  0.66610000012E+03  0.00000000000E+00 0. -1.
         -4    1    3    3    0  502 -0.37971882408E+02  0.47136675350E+02 -0.33043732940E+02  0.68960991171E+02  0.00000000000E+00 0.  1.
         13    1    5    5    0    0  0.12531124571E+03 -0.10220295677E+03 -0.11112630979E+03  0.19620756713E+03  0.00000000000E+00 0. -1.
        -13    1    5    5    0    0  0.23828657016E+03 -0.27132205680E+03 -0.11513152174E+03  0.37901374029E+03  0.00000000000E+00 0.  1.
          2    1    6    6  503    0 -0.11891926158E+03 -0.25128485785E+02  0.21696670861E+03  0.24869214748E+03  0.00000000000E+00 0.  1.
         -2    1    6    6    0  503 -0.12546169085E+02 -0.96531662896E+01  0.19430262181E+03  0.19494639986E+03  0.00000000000E+00 0. -1.
<mgrwt>
<rscale>  0 0.17138088E+04</rscale>
<asrwt>0</asrwt>
<pdfrwt beam="1">  1        1 0.16360607E+00 0.17138088E+04</pdfrwt>
<pdfrwt beam="2">  1       -1 0.10622791E+00 0.17138088E+04</pdfrwt>
<totfact> 0.10645588E+01</totfact>
</mgrwt>
</event>
<event>
12    3  0.4688899E-008  0.2304385E+04  0.7818608E-02  0.8476194E-01
         -1   -1    0    0    0  501 -0.00000000000E+00  0.00000000000E+00  0.11854123510E+04  0.11854123510E+04  0.00000000000E+00 0.  1.
          1   -1    0    0  501    0  0.00000000000E+00 -0.00000000000E+00 -0.11199033478E+04  0.11199033478E+04  0.00000000000E+00 0. -1.
         23    2    1    2    0    0 -0.94281639507E+03  0.23942955542E+03  0.71513738811E+02  0.97917572574E+03  0.86264826059E+02 0.  0.
        254    2    1    2    0    0  0.94281639507E+03 -0.23942955542E+03 -0.60047356376E+01  0.13261399731E+04  0.90132230887E+03 0.  0.
         23    2    4    4    0    0  0.78154241913E+03 -0.15314846573E+03  0.38184429606E+03  0.88785858010E+03  0.90690607955E+02 0.  0.
         23    2    4    4    0    0  0.16127397594E+03 -0.86281089689E+02 -0.38784903170E+03  0.43828139295E+03  0.90608974526E+02 0.  0.
          4    1    3    3  502    0 -0.88014837501E+03  0.20751909471E+03  0.50122708148E+02  0.90566970943E+03  0.00000000000E+00 0. -1.
         -4    1    3    3    0  502 -0.62668020058E+02  0.31910460713E+02  0.21391030664E+02  0.73506016310E+02  0.00000000000E+00 0.  1.
         13    1    5    5    0    0  0.57966491545E+02  0.51160966494E+01  0.98831298382E+01  0.59025120435E+02  0.00000000000E+00 0. -1.
        -13    1    5    5    0    0  0.72357592759E+03 -0.15826456238E+03  0.37196116622E+03  0.82883345967E+03  0.00000000000E+00 0.  1.
          4    1    6    6  503    0  0.36878567456E+02 -0.42463795477E+02 -0.48721229406E+02  0.74410757681E+02  0.00000000000E+00 0. -1.
         -4    1    6    6    0  503  0.12439540848E+03 -0.43817294212E+02 -0.33912780229E+03  0.36387063527E+03  0.00000000000E+00 0.  1.
<mgrwt>
<rscale>  0 0.23043847E+04</rscale>
<asrwt>0</asrwt>
<pdfrwt beam="1">  1        1 0.17229282E+00 0.23043847E+04</pdfrwt>
<pdfrwt beam="2">  1       -1 0.18237113E+00 0.23043847E+04</pdfrwt>
<totfact> 0.22149995E+00</totfact>
</mgrwt>
</event>
<event>
12    3  0.4688899E-008  0.2294832E+04  0.7818608E-02  0.8479961E-01
          1   -1    0    0  501    0  0.00000000000E+00  0.00000000000E+00  0.71444397723E+03  0.71444397723E+03  0.00000000000E+00 0. -1.
         -1   -1    0    0    0  501 -0.00000000000E+00 -0.00000000000E+00 -0.18427809044E+04  0.18427809044E+04  0.00000000000E+00 0.  1.
         23    2    1    2    0    0 -0.46017296170E+03 -0.45821798380E+03 -0.12769283678E+04  0.14355453104E+04  0.92311462988E+02 0.  0.
        254    2    1    2    0    0  0.46017296170E+03  0.45821798380E+03  0.14859144068E+03  0.11216795712E+04  0.90242050561E+03 0.  0.
         23    2    4    4    0    0  0.67826309705E+03  0.48561341376E+03  0.22914211338E+03  0.87060663081E+03  0.97921300232E+02 0.  0.
         23    2    4    4    0    0 -0.21809013536E+03 -0.27395429956E+02 -0.80550672703E+02  0.25107294043E+03  0.90749070639E+02 0.  0.
          3    1    3    3  502    0 -0.16267357578E+03 -0.22048272582E+03 -0.57586894072E+03  0.63773063399E+03  0.00000000000E+00 0. -1.
         -3    1    3    3    0  502 -0.29749938592E+03 -0.23773525798E+03 -0.70105942712E+03  0.79781467639E+03  0.00000000000E+00 0.  1.
         13    1    5    5    0    0  0.51115143800E+03  0.32108196647E+03  0.13947136147E+03  0.61953343932E+03  0.00000000000E+00 0.  1.
        -13    1    5    5    0    0  0.16711165906E+03  0.16453144729E+03  0.89670751910E+02  0.25107319150E+03  0.00000000000E+00 0. -1.
          1    1    6    6  503    0 -0.75394223767E+02 -0.20026568725E+02 -0.74792867295E+02  0.10807092778E+03  0.00000000000E+00 0. -1.
         -1    1    6    6    0  503 -0.14269591159E+03 -0.73688612302E+01 -0.57578054078E+01  0.14300201266E+03  0.00000000000E+00 0.  1.
<mgrwt>
<rscale>  0 0.22948322E+04</rscale>
<asrwt>0</asrwt>
<pdfrwt beam="1">  1        1 0.10991446E+00 0.22948322E+04</pdfrwt>
<pdfrwt beam="2">  1       -1 0.28350475E+00 0.22948322E+04</pdfrwt>
<totfact> 0.10088163E+00</totfact>
</mgrwt>
</event>
<event>
12    3  0.4688899E-008  0.2183808E+04  0.7818608E-02  0.8525198E-01
          1   -1    0    0  501    0  0.00000000000E+00  0.00000000000E+00  0.20967821012E+04  0.20967821012E+04  0.00000000000E+00 0. -1.
         -1   -1    0    0    0  501 -0.00000000000E+00 -0.00000000000E+00 -0.56861144658E+03  0.56861144658E+03  0.00000000000E+00 0.  1.
         23    2    1    2    0    0  0.31836231436E+03 -0.77693987500E+03  0.22990782877E+03  0.87522777815E+03  0.90420801456E+02 0.  0.
        254    2    1    2    0    0 -0.31836231436E+03  0.77693987500E+03  0.12982628258E+04  0.17901657696E+04  0.90233972826E+03 0.  0.
         23    2    4    4    0    0 -0.34319139246E+03  0.99903492212E+02  0.95762233130E+03  0.10262081013E+04  0.91112557518E+02 0.  0.
         23    2    4    4    0    0  0.24829078102E+02  0.67703638279E+03  0.34064049453E+03  0.76395766832E+03  0.92739558617E+02 0.  0.
          1    1    3    3  502    0  0.99445299549E+02 -0.15949188810E+03  0.72667790574E+02  0.20151336869E+03  0.00000000000E+00 0. -1.
         -1    1    3    3    0  502  0.21891701481E+03 -0.61744798690E+03  0.15724003820E+03  0.67371440946E+03  0.00000000000E+00 0.  1.
         13    1    5    5    0    0 -0.18461381036E+03  0.93804685856E+02  0.47535429567E+03  0.51850099756E+03  0.00000000000E+00 0. -1.
        -13    1    5    5    0    0 -0.15857758210E+03  0.60988063553E+01  0.48226803564E+03  0.50770710373E+03  0.00000000000E+00 0.  1.
          3    1    6    6  503    0 -0.35132770241E+02  0.21092076315E+03  0.10962238961E+03  0.24028930100E+03  0.00000000000E+00 0. -1.
         -3    1    6    6    0  503  0.59961848344E+02  0.46611561964E+03  0.23101810492E+03  0.52366836732E+03  0.00000000000E+00 0.  1.
<mgrwt>
<rscale>  0 0.21838080E+04</rscale>
<asrwt>0</asrwt>
<pdfrwt beam="1">  1        1 0.32258186E+00 0.21838080E+04</pdfrwt>
<pdfrwt beam="2">  1       -1 0.87478685E-01 0.21838080E+04</pdfrwt>
<totfact> 0.30065740E+00</totfact>
</mgrwt>
</event>
<event>
12    3  0.4688899E-008  0.1220615E+04  0.7818608E-02  0.9095001E-01
          1   -1    0    0  501    0  0.00000000000E+00  0.00000000000E+00  0.11358868009E+04  0.11358868009E+04  0.00000000000E+00 0. -1.
         -1   -1    0    0    0  501 -0.00000000000E+00 -0.00000000000E+00 -0.32791604447E+03  0.32791604447E+03  0.00000000000E+00 0.  1.
         23    2    1    2    0    0 -0.52575478469E+02 -0.20546480308E+03 -0.20202318060E+02  0.23099836755E+03  0.89286874274E+02 0.  0.
        254    2    1    2    0    0  0.52575478469E+02  0.20546480308E+03  0.82817307453E+03  0.12328044779E+04  0.88823210537E+03 0.  0.
         23    2    4    4    0    0  0.13252173401E+03  0.23014812943E+03  0.99008084299E+03  0.10291872087E+04  0.91848044812E+02 0.  0.
         23    2    4    4    0    0 -0.79946255540E+02 -0.24683326352E+02 -0.16190776846E+03  0.20361726921E+03  0.90803064133E+02 0.  0.
          2    1    3    3  502    0  0.11422033093E+02 -0.34857861765E+01  0.11719126097E+02  0.16731750109E+02  0.00000000000E+00 0. -1.
         -2    1    3    3    0  502 -0.63997511561E+02 -0.20197901690E+03 -0.31921444157E+02  0.21426661744E+03  0.00000000000E+00 0.  1.
         13    1    5    5    0    0  0.31306526965E+02  0.12426728423E+03  0.57231387989E+03  0.58648583416E+03  0.00000000000E+00 0.  1.
        -13    1    5    5    0    0  0.10121520704E+03  0.10588084520E+03  0.41776696310E+03  0.44270137449E+03  0.00000000000E+00 0. -1.
          4    1    6    6  503    0 -0.75893401929E+02  0.39452347284E+01 -0.57549222203E+02  0.95327259006E+02  0.00000000000E+00 0. -1.
         -4    1    6    6    0  503 -0.40528536114E+01 -0.28628561080E+02 -0.10435854626E+03  0.10829001020E+03  0.00000000000E+00 0.  1.
<mgrwt>
<rscale>  0 0.12206154E+04</rscale>
<asrwt>0</asrwt>
<pdfrwt beam="1">  1        1 0.17475181E+00 0.12206154E+04</pdfrwt>
<pdfrwt beam="2">  1       -1 0.50448623E-01 0.12206154E+04</pdfrwt>
<totfact> 0.46460711E+01</totfact>
</mgrwt>
</event>
<event>
12    3  0.4688899E-008  0.1758743E+04  0.7818608E-02  0.8728552E-01
         -1   -1    0    0    0  501 -0.00000000000E+00  0.00000000000E+00  0.87566794776E+03  0.87566794776E+03  0.00000000000E+00 0.  1.
          1   -1    0    0  501    0  0.00000000000E+00 -0.00000000000E+00 -0.88309105704E+03  0.88309105704E+03  0.00000000000E+00 0. -1.
         23    2    1    2    0    0 -0.37891816099E+01  0.42548958310E+03 -0.49561219019E+03  0.66246177273E+03  0.11031053462E+03 0.  0.
        254    2    1    2    0    0  0.37891816099E+01 -0.42548958310E+03  0.48818908091E+03  0.10962972321E+04  0.88458086069E+03 0.  0.
         23    2    4    4    0    0  0.94047111217E+02 -0.90537031514E+02  0.67430500806E+03  0.69280565044E+03  0.90832880515E+02 0.  0.
         23    2    4    4    0    0 -0.90257929607E+02 -0.33495255158E+03 -0.18611592715E+03  0.40349158163E+03  0.88468143631E+02 0.  0.
          1    1    3    3  502    0  0.49057770055E+02  0.28114178406E+03 -0.33649347304E+03  0.44122015474E+03  0.00000000000E+00 0. -1.
         -1    1    3    3    0  502 -0.52846951665E+02  0.14434779903E+03 -0.15911871715E+03  0.22124161800E+03  0.00000000000E+00 0.  1.
         13    1    5    5    0    0  0.16134805792E+02 -0.36148187130E+02  0.64769534268E+02  0.75908602675E+02  0.00000000000E+00 0.  1.
        -13    1    5    5    0    0  0.77912305425E+02 -0.54388844384E+02  0.60953547379E+03  0.61689704776E+03  0.00000000000E+00 0. -1.
          1    1    6    6  503    0 -0.93699468900E+02 -0.32952101479E+03 -0.16278780159E+03  0.37929349851E+03  0.00000000000E+00 0. -1.
         -1    1    6    6    0  503  0.34415392932E+01 -0.54315367891E+01 -0.23328125562E+02  0.24198083123E+02  0.00000000000E+00 0.  1.
<mgrwt>
<rscale>  0 0.17587433E+04</rscale>
<asrwt>0</asrwt>
<pdfrwt beam="1">  1        1 0.13586016E+00 0.17587433E+04</pdfrwt>
<pdfrwt beam="2">  1       -1 0.13471815E+00 0.17587433E+04</pdfrwt>
<totfact> 0.82416784E+00</totfact>
</mgrwt>
</event>
<event>
12    3  0.4688899E-008  0.1523187E+04  0.7818608E-02  0.8869178E-01
         -1   -1    0    0    0  501 -0.00000000000E+00  0.00000000000E+00  0.69172384067E+03  0.69172384067E+03  0.00000000000E+00 0.  1.
          1   -1    0    0  501    0  0.00000000000E+00 -0.00000000000E+00 -0.83852110394E+03  0.83852110394E+03  0.00000000000E+00 0. -1.
         23    2    1    2    0    0  0.15585930533E+03 -0.42236816076E+03 -0.23796153379E+03  0.51793042935E+03  0.94547616587E+02 0.  0.
        254    2    1    2    0    0 -0.15585930533E+03  0.42236816076E+03  0.91164270521E+02  0.10123145153E+04  0.90209908951E+03 0.  0.
         23    2    4    4    0    0  0.28026649717E+03  0.39878573914E+03 -0.13154087454E+03  0.51294015267E+03  0.90693017177E+02 0.  0.
         23    2    4    4    0    0 -0.43612580249E+03  0.23582421616E+02  0.22270514506E+03  0.49937436259E+03  0.94949071423E+02 0.  0.
          1    1    3    3  502    0 -0.10611202611E+02 -0.43448007827E+02 -0.11634441621E+02  0.46213496263E+02  0.00000000000E+00 0.  1.
         -1    1    3    3    0  502  0.16647050794E+03 -0.37892015293E+03 -0.22632709217E+03  0.47171693309E+03  0.00000000000E+00 0. -1.
         13    1    5    5    0    0  0.22811560869E+02  0.24290710782E+01 -0.29705965924E+01  0.23132058700E+02  0.00000000000E+00 0. -1.
        -13    1    5    5    0    0  0.25745493630E+03  0.39635666806E+03 -0.12857027795E+03  0.48980809397E+03  0.00000000000E+00 0.  1.
          3    1    6    6  503    0 -0.33210160315E+03  0.42575254104E+02  0.13145001939E+03  0.35969881105E+03  0.00000000000E+00 0. -1.
         -3    1    6    6    0  503 -0.10402419934E+03 -0.18992832488E+02  0.91255125671E+02  0.13967555153E+03  0.00000000000E+00 0.  1.
<mgrwt>
<rscale>  0 0.15231875E+04</rscale>
<asrwt>0</asrwt>
<pdfrwt beam="1">  1        1 0.12900325E+00 0.15231875E+04</pdfrwt>
<pdfrwt beam="2">  1       -1 0.10641905E+00 0.15231875E+04</pdfrwt>
<totfact> 0.16321729E+01</totfact>
</mgrwt>
</event>
<event>
12    3  0.4688899E-008  0.1259331E+04  0.7818608E-02  0.9062453E-01
         -1   -1    0    0    0  501 -0.00000000000E+00  0.00000000000E+00  0.39075365499E+03  0.39075365499E+03  0.00000000000E+00 0.  1.
          1   -1    0    0  501    0  0.00000000000E+00 -0.00000000000E+00 -0.10146514098E+04  0.10146514098E+04  0.00000000000E+00 0. -1.
         23    2    1    2    0    0  0.84767863344E+02  0.54040717243E+02 -0.48069160202E+03  0.49925059486E+03  0.89892994402E+02 0.  0.
        254    2    1    2    0    0 -0.84767863344E+02 -0.54040717243E+02 -0.14320615280E+03  0.90615446994E+03  0.88910175538E+03 0.  0.
         23    2    4    4    0    0 -0.35125719451E+03  0.12979357155E+03 -0.34110196217E+03  0.51541543762E+03  0.95260363343E+02 0.  0.
         23    2    4    4    0    0  0.26648933117E+03 -0.18383428880E+03  0.19789580937E+03  0.39073903233E+03  0.93287891240E+02 0.  0.
          1    1    3    3  502    0  0.74961119975E+02  0.50430819879E+01 -0.37353509954E+03  0.38101584321E+03  0.00000000000E+00 0. -1.
         -1    1    3    3    0  502  0.98067433684E+01  0.48997635255E+02 -0.10715650247E+03  0.11823475165E+03  0.00000000000E+00 0.  1.
         13    1    5    5    0    0 -0.18162531202E+03  0.11612201194E+03 -0.17581684958E+03  0.27817915130E+03  0.00000000000E+00 0. -1.
        -13    1    5    5    0    0 -0.16963188250E+03  0.13671559615E+02 -0.16528511259E+03  0.23723628632E+03  0.00000000000E+00 0.  1.
          3    1    6    6  503    0  0.16119992157E+03 -0.58152425616E+02  0.12008979977E+03  0.20925744748E+03  0.00000000000E+00 0. -1.
         -3    1    6    6    0  503  0.10528940960E+03 -0.12568186318E+03  0.77806009597E+02  0.18148158484E+03  0.00000000000E+00 0.  1.
<mgrwt>
<rscale>  0 0.12593312E+04</rscale>
<asrwt>0</asrwt>
<pdfrwt beam="1">  1        1 0.15610022E+00 0.12593312E+04</pdfrwt>
<pdfrwt beam="2">  1       -1 0.60115948E-01 0.12593312E+04</pdfrwt>
<totfact> 0.40750466E+01</totfact>
</mgrwt>
</event>
<event>
12    3  0.4688899E-008  0.2158782E+04  0.7818608E-02  0.8535782E-01
         -2   -1    0    0    0  501 -0.00000000000E+00  0.00000000000E+00  0.51391726925E+03  0.51391726925E+03  0.00000000000E+00 0.  1.
          2   -1    0    0  501    0  0.00000000000E+00 -0.00000000000E+00 -0.22670676439E+04  0.22670676439E+04  0.00000000000E+00 0. -1.
         23    2    1    2    0    0  0.44205418493E+03  0.76320369422E+03 -0.85404160006E+03  0.12310615842E+04  0.90740223906E+02 0.  0.
        254    2    1    2    0    0 -0.44205418493E+03 -0.76320369422E+03 -0.89910877454E+03  0.15499233289E+04  0.90331276737E+03 0.  0.
         23    2    4    4    0    0  0.10594567709E+03 -0.56490994338E+03 -0.15909339236E+03  0.60315990106E+03  0.90240944846E+02 0.  0.
         23    2    4    4    0    0 -0.54799986202E+03 -0.19829375084E+03 -0.74001538218E+03  0.94676342783E+03  0.95467072977E+02 0.  0.
          3    1    3    3  502    0  0.38750960029E+03  0.60953654922E+03 -0.67020785980E+03  0.98533094465E+03  0.00000000000E+00 0. -1.
         -3    1    3    3    0  502  0.54544584637E+02  0.15366714500E+03 -0.18383374027E+03  0.24573063958E+03  0.00000000000E+00 0.  1.
         13    1    5    5    0    0  0.72563037370E+02 -0.20646612651E+03 -0.89814991491E+02  0.23655948192E+03  0.00000000000E+00 0. -1.
        -13    1    5    5    0    0  0.33382639723E+02 -0.35844381687E+03 -0.69278400873E+02  0.36660041914E+03  0.00000000000E+00 0.  1.
          4    1    6    6  503    0 -0.23561729259E+03 -0.47205251836E+02 -0.25482316337E+03  0.35025517692E+03  0.00000000000E+00 0. -1.
         -4    1    6    6    0  503 -0.31238256943E+03 -0.15108849900E+03 -0.48519221881E+03  0.59650825091E+03  0.00000000000E+00 0.  1.
<mgrwt>
<rscale>  0 0.21587823E+04</rscale>
<asrwt>0</asrwt>
<pdfrwt beam="1">  1        2 0.34877964E+00 0.21587823E+04</pdfrwt>
<pdfrwt beam="2">  1       -2 0.79064195E-01 0.21587823E+04</pdfrwt>
<totfact> 0.61603977E+00</totfact>
</mgrwt>
</event>
<event>
12    3  0.4688899E-008  0.1211121E+04  0.7818608E-02  0.9103178E-01
          1   -1    0    0  501    0  0.00000000000E+00  0.00000000000E+00  0.26040561397E+03  0.26040561397E+03  0.00000000000E+00 0. -1.
         -1   -1    0    0    0  501 -0.00000000000E+00 -0.00000000000E+00 -0.14082003644E+04  0.14082003644E+04  0.00000000000E+00 0.  1.
         23    2    1    2    0    0 -0.22144666150E+03 -0.10898679161E+03 -0.32779969131E+03  0.42046626274E+03  0.91774156772E+02 0.  0.
        254    2    1    2    0    0  0.22144666150E+03  0.10898679161E+03 -0.81999505913E+03  0.12481397156E+04  0.90804411133E+03 0.  0.
         23    2    4    4    0    0  0.33578008078E+03 -0.86572411641E+02 -0.91535995599E+03  0.98250890552E+03  0.84834281435E+02 0.  0.
         23    2    4    4    0    0 -0.11433341928E+03  0.19555920325E+03  0.95364896852E+02  0.26563081012E+03  0.10074587333E+03 0.  0.
          2    1    3    3  502    0 -0.93245864692E+02 -0.46654159229E+02 -0.21404809903E+03  0.23809239919E+03  0.00000000000E+00 0. -1.
         -2    1    3    3    0  502 -0.12820079681E+03 -0.62332632376E+02 -0.11375159228E+03  0.18237386355E+03  0.00000000000E+00 0.  1.
         13    1    5    5    0    0  0.15520441243E+03 -0.57232242690E+01 -0.47496950527E+03  0.49971711585E+03  0.00000000000E+00 0. -1.
        -13    1    5    5    0    0  0.18057566834E+03 -0.80849187372E+02 -0.44039045071E+03  0.48279178967E+03  0.00000000000E+00 0.  1.
          1    1    6    6  503    0 -0.13013586283E+03  0.18086827214E+03  0.72801492194E+02  0.23441145861E+03  0.00000000000E+00 0. -1.
         -1    1    6    6    0  503  0.15802443549E+02  0.14690931105E+02  0.22563404658E+02  0.31219351509E+02  0.00000000000E+00 0.  1.
<mgrwt>
<rscale>  0 0.12111206E+04</rscale>
<asrwt>0</asrwt>
<pdfrwt beam="1">  1        1 0.40062403E-01 0.12111206E+04</pdfrwt>
<pdfrwt beam="2">  1       -1 0.21664621E+00 0.12111206E+04</pdfrwt>
<totfact> 0.12097191E+01</totfact>
</mgrwt>
</event>
<event>
12    3  0.4970753E-008  0.2722680E+04  0.7818608E-02  0.8327683E-01
         -3   -1    0    0    0  501 -0.00000000000E+00  0.00000000000E+00  0.12253653457E+04  0.12253653457E+04  0.00000000000E+00 0.  1.
          3   -1    0    0  501    0  0.00000000000E+00 -0.00000000000E+00 -0.15124030739E+04  0.15124030739E+04  0.00000000000E+00 0. -1.
         23    2    1    2    0    0 -0.76685261426E+03  0.72427356046E+03 -0.72171541649E+03  0.12825485021E+04  0.10687560786E+03 0.  0.
        254    2    1    2    0    0  0.76685261426E+03 -0.72427356046E+03  0.43467768831E+03  0.14552199174E+04  0.90337433708E+03 0.  0.
         23    2    4    4    0    0 -0.14734367737E+03  0.47313560390E+02  0.42159773193E+01  0.17999331948E+03  0.91820958031E+02 0.  0.
         23    2    4    4    0    0  0.91419629164E+03 -0.77158712085E+03  0.43046171099E+03  0.12752265979E+04  0.99015386176E+02 0.  0.
          2    1    3    3  502    0 -0.29941129033E+03  0.28968532177E+03 -0.22287575958E+03  0.47248101616E+03  0.00000000000E+00 0. -1.
         -2    1    3    3    0  502 -0.46744132394E+03  0.43458823868E+03 -0.49883965691E+03  0.81006748598E+03  0.00000000000E+00 0.  1.
         13    1    5    5    0    0 -0.14926600087E+03  0.49087163437E+02 -0.17516969286E+02  0.15810355101E+03  0.00000000000E+00 0. -1.
        -13    1    5    5    0    0  0.19223234954E+01 -0.17736030471E+01  0.21732946606E+02  0.21889768467E+02  0.00000000000E+00 0.  1.
          2    1    6    6  503    0  0.80187629410E+03 -0.65546803561E+03  0.40313633934E+03  0.11113788035E+04  0.00000000000E+00 0. -1.
         -2    1    6    6    0  503  0.11231999754E+03 -0.11611908524E+03  0.27325371657E+02  0.16384779443E+03  0.00000000000E+00 0.  1.
<mgrwt>
<rscale>  0 0.27226798E+04</rscale>
<asrwt>0</asrwt>
<pdfrwt beam="1">  1        3 0.23267740E+00 0.27226798E+04</pdfrwt>
<pdfrwt beam="2">  1       -3 0.18851775E+00 0.27226798E+04</pdfrwt>
<totfact> 0.36826979E-02</totfact>
</mgrwt>
</event>
<event>
12    3  0.4688899E-008  0.1623923E+04  0.7818608E-02  0.8805985E-01
          2   -1    0    0  501    0  0.00000000000E+00  0.00000000000E+00  0.54034957078E+03  0.54034957078E+03  0.00000000000E+00 0. -1.
         -2   -1    0    0    0  501 -0.00000000000E+00 -0.00000000000E+00 -0.12201014136E+04  0.12201014136E+04  0.00000000000E+00 0.  1.
         23    2    1    2    0    0 -0.49341035278E+03 -0.24183897366E+03 -0.10802472250E+03  0.56764529744E+03  0.92800741488E+02 0.  0.
        254    2    1    2    0    0  0.49341035278E+03  0.24183897366E+03 -0.57172712035E+03  0.11928056870E+04  0.89105198574E+03 0.  0.
         23    2    4    4    0    0  0.55793710709E+03  0.38554001940E+03 -0.10587631235E+03  0.69259054238E+03  0.92395583485E+02 0.  0.
         23    2    4    4    0    0 -0.64526754314E+02 -0.14370104574E+03 -0.46585080800E+03  0.50021514458E+03  0.91567040919E+02 0.  0.
          2    1    3    3  502    0 -0.31805352598E+03 -0.14405373643E+03 -0.11245419529E+03  0.36681803446E+03  0.00000000000E+00 0. -1.
         -2    1    3    3    0  502 -0.17535682680E+03 -0.97785237232E+02  0.44294727906E+01  0.20082726298E+03  0.00000000000E+00 0.  1.
         13    1    5    5    0    0  0.53012874324E+03  0.37975331243E+03 -0.85630162267E+02  0.65770934872E+03  0.00000000000E+00 0. -1.
        -13    1    5    5    0    0  0.27808363857E+02  0.57867069731E+01 -0.20246150082E+02  0.34881193660E+02  0.00000000000E+00 0.  1.
          3    1    6    6  503    0 -0.30505355258E+02 -0.16780106972E+02 -0.20715344055E+03  0.21005879325E+03  0.00000000000E+00 0. -1.
         -3    1    6    6    0  503 -0.34021399056E+02 -0.12692093877E+03 -0.25869736745E+03  0.29015635133E+03  0.00000000000E+00 0.  1.
<mgrwt>
<rscale>  0 0.16239228E+04</rscale>
<asrwt>0</asrwt>
<pdfrwt beam="1">  1        2 0.83130703E-01 0.16239228E+04</pdfrwt>
<pdfrwt beam="2">  1       -2 0.18770791E+00 0.16239228E+04</pdfrwt>
<totfact> 0.86339838E+00</totfact>
</mgrwt>
</event>
<event>
12    3  0.4688899E-008  0.1446456E+04  0.7818608E-02  0.8920861E-01
          2   -1    0    0  501    0  0.00000000000E+00  0.00000000000E+00  0.77947389981E+03  0.77947389981E+03  0.00000000000E+00 0. -1.
         -2   -1    0    0    0  501 -0.00000000000E+00 -0.00000000000E+00 -0.67104082733E+03  0.67104082733E+03  0.00000000000E+00 0.  1.
         23    2    1    2    0    0  0.12898990859E+03  0.42568257716E+03 -0.12736367355E+01  0.45417915097E+03  0.91831508811E+02 0.  0.
        254    2    1    2    0    0 -0.12898990859E+03 -0.42568257716E+03  0.10970670922E+03  0.99633557617E+03  0.88476266042E+03 0.  0.
         23    2    4    4    0    0  0.68406922161E+02 -0.63595936767E+03 -0.60830567074E+02  0.64907190515E+03  0.92033449542E+02 0.  0.
         23    2    4    4    0    0 -0.19739683075E+03  0.21027679051E+03  0.17053727629E+03  0.34726367102E+03  0.91253806455E+02 0.  0.
          3    1    3    3  502    0  0.12959703940E+03  0.43031599771E+03 -0.30986652157E+00  0.44940777310E+03  0.00000000000E+00 0. -1.
         -3    1    3    3    0  502 -0.60713081023E+00 -0.46334205466E+01 -0.96377021390E+00  0.47713778730E+01  0.00000000000E+00 0.  1.
         13    1    5    5    0    0  0.50956771543E+02 -0.12638607241E+03 -0.89017458019E+01  0.13656234087E+03  0.00000000000E+00 0.  1.
        -13    1    5    5    0    0  0.17450150618E+02 -0.50957329525E+03 -0.51928821272E+02  0.51250956427E+03  0.00000000000E+00 0. -1.
          3    1    6    6  503    0 -0.11562038796E+03  0.18226868429E+03  0.12767414722E+03  0.25078005354E+03  0.00000000000E+00 0. -1.
         -3    1    6    6    0  503 -0.81776442786E+02  0.28008106213E+02  0.42863129076E+02  0.96483617483E+02  0.00000000000E+00 0.  1.
<mgrwt>
<rscale>  0 0.14464561E+04</rscale>
<asrwt>0</asrwt>
<pdfrwt beam="1">  1        2 0.11991906E+00 0.14464561E+04</pdfrwt>
<pdfrwt beam="2">  1       -2 0.10323705E+00 0.14464561E+04</pdfrwt>
<totfact> 0.26482034E+01</totfact>
</mgrwt>
</event>
<event>
12    3  0.4688899E-008  0.1182227E+04  0.7818608E-02  0.9128557E-01
         -2   -1    0    0    0  501 -0.00000000000E+00  0.00000000000E+00  0.12477120789E+04  0.12477120789E+04  0.00000000000E+00 0.  1.
          2   -1    0    0  501    0  0.00000000000E+00 -0.00000000000E+00 -0.28004461271E+03  0.28004461271E+03  0.00000000000E+00 0. -1.
         23    2    1    2    0    0 -0.12268873195E+03  0.10822919247E+03  0.44599128942E+03  0.48306895793E+03  0.87643053515E+02 0.  0.
        254    2    1    2    0    0  0.12268873195E+03 -0.10822919247E+03  0.52167617681E+03  0.10446877337E+04  0.89020241770E+03 0.  0.
         23    2    4    4    0    0 -0.25895055166E+03  0.21642338877E+03  0.37851369787E+03  0.51544166128E+03  0.92266002938E+02 0.  0.
         23    2    4    4    0    0  0.38163928360E+03 -0.32465258124E+03  0.14316247894E+03  0.52924607243E+03  0.92509829256E+02 0.  0.
          3    1    3    3  502    0 -0.99213405682E+02  0.43643133579E+02  0.19792141657E+03  0.22565661992E+03  0.00000000000E+00 0. -1.
         -3    1    3    3    0  502 -0.23475326266E+02  0.64586058890E+02  0.24806987285E+03  0.25741233801E+03  0.00000000000E+00 0.  1.
         13    1    5    5    0    0 -0.25355798961E+02  0.68091410421E+02  0.90198259247E+02  0.11582349798E+03  0.00000000000E+00 0. -1.
        -13    1    5    5    0    0 -0.23359475270E+03  0.14833197835E+03  0.28831543863E+03  0.39961816330E+03  0.00000000000E+00 0.  1.
          1    1    6    6  503    0  0.21424982315E+03 -0.20915638023E+03  0.12700258789E+03  0.32523689127E+03  0.00000000000E+00 0. -1.
         -1    1    6    6    0  503  0.16738946045E+03 -0.11549620101E+03  0.16159891047E+02  0.20400918116E+03  0.00000000000E+00 0.  1.
<mgrwt>
<rscale>  0 0.11822268E+04</rscale>
<asrwt>0</asrwt>
<pdfrwt beam="1">  1        2 0.43083787E-01 0.11822268E+04</pdfrwt>
<pdfrwt beam="2">  1       -2 0.19195570E+00 0.11822268E+04</pdfrwt>
<totfact> 0.17600273E+01</totfact>
</mgrwt>
</event>
<event>
12    3  0.4688899E-008  0.1996256E+04  0.7818608E-02  0.8608373E-01
         -2   -1    0    0    0  501 -0.00000000000E+00  0.00000000000E+00  0.77777547870E+03  0.77777547870E+03  0.00000000000E+00 0.  1.
          2   -1    0    0  501    0  0.00000000000E+00 -0.00000000000E+00 -0.12809094361E+04  0.12809094361E+04  0.00000000000E+00 0. -1.
         23    2    1    2    0    0 -0.20469055955E+03  0.72641956295E+03 -0.44298959462E+03  0.87982998135E+03  0.90980264573E+02 0.  0.
        254    2    1    2    0    0  0.20469055955E+03 -0.72641956295E+03 -0.60144362783E+02  0.11788549335E+04  0.90360279058E+03 0.  0.
         23    2    4    4    0    0 -0.31812861324E+02 -0.70183126977E+03  0.27325058272E+03  0.75906324540E+03  0.89061440538E+02 0.  0.
         23    2    4    4    0    0  0.23650342087E+03 -0.24588293174E+02 -0.33339494551E+03  0.41979168805E+03  0.92381921488E+02 0.  0.
          1    1    3    3  502    0 -0.13802214668E+03  0.58882592366E+03 -0.32411675480E+03  0.68616160785E+03  0.00000000000E+00 0. -1.
         -1    1    3    3    0  502 -0.66668412867E+02  0.13759363929E+03 -0.11887283982E+03  0.19366837350E+03  0.00000000000E+00 0.  1.
         13    1    5    5    0    0 -0.24114679618E+02 -0.63607495265E+03  0.21798500414E+03  0.67282265508E+03  0.00000000000E+00 0.  1.
        -13    1    5    5    0    0 -0.76981817065E+01 -0.65756317119E+02  0.55265578583E+02  0.86240590320E+02  0.00000000000E+00 0. -1.
          4    1    6    6  503    0  0.29422049493E+01  0.14969087776E+02 -0.77803255470E+01  0.17124941589E+02  0.00000000000E+00 0. -1.
         -4    1    6    6    0  503  0.23356121592E+03 -0.39557380950E+02 -0.32561461996E+03  0.40266674646E+03  0.00000000000E+00 0.  1.
<mgrwt>
<rscale>  0 0.19962564E+04</rscale>
<asrwt>0</asrwt>
<pdfrwt beam="1">  1        2 0.19706299E+00 0.19962564E+04</pdfrwt>
<pdfrwt beam="2">  1       -2 0.11965777E+00 0.19962564E+04</pdfrwt>
<totfact> 0.84316730E+00</totfact>
</mgrwt>
</event>
<event>
12    3  0.4688899E-008  0.1823853E+04  0.7818608E-02  0.8693716E-01
         -2   -1    0    0    0  501 -0.00000000000E+00  0.00000000000E+00  0.25721155134E+03  0.25721155134E+03  0.00000000000E+00 0. -1.
          2   -1    0    0  501    0  0.00000000000E+00 -0.00000000000E+00 -0.32331766851E+04  0.32331766851E+04  0.00000000000E+00 0.  1.
         23    2    1    2    0    0 -0.22470363581E+03  0.63392259931E+03 -0.14332359939E+04  0.15859260250E+04  0.92985787705E+02 0.  0.
        254    2    1    2    0    0  0.22470363581E+03 -0.63392259931E+03 -0.15427291398E+04  0.19044622114E+04  0.89141097699E+03 0.  0.
         23    2    4    4    0    0 -0.28013522934E+03 -0.31886372614E+03 -0.10158262623E+04  0.11045698256E+04  0.89563842721E+02 0.  0.
         23    2    4    4    0    0  0.50483886515E+03 -0.31505887316E+03 -0.52690287751E+03  0.79989238576E+03  0.89871091863E+02 0.  0.
          1    1    3    3  502    0 -0.76875770902E+02  0.22247087288E+03 -0.60920349346E+03  0.65309422741E+03  0.00000000000E+00 0. -1.
         -1    1    3    3    0  502 -0.14782786491E+03  0.41145172643E+03 -0.82403250048E+03  0.93283179763E+03  0.00000000000E+00 0.  1.
         13    1    5    5    0    0 -0.35066296122E+02 -0.81048209602E+02 -0.15351641002E+03  0.17710377056E+03  0.00000000000E+00 0.  1.
        -13    1    5    5    0    0 -0.24506893321E+03 -0.23781551654E+03 -0.86230985227E+03  0.92746605504E+03  0.00000000000E+00 0. -1.
          4    1    6    6  503    0  0.46454982651E+03 -0.29068793245E+03 -0.44717733835E+03  0.70730021018E+03  0.00000000000E+00 0. -1.
         -4    1    6    6    0  503  0.40289038637E+02 -0.24370940715E+02 -0.79725539161E+02  0.92592175588E+02  0.00000000000E+00 0.  1.
<mgrwt>
<rscale>  0 0.18238535E+04</rscale>
<asrwt>0</asrwt>
<pdfrwt beam="1">  1        2 0.49741183E+00 0.18238535E+04</pdfrwt>
<pdfrwt beam="2">  1       -2 0.39571006E-01 0.18238535E+04</pdfrwt>
<totfact> 0.70584106E+00</totfact>
</mgrwt>
</event>
<event>
12    3  0.4688899E-008  0.1383875E+04  0.7818608E-02  0.8965574E-01
         -2   -1    0    0    0  501 -0.00000000000E+00  0.00000000000E+00  0.13138195622E+04  0.13138195622E+04  0.00000000000E+00 0.  1.
          2   -1    0    0  501    0  0.00000000000E+00 -0.00000000000E+00 -0.36441634950E+03  0.36441634950E+03  0.00000000000E+00 0. -1.
         23    2    1    2    0    0  0.25505295318E+03  0.37358292669E+02  0.63560652202E+03  0.69189996655E+03  0.91006933358E+02 0.  0.
        254    2    1    2    0    0 -0.25505295318E+03 -0.37358292669E+02  0.31379669070E+03  0.98633594517E+03  0.89885626364E+03 0.  0.
         23    2    4    4    0    0 -0.18172845262E+03  0.31342794181E+02 -0.29686041162E+03  0.36058191349E+03  0.88800963455E+02 0.  0.
         23    2    4    4    0    0 -0.73324500568E+02 -0.68701086850E+02  0.61065710232E+03  0.62575403168E+03  0.92572619253E+02 0.  0.
          3    1    3    3  502    0  0.17339600922E+03  0.62960213395E+02  0.38127709782E+03  0.42355919280E+03  0.00000000000E+00 0. -1.
         -3    1    3    3    0  502  0.81656943962E+02 -0.25601920727E+02  0.25432942420E+03  0.26834077375E+03  0.00000000000E+00 0.  1.
         13    1    5    5    0    0 -0.12690511854E+03  0.57191329275E+01 -0.12435153744E+03  0.17776648294E+03  0.00000000000E+00 0. -1.
        -13    1    5    5    0    0 -0.54823334074E+02  0.25623661254E+02 -0.17250887418E+03  0.18281543055E+03  0.00000000000E+00 0.  1.
          3    1    6    6  503    0 -0.57442693229E+02 -0.39755406514E+02  0.16906388557E+03  0.18292827216E+03  0.00000000000E+00 0. -1.
         -3    1    6    6    0  503 -0.15881807339E+02 -0.28945680336E+02  0.44159321675E+03  0.44282575952E+03  0.00000000000E+00 0.  1.
<mgrwt>
<rscale>  0 0.13838747E+04</rscale>
<asrwt>0</asrwt>
<pdfrwt beam="1">  1        2 0.56064055E-01 0.13838747E+04</pdfrwt>
<pdfrwt beam="2">  1       -2 0.20212608E+00 0.13838747E+04</pdfrwt>
<totfact> 0.11074242E+01</totfact>
</mgrwt>
</event>
<event>
12    3  0.4688899E-008  0.1201076E+04  0.7818608E-02  0.9111915E-01
         -1   -1    0    0    0  501 -0.00000000000E+00  0.00000000000E+00  0.43764403848E+03  0.43764403848E+03  0.00000000000E+00 0.  1.
          1   -1    0    0  501    0  0.00000000000E+00 -0.00000000000E+00 -0.82406210866E+03  0.82406210866E+03  0.00000000000E+00 0. -1.
         23    2    1    2    0    0 -0.70424695863E+02  0.19470860760E+03 -0.24686414352E+03  0.33499962431E+03  0.91715665339E+02 0.  0.
        254    2    1    2    0    0  0.70424695863E+02 -0.19470860760E+03 -0.13955392665E+03  0.92670652284E+03  0.89243408797E+03 0.  0.
         23    2    4    4    0    0 -0.20212123510E+03  0.11493075308E+03 -0.37048185081E+03  0.44675994954E+03  0.90970209700E+02 0.  0.
         23    2    4    4    0    0  0.27254593096E+03 -0.30963936067E+03  0.23092792416E+03  0.47994657329E+03  0.82844365516E+02 0.  0.
          3    1    3    3  502    0 -0.77903178077E+02  0.20116985148E+03 -0.22917640352E+03  0.31473804700E+03  0.00000000000E+00 0. -1.
         -3    1    3    3    0  502  0.74784822134E+01 -0.64612438780E+01 -0.17687740006E+02  0.20261577312E+02  0.00000000000E+00 0.  1.
         13    1    5    5    0    0 -0.20132989116E+03  0.83572372926E+02 -0.31600563722E+03  0.38389794131E+03  0.00000000000E+00 0. -1.
        -13    1    5    5    0    0 -0.79134393718E+00  0.31358380150E+02 -0.54476213595E+02  0.62862008228E+02  0.00000000000E+00 0.  1.
          3    1    6    6  503    0  0.26414918508E+03 -0.26370541704E+03  0.21420261713E+03  0.43034648847E+03  0.00000000000E+00 0. -1.
         -3    1    6    6    0  503  0.83967458843E+01 -0.45933943634E+02  0.16725307025E+02  0.49600084821E+02  0.00000000000E+00 0.  1.
<mgrwt>
<rscale>  0 0.12010760E+04</rscale>
<asrwt>0</asrwt>
<pdfrwt beam="1">  1        1 0.12677879E+00 0.12010760E+04</pdfrwt>
<pdfrwt beam="2">  1       -1 0.67329852E-01 0.12010760E+04</pdfrwt>
<totfact> 0.46606782E+01</totfact>
</mgrwt>
</event>
<event>
12    3  0.4688899E-008  0.2393147E+04  0.7818608E-02  0.8442074E-01
          2   -1    0    0  501    0  0.00000000000E+00  0.00000000000E+00  0.20689539443E+04  0.20689539443E+04  0.00000000000E+00 0. -1.
         -2   -1    0    0    0  501 -0.00000000000E+00 -0.00000000000E+00 -0.69203499826E+03  0.69203499826E+03  0.00000000000E+00 0.  1.
         23    2    1    2    0    0 -0.43644702397E+03 -0.45069865728E+03 -0.34318142887E+03  0.72075755766E+03  0.90014884267E+02 0.  0.
        254    2    1    2    0    0  0.43644702397E+03  0.45069865728E+03  0.17201003749E+04  0.20402313849E+04  0.90010194964E+03 0.  0.
         23    2    4    4    0    0  0.60376284132E+02 -0.11557244809E+02 -0.83208331775E+02  0.13891761149E+03  0.92712516479E+02 0.  0.
         23    2    4    4    0    0  0.37607073984E+03  0.46225590209E+03  0.18033087067E+04  0.19013137734E+04  0.89230336623E+02 0.  0.
          3    1    3    3  502    0 -0.12252143208E+02 -0.12240226608E+02  0.53765243638E+01  0.18134088751E+02  0.00000000000E+00 0. -1.
         -3    1    3    3    0  502 -0.42419488077E+03 -0.43845843067E+03 -0.34855795324E+03  0.70262346891E+03  0.00000000000E+00 0.  1.
         13    1    5    5    0    0  0.50601993943E+02  0.38528647029E+01  0.29633270699E+01  0.50834905967E+02  0.00000000000E+00 0.  1.
        -13    1    5    5    0    0  0.97742901892E+01 -0.15410109511E+02 -0.86171658845E+02  0.88082705521E+02  0.00000000000E+00 0. -1.
          1    1    6    6  503    0  0.32332584851E+03  0.37712195221E+03  0.13917263798E+04  0.14777221956E+04  0.00000000000E+00 0. -1.
         -1    1    6    6    0  503  0.52744891330E+02  0.85133949881E+02  0.41158232688E+03  0.42359157780E+03  0.00000000000E+00 0.  1.
<mgrwt>
<rscale>  0 0.23931473E+04</rscale>
<asrwt>0</asrwt>
<pdfrwt beam="1">  1        2 0.31830060E+00 0.23931473E+04</pdfrwt>
<pdfrwt beam="2">  1       -2 0.10646692E+00 0.23931473E+04</pdfrwt>
<totfact> 0.39114879E+00</totfact>
</mgrwt>
</event>
<event>
12    3  0.4688899E-008  0.1077438E+04  0.7818608E-02  0.9227465E-01
         -2   -1    0    0    0  501 -0.00000000000E+00  0.00000000000E+00  0.47014535296E+03  0.47014535296E+03  0.00000000000E+00 0. -1.
          2   -1    0    0  501    0  0.00000000000E+00 -0.00000000000E+00 -0.61729489948E+03  0.61729489948E+03  0.00000000000E+00 0.  1.
         23    2    1    2    0    0  0.93686106737E+02 -0.52593927625E+02  0.64942796131E+02  0.15553346186E+03  0.91814395226E+02 0.  0.
        254    2    1    2    0    0 -0.93686106737E+02  0.52593927625E+02 -0.21209234265E+03  0.93190679059E+03  0.90106819759E+03 0.  0.
         23    2    4    4    0    0  0.21359084281E+03  0.79272694328E+02 -0.46307336926E+03  0.52479775389E+03  0.95239324693E+02 0.  0.
         23    2    4    4    0    0 -0.30727694955E+03 -0.26678766703E+02  0.25098102661E+03  0.40710903670E+03  0.87266326414E+02 0.  0.
          2    1    3    3  502    0  0.36969624548E+02 -0.54513055745E+02  0.72877874361E+02  0.98232433327E+02  0.00000000000E+00 0. -1.
         -2    1    3    3    0  502  0.56716482189E+02  0.19191281197E+01 -0.79350782303E+01  0.57301028535E+02  0.00000000000E+00 0.  1.
         13    1    5    5    0    0  0.14192535704E+03  0.69588360358E+02 -0.21798837503E+03  0.26926618525E+03  0.00000000000E+00 0.  1.
        -13    1    5    5    0    0  0.71665485769E+02  0.96843339696E+01 -0.24508499423E+03  0.25553156864E+03  0.00000000000E+00 0. -1.
          3    1    6    6  503    0 -0.11675043425E+03  0.21609513374E+02  0.59910285983E+02  0.13299201981E+03  0.00000000000E+00 0. -1.
         -3    1    6    6    0  503 -0.19052651530E+03 -0.48288280077E+02  0.19107074063E+03  0.27411701689E+03  0.00000000000E+00 0.  1.
<mgrwt>
<rscale>  0 0.10774383E+04</rscale>
<asrwt>0</asrwt>
<pdfrwt beam="1">  1        2 0.94968446E-01 0.10774383E+04</pdfrwt>
<pdfrwt beam="2">  1       -2 0.72330054E-01 0.10774383E+04</pdfrwt>
<totfact> 0.82459669E+01</totfact>
</mgrwt>
</event>
<event>
12    3  0.4688899E-008  0.1313563E+04  0.7818608E-02  0.9018878E-01
         -3   -1    0    0    0  501 -0.00000000000E+00  0.00000000000E+00  0.16927707969E+03  0.16927707969E+03  0.00000000000E+00 0.  1.
          3   -1    0    0  501    0  0.00000000000E+00 -0.00000000000E+00 -0.25482601646E+04  0.25482601646E+04  0.00000000000E+00 0. -1.
         23    2    1    2    0    0 -0.21925127953E+03 -0.19123293856E+03 -0.27983012315E+03  0.41395692897E+03  0.91729389238E+02 0.  0.
        254    2    1    2    0    0  0.21925127953E+03  0.19123293856E+03 -0.20991529617E+04  0.23035803153E+04  0.90299388257E+03 0.  0.
         23    2    4    4    0    0  0.24643725290E+03 -0.32710581980E+03 -0.85570577194E+03  0.95310731766E+03  0.91932876996E+02 0.  0.
         23    2    4    4    0    0 -0.27185973372E+02  0.51833875836E+03 -0.12434471898E+04  0.13504729977E+04  0.90566318293E+02 0.  0.
          1    1    3    3  502    0 -0.58281445159E+02 -0.10784472775E+03 -0.95265141646E+02  0.15525031197E+03  0.00000000000E+00 0. -1.
         -1    1    3    3    0  502 -0.16096983437E+03 -0.83388210807E+02 -0.18456498151E+03  0.25870661700E+03  0.00000000000E+00 0.  1.
         13    1    5    5    0    0  0.15431578590E+03 -0.23858915592E+03 -0.66935734473E+03  0.72717082041E+03  0.00000000000E+00 0.  1.
        -13    1    5    5    0    0  0.92121467005E+02 -0.88516663885E+02 -0.18634842721E+03  0.22593649725E+03  0.00000000000E+00 0. -1.
          1    1    6    6  503    0  0.24135795945E+01  0.20608855579E+02 -0.11385340661E+03  0.11572877124E+03  0.00000000000E+00 0. -1.
         -1    1    6    6    0  503 -0.29599552966E+02  0.49772990278E+03 -0.11295937832E+04  0.12347442264E+04  0.00000000000E+00 0.  1.
<mgrwt>
<rscale>  0 0.13135632E+04</rscale>
<asrwt>0</asrwt>
<pdfrwt beam="1">  1        3 0.39203998E+00 0.13135632E+04</pdfrwt>
<pdfrwt beam="2">  1       -3 0.26042630E-01 0.13135632E+04</pdfrwt>
<totfact> 0.45203628E-01</totfact>
</mgrwt>
</event>
<event>
12    3  0.4688899E-008  0.1532670E+04  0.7818608E-02  0.8863014E-01
         -2   -1    0    0    0  501 -0.00000000000E+00  0.00000000000E+00  0.13637818484E+03  0.13637818484E+03  0.00000000000E+00 0.  1.
          2   -1    0    0  501    0  0.00000000000E+00 -0.00000000000E+00 -0.43061816003E+04  0.43061816003E+04  0.00000000000E+00 0. -1.
         23    2    1    2    0    0  0.90245875515E+02 -0.36578183001E+03 -0.23231927491E+04  0.23552983170E+04  0.90911757468E+02 0.  0.
        254    2    1    2    0    0 -0.90245875515E+02  0.36578183001E+03 -0.18466106664E+04  0.20872614681E+04  0.89707793299E+03 0.  0.
         23    2    4    4    0    0 -0.11416924517E+03  0.62896685695E+03 -0.15469120193E+04  0.16769012009E+04  0.10211228304E+03 0.  0.
         23    2    4    4    0    0  0.23923369656E+02 -0.26318502694E+03 -0.29969864706E+03  0.41036026722E+03  0.93475043953E+02 0.  0.
          2    1    3    3  502    0  0.10072456977E+03 -0.26780328422E+03 -0.15936019338E+04  0.16190834325E+04  0.00000000000E+00 0. -1.
         -2    1    3    3    0  502 -0.10478694256E+02 -0.97978545784E+02 -0.72959081524E+03  0.73621488450E+03  0.00000000000E+00 0.  1.
         13    1    5    5    0    0 -0.35958528288E+02  0.45300474032E+03 -0.10606375009E+04  0.11538883043E+04  0.00000000000E+00 0.  1.
        -13    1    5    5    0    0 -0.78210716883E+02  0.17596211663E+03 -0.48627451843E+03  0.52301289659E+03  0.00000000000E+00 0. -1.
          3    1    6    6  503    0  0.38070221915E+00  0.78217201281E+01 -0.12756810620E+02  0.14968649142E+02  0.00000000000E+00 0. -1.
         -3    1    6    6    0  503  0.23542667437E+02 -0.27100674707E+03 -0.28694183644E+03  0.39539161808E+03  0.00000000000E+00 0.  1.
<mgrwt>
<rscale>  0 0.15326699E+04</rscale>
<asrwt>0</asrwt>
<pdfrwt beam="1">  1        2 0.66248952E+00 0.15326699E+04</pdfrwt>
<pdfrwt beam="2">  1       -2 0.20981258E-01 0.15326699E+04</pdfrwt>
<totfact> 0.36499378E+00</totfact>
</mgrwt>
</event>
<event>
12    3  0.4688899E-008  0.1200256E+04  0.7818608E-02  0.9112632E-01
         -2   -1    0    0    0  501 -0.00000000000E+00  0.00000000000E+00  0.29182735290E+03  0.29182735290E+03  0.00000000000E+00 0. -1.
          2   -1    0    0  501    0  0.00000000000E+00 -0.00000000000E+00 -0.12341326546E+04  0.12341326546E+04  0.00000000000E+00 0.  1.
         23    2    1    2    0    0  0.21401786632E+03  0.82943418308E+02 -0.31613212497E+03  0.40054509836E+03  0.88394556607E+02 0.  0.
        254    2    1    2    0    0 -0.21401786632E+03 -0.82943418308E+02 -0.62617317677E+03  0.11254149092E+04  0.90652226269E+03 0.  0.
         23    2    4    4    0    0 -0.53660283315E+03 -0.18797907631E+03 -0.45807993057E+03  0.73617025714E+03  0.93971756625E+02 0.  0.
         23    2    4    4    0    0  0.32258496683E+03  0.10503565800E+03 -0.16809324620E+03  0.38924465203E+03  0.90346607288E+02 0.  0.
          3    1    3    3  502    0  0.13377936196E+03  0.31904373123E+02 -0.11978809369E+03  0.18238419367E+03  0.00000000000E+00 0. -1.
         -3    1    3    3    0  502  0.80238504357E+02  0.51039045186E+02 -0.19634403128E+03  0.21816090469E+03  0.00000000000E+00 0.  1.
         13    1    5    5    0    0 -0.85984749120E+02 -0.21625278584E+00 -0.47127620157E+02  0.98053232625E+02  0.00000000000E+00 0. -1.
        -13    1    5    5    0    0 -0.45061808403E+03 -0.18776282352E+03 -0.41095231041E+03  0.63811702452E+03  0.00000000000E+00 0.  1.
          1    1    6    6  503    0  0.11929587490E+02 -0.37107783650E+01  0.90846256637E+01  0.15447179587E+02  0.00000000000E+00 0. -1.
         -1    1    6    6    0  503  0.31065537934E+03  0.10874643636E+03 -0.17717787186E+03  0.37379747245E+03  0.00000000000E+00 0.  1.
<mgrwt>
<rscale>  0 0.12002561E+04</rscale>
<asrwt>0</asrwt>
<pdfrwt beam="1">  1        2 0.18986657E+00 0.12002561E+04</pdfrwt>
<pdfrwt beam="2">  1       -2 0.44896515E-01 0.12002561E+04</pdfrwt>
<totfact> 0.83868266E+01</totfact>
</mgrwt>
</event>
<event>
12    3  0.4688899E-008  0.1353157E+04  0.7818608E-02  0.8988441E-01
          1   -1    0    0  501    0  0.00000000000E+00  0.00000000000E+00  0.68602092744E+03  0.68602092744E+03  0.00000000000E+00 0. -1.
         -1   -1    0    0    0  501 -0.00000000000E+00 -0.00000000000E+00 -0.66726634576E+03  0.66726634576E+03  0.00000000000E+00 0.  1.
         23    2    1    2    0    0  0.13367546183E+03  0.30847546145E+03 -0.13942241656E+03  0.37897971135E+03  0.10564455481E+03 0.  0.
        254    2    1    2    0    0 -0.13367546183E+03 -0.30847546145E+03  0.15817699823E+03  0.97430756185E+03  0.90068253169E+03 0.  0.
         23    2    4    4    0    0  0.24200952748E+02 -0.15359674277E+03 -0.36080784175E+03  0.40321138411E+03  0.90661326415E+02 0.  0.
         23    2    4    4    0    0 -0.15787641458E+03 -0.15487871868E+03  0.51898483998E+03  0.57109617774E+03  0.88843684704E+02 0.  0.
          2    1    3    3  502    0  0.11692072951E+02  0.78776069234E+02  0.79715872730E+01  0.80036990558E+02  0.00000000000E+00 0. -1.
         -2    1    3    3    0  502  0.12198338888E+03  0.22969939222E+03 -0.14739400383E+03  0.29894272079E+03  0.00000000000E+00 0.  1.
         13    1    5    5    0    0  0.51747592056E+02 -0.11673195710E+03 -0.21234173001E+03  0.24777645852E+03  0.00000000000E+00 0. -1.
        -13    1    5    5    0    0 -0.27546639307E+02 -0.36864785664E+02 -0.14846611174E+03  0.15543492559E+03  0.00000000000E+00 0.  1.
          4    1    6    6  503    0 -0.15697159945E+03 -0.12028616331E+03  0.47899189741E+03  0.51821046101E+03  0.00000000000E+00 0. -1.
         -4    1    6    6    0  503 -0.90481512675E+00 -0.34592555375E+02  0.39992942572E+02  0.52885716723E+02  0.00000000000E+00 0.  1.
<mgrwt>
<rscale>  0 0.13531573E+04</rscale>
<asrwt>0</asrwt>
<pdfrwt beam="1">  1        1 0.10554168E+00 0.13531573E+04</pdfrwt>
<pdfrwt beam="2">  1       -1 0.10265636E+00 0.13531573E+04</pdfrwt>
<totfact> 0.24676157E+01</totfact>
</mgrwt>
</event>
<event>
12    3  0.4688899E-008  0.2378568E+04  0.7818608E-02  0.8447571E-01
         -2   -1    0    0    0  501 -0.00000000000E+00  0.00000000000E+00  0.40737266787E+03  0.40737266787E+03  0.00000000000E+00 0.  1.
          2   -1    0    0  501    0  0.00000000000E+00 -0.00000000000E+00 -0.34719952992E+04  0.34719952992E+04  0.00000000000E+00 0. -1.
         23    2    1    2    0    0  0.11655798302E+03  0.46773491720E+03 -0.27729947542E+04  0.28159983182E+04  0.89358296087E+02 0.  0.
        254    2    1    2    0    0 -0.11655798302E+03 -0.46773491720E+03 -0.29162787711E+03  0.10633696489E+04  0.90185723662E+03 0.  0.
         23    2    4    4    0    0 -0.44617932064E+03 -0.49297870142E+02 -0.24898914832E+03  0.52210971592E+03  0.95376586786E+02 0.  0.
         23    2    4    4    0    0  0.32962133762E+03 -0.41843704706E+03 -0.42638728797E+02  0.54125993295E+03  0.86049202570E+02 0.  0.
          3    1    3    3  502    0  0.12812756956E+03  0.42055613784E+03 -0.25651604404E+04  0.26025626264E+04  0.00000000000E+00 0. -1.
         -3    1    3    3    0  502 -0.11569586533E+02  0.47178779356E+02 -0.20783431380E+03  0.21343569183E+03  0.00000000000E+00 0.  1.
         13    1    5    5    0    0 -0.22405718730E+03 -0.42281283722E+02 -0.17653406661E+03  0.28836367109E+03  0.00000000000E+00 0.  1.
        -13    1    5    5    0    0 -0.22212213334E+03 -0.70165864195E+01 -0.72455081710E+02  0.23374604482E+03  0.00000000000E+00 0. -1.
          4    1    6    6  503    0  0.29947110149E+03 -0.36835455264E+03 -0.11148775046E+02  0.47486030815E+03  0.00000000000E+00 0.  1.
         -4    1    6    6    0  503  0.30150236126E+02 -0.50082494423E+02 -0.31489953751E+02  0.66399624798E+02  0.00000000000E+00 0. -1.
<mgrwt>
<rscale>  0 0.23785676E+04</rscale>
<asrwt>0</asrwt>
<pdfrwt beam="1">  1        2 0.53415315E+00 0.23785676E+04</pdfrwt>
<pdfrwt beam="2">  1       -2 0.62672715E-01 0.23785676E+04</pdfrwt>
<totfact> 0.18120468E+00</totfact>
</mgrwt>
</event>
<event>
12    3  0.4688899E-008  0.1330117E+04  0.7818608E-02  0.9006017E-01
         -2   -1    0    0    0  501 -0.00000000000E+00  0.00000000000E+00  0.15952857666E+03  0.15952857666E+03  0.00000000000E+00 0.  1.
          2   -1    0    0  501    0  0.00000000000E+00 -0.00000000000E+00 -0.27725614848E+04  0.27725614848E+04  0.00000000000E+00 0. -1.
         23    2    1    2    0    0 -0.12819072123E+03 -0.79270639154E+02 -0.13025450151E+04  0.13144911173E+04  0.92448288097E+02 0.  0.
        254    2    1    2    0    0  0.12819072123E+03  0.79270639154E+02 -0.13104878930E+04  0.16175989441E+04  0.93623241289E+03 0.  0.
         23    2    4    4    0    0 -0.98910025032E+02  0.44898795827E+03 -0.89010269708E+03  0.10064189095E+04  0.96035568136E+02 0.  0.
         23    2    4    4    0    0  0.22710074626E+03 -0.36971731911E+03 -0.42038519597E+03  0.61118003461E+03  0.92475276233E+02 0.  0.
          4    1    3    3  502    0 -0.19855902742E+02  0.18889649422E+02 -0.31415662363E+03  0.31534974219E+03  0.00000000000E+00 0. -1.
         -4    1    3    3    0  502 -0.10833481849E+03 -0.98160288576E+02 -0.98838839144E+03  0.99914137512E+03  0.00000000000E+00 0.  1.
         13    1    5    5    0    0  0.82472453182E+01  0.73786691092E+02 -0.20438578227E+03  0.21745353718E+03  0.00000000000E+00 0. -1.
        -13    1    5    5    0    0 -0.10715727035E+03  0.37520126717E+03 -0.68571691481E+03  0.78896537233E+03  0.00000000000E+00 0.  1.
          4    1    6    6  503    0  0.22502835514E+02 -0.57964488388E+02 -0.23162104281E+02  0.66353165674E+02  0.00000000000E+00 0. -1.
         -4    1    6    6    0  503  0.20459791075E+03 -0.31175283073E+03 -0.39722309169E+03  0.54482686894E+03  0.00000000000E+00 0.  1.
<mgrwt>
<rscale>  0 0.13301170E+04</rscale>
<asrwt>0</asrwt>
<pdfrwt beam="1">  1        2 0.42654791E+00 0.13301170E+04</pdfrwt>
<pdfrwt beam="2">  1       -2 0.24542858E-01 0.13301170E+04</pdfrwt>
<totfact> 0.35121283E+01</totfact>
</mgrwt>
</event>
<event>
12    3  0.4688899E-008  0.1549174E+04  0.7818608E-02  0.8852396E-01
          1   -1    0    0  501    0  0.00000000000E+00  0.00000000000E+00  0.21108278253E+04  0.21108278253E+04  0.00000000000E+00 0. -1.
         -1   -1    0    0    0  501 -0.00000000000E+00 -0.00000000000E+00 -0.28424144501E+03  0.28424144501E+03  0.00000000000E+00 0.  1.
         23    2    1    2    0    0  0.12280191522E+03  0.41313659966E+03  0.18430648821E+03  0.47753347728E+03  0.91143732451E+02 0.  0.
        254    2    1    2    0    0 -0.12280191522E+03 -0.41313659966E+03  0.16422798921E+04  0.19175357930E+04  0.89112182851E+03 0.  0.
         23    2    4    4    0    0 -0.41706955273E+03 -0.32341446072E+03  0.14447982653E+04  0.15407930133E+04  0.89761669891E+02 0.  0.
         23    2    4    4    0    0  0.29426763751E+03 -0.89722138938E+02  0.19748162680E+03  0.37674277969E+03  0.91063848047E+02 0.  0.
          1    1    3    3  502    0  0.30581312186E+02  0.63602088649E+02 -0.25142484670E+01  0.70617021892E+02  0.00000000000E+00 0. -1.
         -1    1    3    3    0  502  0.92220603033E+02  0.34953451101E+03  0.18682073668E+03  0.40691645539E+03  0.00000000000E+00 0.  1.
         13    1    5    5    0    0 -0.22131901407E+03 -0.16416826060E+03  0.62535868028E+03  0.68337895986E+03  0.00000000000E+00 0. -1.
        -13    1    5    5    0    0 -0.19575053866E+03 -0.15924620012E+03  0.81943958501E+03  0.85741405348E+03  0.00000000000E+00 0.  1.
          4    1    6    6  503    0  0.13178368285E+03 -0.63624890562E+02  0.13973515846E+03  0.20233877601E+03  0.00000000000E+00 0. -1.
         -4    1    6    6    0  503  0.16248395466E+03 -0.26097248377E+02  0.57746468337E+02  0.17440400368E+03  0.00000000000E+00 0.  1.
<mgrwt>
<rscale>  0 0.15491737E+04</rscale>
<asrwt>0</asrwt>
<pdfrwt beam="1">  1        1 0.32474273E+00 0.15491737E+04</pdfrwt>
<pdfrwt beam="2">  1       -1 0.43729454E-01 0.15491737E+04</pdfrwt>
<totfact> 0.12482211E+01</totfact>
</mgrwt>
</event>
<event>
12    3  0.4688899E-008  0.1498306E+04  0.7818608E-02  0.8885580E-01
         -1   -1    0    0    0  501 -0.00000000000E+00  0.00000000000E+00  0.50601426865E+03  0.50601426865E+03  0.00000000000E+00 0.  1.
          1   -1    0    0  501    0  0.00000000000E+00 -0.00000000000E+00 -0.11091187612E+04  0.11091187612E+04  0.00000000000E+00 0. -1.
         23    2    1    2    0    0 -0.14704917220E+03  0.44865711560E+03 -0.12715785029E+03  0.49711356024E+03  0.89644333119E+02 0.  0.
        254    2    1    2    0    0  0.14704917220E+03 -0.44865711560E+03 -0.47594664227E+03  0.11180194696E+04  0.89472099661E+03 0.  0.
         23    2    4    4    0    0  0.16721996472E+03 -0.13866330973E+02  0.22074749432E+03  0.29178883399E+03  0.90865150967E+02 0.  0.
         23    2    4    4    0    0 -0.20170792519E+02 -0.43479078463E+03 -0.69669413659E+03  0.82623063564E+03  0.88455955423E+02 0.  0.
          3    1    3    3  502    0 -0.13706946726E+03  0.30005641303E+03 -0.10710997468E+03  0.34683488367E+03  0.00000000000E+00 0. -1.
         -3    1    3    3    0  502 -0.99797049417E+01  0.14860070257E+03 -0.20047875615E+02  0.15027867657E+03  0.00000000000E+00 0.  1.
         13    1    5    5    0    0  0.29175500670E+02 -0.28985783012E+02  0.15447049190E+02  0.43931728680E+02  0.00000000000E+00 0.  1.
        -13    1    5    5    0    0  0.13804446405E+03  0.15119452039E+02  0.20530044513E+03  0.24785710531E+03  0.00000000000E+00 0. -1.
          3    1    6    6  503    0 -0.46222934906E+02 -0.38364068321E+03 -0.61701734699E+03  0.72802962852E+03  0.00000000000E+00 0. -1.
         -3    1    6    6    0  503  0.26052142387E+02 -0.51150101422E+02 -0.79676789597E+02  0.98201007118E+02  0.00000000000E+00 0.  1.
<mgrwt>
<rscale>  0 0.14983056E+04</rscale>
<asrwt>0</asrwt>
<pdfrwt beam="1">  1        1 0.17063365E+00 0.14983056E+04</pdfrwt>
<pdfrwt beam="2">  1       -1 0.77848350E-01 0.14983056E+04</pdfrwt>
<totfact> 0.19960451E+01</totfact>
</mgrwt>
</event>
<event>
12    3  0.4688899E-008  0.1612528E+04  0.7818608E-02  0.8812888E-01
          2   -1    0    0  501    0  0.00000000000E+00  0.00000000000E+00  0.16058874388E+04  0.16058874388E+04  0.00000000000E+00 0. -1.
         -2   -1    0    0    0  501 -0.00000000000E+00 -0.00000000000E+00 -0.40479922567E+03  0.40479922567E+03  0.00000000000E+00 0.  1.
         23    2    1    2    0    0 -0.51184132777E+02 -0.20128695596E+03  0.10390990674E+04  0.10636477627E+04  0.92105575427E+02 0.  0.
        254    2    1    2    0    0  0.51184132777E+02  0.20128695596E+03  0.16198914576E+03  0.94703890184E+03  0.90967353714E+03 0.  0.
         23    2    4    4    0    0 -0.17227904661E+03 -0.30904158924E+03  0.10328397291E+03  0.37983897221E+03  0.91778494035E+02 0.  0.
         23    2    4    4    0    0  0.22346317939E+03  0.51032854519E+03  0.58705172843E+02  0.56719992963E+03  0.88873203338E+02 0.  0.
          3    1    3    3  502    0 -0.36198992799E+02 -0.20597073542E+03  0.91704256129E+03  0.94058565274E+03  0.00000000000E+00 0. -1.
         -3    1    3    3    0  502 -0.14985139979E+02  0.46837794599E+01  0.12205650612E+03  0.12306210991E+03  0.00000000000E+00 0.  1.
         13    1    5    5    0    0 -0.41918496916E+02 -0.48541985654E+02 -0.14290017826E+02  0.65709126949E+02  0.00000000000E+00 0.  1.
        -13    1    5    5    0    0 -0.13036054970E+03 -0.26049960359E+03  0.11757399074E+03  0.31412984526E+03  0.00000000000E+00 0. -1.
          3    1    6    6  503    0  0.19911923898E+03  0.47340873116E+03  0.29955083983E+02  0.51445272390E+03  0.00000000000E+00 0. -1.
         -3    1    6    6    0  503  0.24343940411E+02  0.36919814032E+02  0.28750088860E+02  0.52747205730E+02  0.00000000000E+00 0.  1.
<mgrwt>
<rscale>  0 0.16125284E+04</rscale>
<asrwt>0</asrwt>
<pdfrwt beam="1">  1        2 0.24705960E+00 0.16125284E+04</pdfrwt>
<pdfrwt beam="2">  1       -2 0.62276805E-01 0.16125284E+04</pdfrwt>
<totfact> 0.25367964E+01</totfact>
</mgrwt>
</event>
<event>
12    3  0.4688899E-008  0.1318143E+04  0.7818608E-02  0.9015300E-01
         -2   -1    0    0    0  501 -0.00000000000E+00  0.00000000000E+00  0.78844995268E+03  0.78844995268E+03  0.00000000000E+00 0.  1.
          2   -1    0    0  501    0  0.00000000000E+00 -0.00000000000E+00 -0.55092292343E+03  0.55092292343E+03  0.00000000000E+00 0. -1.
         23    2    1    2    0    0 -0.16812236590E+03 -0.21035324274E+03 -0.15141341516E+03  0.32193785069E+03  0.90577816120E+02 0.  0.
        254    2    1    2    0    0  0.16812236590E+03  0.21035324274E+03  0.38894044440E+03  0.10174350254E+04  0.90076952936E+03 0.  0.
         23    2    4    4    0    0 -0.33314834133E+03  0.19902122806E+03  0.43203079541E+02  0.40179167135E+03  0.94724730333E+02 0.  0.
         23    2    4    4    0    0  0.50127070722E+03  0.11332014676E+02  0.34573736486E+03  0.61564335407E+03  0.89898150560E+02 0.  0.
          3    1    3    3  502    0 -0.83768571280E+02 -0.16321774162E+03 -0.12420925914E+03  0.22155167516E+03  0.00000000000E+00 0. -1.
         -3    1    3    3    0  502 -0.84353794616E+02 -0.47135501119E+02 -0.27204156021E+02  0.10038617553E+03  0.00000000000E+00 0.  1.
         13    1    5    5    0    0 -0.11070237074E+02  0.27213437129E+02  0.20936832823E+02  0.36075923798E+02  0.00000000000E+00 0.  1.
        -13    1    5    5    0    0 -0.32207810425E+03  0.17180779093E+03  0.22266246718E+02  0.36571574755E+03  0.00000000000E+00 0. -1.
          1    1    6    6  503    0  0.16266801621E+03 -0.38010183850E+02  0.12082029562E+03  0.20616304568E+03  0.00000000000E+00 0.  1.
         -1    1    6    6    0  503  0.33860269102E+03  0.49342198526E+02  0.22491706925E+03  0.40948030839E+03  0.00000000000E+00 0. -1.
<mgrwt>
<rscale>  0 0.13181429E+04</rscale>
<asrwt>0</asrwt>
<pdfrwt beam="1">  1        2 0.84757373E-01 0.13181429E+04</pdfrwt>
<pdfrwt beam="2">  1       -2 0.12129999E+00 0.13181429E+04</pdfrwt>
<totfact> 0.27796032E+01</totfact>
</mgrwt>
</event>
<event>
12    3  0.4688899E-008  0.1175295E+04  0.7818608E-02  0.9134760E-01
          2   -1    0    0  501    0  0.00000000000E+00  0.00000000000E+00  0.20240816237E+04  0.20240816237E+04  0.00000000000E+00 0. -1.
         -2   -1    0    0    0  501 -0.00000000000E+00 -0.00000000000E+00 -0.17061054720E+03  0.17061054720E+03  0.00000000000E+00 0.  1.
         23    2    1    2    0    0 -0.49232423553E+02 -0.33374690684E+02 -0.24099478849E+02  0.10924155447E+03  0.88403794236E+02 0.  0.
        254    2    1    2    0    0  0.49232423553E+02  0.33374690684E+02  0.18775705553E+04  0.20854506164E+04  0.90570159640E+03 0.  0.
         23    2    4    4    0    0 -0.31625954711E+03  0.53196722675E+02  0.25565515429E+03  0.42008016892E+03  0.90872426866E+02 0.  0.
         23    2    4    4    0    0  0.36549197066E+03 -0.19822031991E+02  0.16219154010E+04  0.16653704475E+04  0.94190581610E+02 0.  0.
          4    1    3    3  502    0  0.17011889209E+02 -0.16324000387E+02  0.17338174764E+02  0.29265844721E+02  0.00000000000E+00 0. -1.
         -4    1    3    3    0  502 -0.66244312763E+02 -0.17050690297E+02 -0.41437653614E+02  0.79975709750E+02  0.00000000000E+00 0.  1.
         13    1    5    5    0    0 -0.28771047571E+03  0.34551708735E+02  0.19123272789E+03  0.34719028590E+03  0.00000000000E+00 0. -1.
        -13    1    5    5    0    0 -0.28549071396E+02  0.18645013940E+02  0.64422426405E+02  0.72889883017E+02  0.00000000000E+00 0.  1.
          1    1    6    6  503    0  0.27849154315E+03  0.24834235655E+02  0.11605489881E+04  0.11937538409E+04  0.00000000000E+00 0. -1.
         -1    1    6    6    0  503  0.87000427515E+02 -0.44656267646E+02  0.46136641288E+03  0.47161660654E+03  0.00000000000E+00 0.  1.
<mgrwt>
<rscale>  0 0.11752952E+04</rscale>
<asrwt>0</asrwt>
<pdfrwt beam="1">  1        2 0.31139716E+00 0.11752952E+04</pdfrwt>
<pdfrwt beam="2">  1       -2 0.26247778E-01 0.11752952E+04</pdfrwt>
<totfact> 0.84190671E+01</totfact>
</mgrwt>
</event>
<event>
12    3  0.4688899E-008  0.1150777E+04  0.7818608E-02  0.9157067E-01
         -2   -1    0    0    0  501 -0.00000000000E+00  0.00000000000E+00  0.18309323117E+03  0.18309323117E+03  0.00000000000E+00 0.  1.
          2   -1    0    0  501    0  0.00000000000E+00 -0.00000000000E+00 -0.18082149577E+04  0.18082149577E+04  0.00000000000E+00 0. -1.
         23    2    1    2    0    0  0.22553854224E+01  0.16763266211E+03 -0.57133682409E+03  0.60243985929E+03  0.91663631493E+02 0.  0.
        254    2    1    2    0    0 -0.22553854224E+01 -0.16763266211E+03 -0.10537849024E+04  0.13888683295E+04  0.88903701840E+03 0.  0.
         23    2    4    4    0    0  0.14372022459E+02 -0.51934192772E+03 -0.50076576726E+03  0.72724640545E+03  0.90544948288E+02 0.  0.
         23    2    4    4    0    0 -0.16627407882E+02  0.35170926561E+03 -0.55301913515E+03  0.66162192410E+03  0.89092807757E+02 0.  0.
          2    1    3    3  502    0 -0.21232136028E+02  0.13958802698E+03 -0.52357424402E+03  0.54227816651E+03  0.00000000000E+00 0. -1.
         -2    1    3    3    0  502  0.23487521450E+02  0.28044635129E+02 -0.47762580065E+02  0.60161692777E+02  0.00000000000E+00 0.  1.
         13    1    5    5    0    0 -0.20676898088E+02 -0.42003783085E+03 -0.42171823315E+03  0.59557164274E+03  0.00000000000E+00 0.  1.
        -13    1    5    5    0    0  0.35048920547E+02 -0.99304096861E+02 -0.79047534112E+02  0.13167476271E+03  0.00000000000E+00 0. -1.
          4    1    6    6  503    0  0.10120151868E+02  0.18583770779E+01 -0.65177791166E+01  0.12180003440E+02  0.00000000000E+00 0. -1.
         -4    1    6    6    0  503 -0.26747559749E+02  0.34985088853E+03 -0.54650135604E+03  0.64944192066E+03  0.00000000000E+00 0.  1.
<mgrwt>
<rscale>  0 0.11507770E+04</rscale>
<asrwt>0</asrwt>
<pdfrwt beam="1">  1        2 0.27818692E+00 0.11507770E+04</pdfrwt>
<pdfrwt beam="2">  1       -2 0.28168189E-01 0.11507770E+04</pdfrwt>
<totfact> 0.97477023E+01</totfact>
</mgrwt>
</event>
<event>
12    3  0.4688899E-008  0.1487767E+04  0.7818608E-02  0.8892629E-01
         -1   -1    0    0    0  501 -0.00000000000E+00  0.00000000000E+00  0.21888159326E+04  0.21888159326E+04  0.00000000000E+00 0.  1.
          1   -1    0    0  501    0  0.00000000000E+00 -0.00000000000E+00 -0.25281370024E+03  0.25281370024E+03  0.00000000000E+00 0. -1.
         23    2    1    2    0    0  0.34118641905E+03 -0.26837662496E+03  0.33177419885E+03  0.55352562623E+03  0.88782399716E+02 0.  0.
        254    2    1    2    0    0 -0.34118641905E+03  0.26837662496E+03  0.16042280335E+04  0.18881040066E+04  0.89607754736E+03 0.  0.
         23    2    4    4    0    0 -0.38690790740E+03  0.55641600401E+03  0.12000520072E+04  0.13811703161E+04  0.90609733718E+02 0.  0.
         23    2    4    4    0    0  0.45721488356E+02 -0.28803937905E+03  0.40417602627E+03  0.50693369044E+03  0.92554675262E+02 0.  0.
          4    1    3    3  502    0  0.26698359100E+03 -0.17660485785E+03  0.20399068678E+03  0.37958097156E+03  0.00000000000E+00 0. -1.
         -4    1    3    3    0  502  0.74202828046E+02 -0.91771767110E+02  0.12778351207E+03  0.17394465466E+03  0.00000000000E+00 0.  1.
         13    1    5    5    0    0 -0.18360941219E+03  0.27277711219E+03  0.67341317591E+03  0.74940314562E+03  0.00000000000E+00 0. -1.
        -13    1    5    5    0    0 -0.20329849522E+03  0.28363889182E+03  0.52663883131E+03  0.63176717053E+03  0.00000000000E+00 0.  1.
          3    1    6    6  503    0 -0.11212810532E+02 -0.19492813933E+03  0.23389747705E+03  0.30468136864E+03  0.00000000000E+00 0. -1.
         -3    1    6    6    0  503  0.56934298888E+02 -0.93111239716E+02  0.17027854922E+03  0.20225232180E+03  0.00000000000E+00 0.  1.
<mgrwt>
<rscale>  0 0.14877670E+04</rscale>
<asrwt>0</asrwt>
<pdfrwt beam="1">  1        1 0.38894417E-01 0.14877670E+04</pdfrwt>
<pdfrwt beam="2">  1       -1 0.33674090E+00 0.14877670E+04</pdfrwt>
<totfact> 0.20268092E+00</totfact>
</mgrwt>
</event>
<event>
12    3  0.4688899E-008  0.1446138E+04  0.7818608E-02  0.8921082E-01
          2   -1    0    0  501    0  0.00000000000E+00  0.00000000000E+00  0.16520824122E+04  0.16520824122E+04  0.00000000000E+00 0.  1.
         -2   -1    0    0    0  501 -0.00000000000E+00 -0.00000000000E+00 -0.31646656936E+03  0.31646656936E+03  0.00000000000E+00 0. -1.
         23    2    1    2    0    0  0.13583984822E+03 -0.30045501938E+03  0.92532419128E+03  0.98669654177E+03  0.92841389217E+02 0.  0.
        254    2    1    2    0    0 -0.13583984822E+03  0.30045501938E+03  0.41029165157E+03  0.98185243979E+03  0.82883610632E+03 0.  0.
         23    2    4    4    0    0  0.31771494449E+03  0.17237657811E+03  0.40730095799E+02  0.37570149635E+03  0.94001079871E+02 0.  0.
         23    2    4    4    0    0 -0.45355479271E+03  0.12807844126E+03  0.36956155577E+03  0.60615094344E+03  0.93419407098E+02 0.  0.
          3    1    3    3  502    0  0.22546041574E+02 -0.24347009196E+02  0.37607859944E+02  0.50154281741E+02  0.00000000000E+00 0. -1.
         -3    1    3    3    0  502  0.11329380665E+03 -0.27610801018E+03  0.88771633133E+03  0.93654226003E+03  0.00000000000E+00 0.  1.
         13    1    5    5    0    0  0.13130505751E+03  0.43222539075E+02 -0.22999929010E+02  0.14013637196E+03  0.00000000000E+00 0. -1.
        -13    1    5    5    0    0  0.18640988699E+03  0.12915403904E+03  0.63730024809E+02  0.23556512439E+03  0.00000000000E+00 0.  1.
          1    1    6    6  503    0 -0.14029558469E+03  0.80616046483E+02  0.15032468297E+03  0.22086038201E+03  0.00000000000E+00 0. -1.
         -1    1    6    6    0  503 -0.31325920802E+03  0.47462394782E+02  0.21923687281E+03  0.38529056143E+03  0.00000000000E+00 0.  1.
<mgrwt>
<rscale>  0 0.14461381E+04</rscale>
<asrwt>0</asrwt>
<pdfrwt beam="1">  1        2 0.25416652E+00 0.14461381E+04</pdfrwt>
<pdfrwt beam="2">  1       -2 0.48687166E-01 0.14461381E+04</pdfrwt>
<totfact> 0.40410477E+01</totfact>
</mgrwt>
</event>
<event>
12    3  0.4688899E-008  0.1051093E+04  0.7818608E-02  0.9254216E-01
         -2   -1    0    0    0  501 -0.00000000000E+00  0.00000000000E+00  0.50115537109E+03  0.50115537109E+03  0.00000000000E+00 0.  1.
          2   -1    0    0  501    0  0.00000000000E+00 -0.00000000000E+00 -0.55112488994E+03  0.55112488994E+03  0.00000000000E+00 0. -1.
         23    2    1    2    0    0  0.54923023101E+01 -0.52639187524E+02  0.86336096377E+02  0.13658185031E+03  0.91649499997E+02 0.  0.
        254    2    1    2    0    0 -0.54923023101E+01  0.52639187524E+02 -0.13630561522E+03  0.91569841071E+03  0.90394873150E+03 0.  0.
         23    2    4    4    0    0 -0.14357374147E+03  0.17066896518E+03 -0.46901225463E+03  0.52753022903E+03  0.92597692352E+02 0.  0.
         23    2    4    4    0    0  0.13808143916E+03 -0.11802977765E+03  0.33270663941E+03  0.38816818168E+03  0.83566243872E+02 0.  0.
          3    1    3    3  502    0  0.23408888345E+02 -0.34243295320E+02  0.99445833344E+02  0.10774995637E+03  0.00000000000E+00 0.  1.
         -3    1    3    3    0  502 -0.17916586035E+02 -0.18395892205E+02 -0.13109736967E+02  0.28831893946E+02  0.00000000000E+00 0. -1.
         13    1    5    5    0    0 -0.76284162831E+02  0.15430841819E+03 -0.32745131748E+03  0.36993881486E+03  0.00000000000E+00 0. -1.
        -13    1    5    5    0    0 -0.67289578636E+02  0.16360546986E+02 -0.14156093715E+03  0.15759141416E+03  0.00000000000E+00 0.  1.
          2    1    6    6  503    0  0.92581306978E+02 -0.83217672110E+02  0.14102288863E+03  0.18810617872E+03  0.00000000000E+00 0.  1.
         -2    1    6    6    0  503  0.45500132179E+02 -0.34812105542E+02  0.19168375078E+03  0.20006200297E+03  0.00000000000E+00 0. -1.
<mgrwt>
<rscale>  0 0.10510931E+04</rscale>
<asrwt>0</asrwt>
<pdfrwt beam="1">  1        2 0.84788444E-01 0.10510931E+04</pdfrwt>
<pdfrwt beam="2">  1       -2 0.77100827E-01 0.10510931E+04</pdfrwt>
<totfact> 0.82162784E+01</totfact>
</mgrwt>
</event>
<event>
12    3  0.4688899E-008  0.1646497E+04  0.7818608E-02  0.8792481E-01
         -1   -1    0    0    0  501 -0.00000000000E+00  0.00000000000E+00  0.17446985238E+04  0.17446985238E+04  0.00000000000E+00 0.  1.
          1   -1    0    0  501    0  0.00000000000E+00 -0.00000000000E+00 -0.38845580063E+03  0.38845580063E+03  0.00000000000E+00 0. -1.
         23    2    1    2    0    0  0.28478271707E+03 -0.41883914233E+03  0.13029079400E+03  0.52944688724E+03  0.82528130468E+02 0.  0.
        254    2    1    2    0    0 -0.28478271707E+03  0.41883914233E+03  0.12259519292E+04  0.16037074372E+04  0.90132790281E+03 0.  0.
         23    2    4    4    0    0  0.59931982843E+02  0.32028608935E+03  0.11833465481E+04  0.12308116303E+04  0.91723468959E+02 0.  0.
         23    2    4    4    0    0 -0.34471469991E+03  0.98553052973E+02  0.42605381105E+02  0.37289580693E+03  0.93247711742E+02 0.  0.
          4    1    3    3  502    0  0.20975774914E+03 -0.35594400934E+03  0.86067699613E+02  0.42202144498E+03  0.00000000000E+00 0. -1.
         -4    1    3    3    0  502  0.75024967929E+02 -0.62895132984E+02  0.44223094388E+02  0.10742544225E+03  0.00000000000E+00 0.  1.
         13    1    5    5    0    0  0.41425094072E+02  0.31409216261E+03  0.11413149346E+04  0.11844702212E+04  0.00000000000E+00 0.  1.
        -13    1    5    5    0    0  0.18506888771E+02  0.61939267391E+01  0.42031613481E+02  0.46341409045E+02  0.00000000000E+00 0. -1.
          3    1    6    6  503    0 -0.27979919719E+03  0.48998308619E+02  0.57663910117E+02  0.28985091259E+03  0.00000000000E+00 0.  1.
         -3    1    6    6    0  503 -0.64915502714E+02  0.49554744354E+02 -0.15058529012E+02  0.83044894344E+02  0.00000000000E+00 0. -1.
<mgrwt>
<rscale>  0 0.16464972E+04</rscale>
<asrwt>0</asrwt>
<pdfrwt beam="1">  1        1 0.59762432E-01 0.16464972E+04</pdfrwt>
<pdfrwt beam="2">  1       -1 0.26841515E+00 0.16464972E+04</pdfrwt>
<totfact> 0.31572668E+00</totfact>
</mgrwt>
</event>
<event>
12    3  0.4688899E-008  0.1744381E+04  0.7818608E-02  0.8736450E-01
         -1   -1    0    0    0  501 -0.00000000000E+00  0.00000000000E+00  0.10744343602E+04  0.10744343602E+04  0.00000000000E+00 0.  1.
          1   -1    0    0  501    0  0.00000000000E+00 -0.00000000000E+00 -0.70801529430E+03  0.70801529430E+03  0.00000000000E+00 0. -1.
         23    2    1    2    0    0 -0.50408568244E+03  0.30908705824E+03  0.54818840195E+02  0.60247208041E+03  0.10163817008E+03 0.  0.
        254    2    1    2    0    0  0.50408568244E+03 -0.30908705824E+03  0.31160022573E+03  0.11799775741E+04  0.97242747282E+03 0.  0.
         23    2    4    4    0    0 -0.74874768019E+02 -0.40351292019E+03  0.40165202185E+03  0.57966218261E+03  0.79088505146E+02 0.  0.
         23    2    4    4    0    0  0.57896045046E+03  0.94425861946E+02 -0.90051796121E+02  0.60031539150E+03  0.90320521919E+02 0.  0.
          1    1    3    3  502    0 -0.87965556207E+01  0.28044302003E+02 -0.51991938140E+01  0.29847845516E+02  0.00000000000E+00 0. -1.
         -1    1    3    3    0  502 -0.49528912682E+03  0.28104275624E+03  0.60018034009E+02  0.57262423489E+03  0.00000000000E+00 0.  1.
         13    1    5    5    0    0 -0.80831832109E+02 -0.26368212274E+03  0.29384360255E+03  0.40299641400E+03  0.00000000000E+00 0.  1.
        -13    1    5    5    0    0  0.59570640897E+01 -0.13983079745E+03  0.10780841930E+03  0.17666576861E+03  0.00000000000E+00 0. -1.
          1    1    6    6  503    0  0.32387464823E+03  0.60963626355E+02 -0.58458361085E+01  0.32961420677E+03  0.00000000000E+00 0. -1.
         -1    1    6    6    0  503  0.25508580223E+03  0.33462235591E+02 -0.84205960013E+02  0.27070118473E+03  0.00000000000E+00 0.  1.
<mgrwt>
<rscale>  0 0.17443806E+04</rscale>
<asrwt>0</asrwt>
<pdfrwt beam="1">  1        1 0.10892543E+00 0.17443806E+04</pdfrwt>
<pdfrwt beam="2">  1       -1 0.16529759E+00 0.17443806E+04</pdfrwt>
<totfact> 0.67677702E+00</totfact>
</mgrwt>
</event>
<event>
12    3  0.4688899E-008  0.1298622E+04  0.7818608E-02  0.9030658E-01
         -2   -1    0    0    0  501 -0.00000000000E+00  0.00000000000E+00  0.13344223340E+03  0.13344223340E+03  0.00000000000E+00 0.  1.
          2   -1    0    0  501    0  0.00000000000E+00 -0.00000000000E+00 -0.31594563029E+04  0.31594563029E+04  0.00000000000E+00 0. -1.
         23    2    1    2    0    0 -0.16535083018E+03 -0.96692776117E+02 -0.14702742404E+04  0.14856066200E+04  0.92899393903E+02 0.  0.
        254    2    1    2    0    0  0.16535083018E+03  0.96692776117E+02 -0.15557398291E+04  0.18072919163E+04  0.89960394893E+03 0.  0.
         23    2    4    4    0    0 -0.22031281960E+03  0.31255669276E+03 -0.37468764892E+03  0.54292237162E+03  0.90246566038E+02 0.  0.
         23    2    4    4    0    0  0.38566364978E+03 -0.21586391665E+03 -0.11810521802E+04  0.12643695447E+04  0.91719201724E+02 0.  0.
          3    1    3    3  502    0 -0.17377310593E+03 -0.10328924075E+03 -0.13902066175E+04  0.14048274623E+04  0.00000000000E+00 0. -1.
         -3    1    3    3    0  502  0.84222757495E+01  0.65964646339E+01 -0.80067622905E+02  0.80779157660E+02  0.00000000000E+00 0.  1.
         13    1    5    5    0    0 -0.43961050448E+02  0.64620580989E+02 -0.31452664625E+02  0.84247632346E+02  0.00000000000E+00 0.  1.
        -13    1    5    5    0    0 -0.17635176915E+03  0.24793611177E+03 -0.34323498429E+03  0.45867473927E+03  0.00000000000E+00 0. -1.
          2    1    6    6  503    0  0.24820775500E+03 -0.93411036035E+02 -0.63637557002E+03  0.68942481636E+03  0.00000000000E+00 0. -1.
         -2    1    6    6    0  503  0.13745589477E+03 -0.12245288061E+03 -0.54467661018E+03  0.57494472835E+03  0.00000000000E+00 0.  1.
<mgrwt>
<rscale>  0 0.12986222E+04</rscale>
<asrwt>0</asrwt>
<pdfrwt beam="1">  1        2 0.48607019E+00 0.12986222E+04</pdfrwt>
<pdfrwt beam="2">  1       -2 0.20529575E-01 0.12986222E+04</pdfrwt>
<totfact> 0.27966098E+01</totfact>
</mgrwt>
</event>
<event>
12    3  0.4688899E-008  0.2072432E+04  0.7818608E-02  0.8573485E-01
         -2   -1    0    0    0  501 -0.00000000000E+00  0.00000000000E+00  0.29079397841E+03  0.29079397841E+03  0.00000000000E+00 0.  1.
          2   -1    0    0  501    0  0.00000000000E+00 -0.00000000000E+00 -0.36924545449E+04  0.36924545449E+04  0.00000000000E+00 0. -1.
         23    2    1    2    0    0  0.47814654077E+03  0.11584526245E+03 -0.26975480362E+04  0.27435898200E+04  0.92062226574E+02 0.  0.
        254    2    1    2    0    0 -0.47814654077E+03 -0.11584526245E+03 -0.70411253024E+03  0.12396587033E+04  0.89383164302E+03 0.  0.
         23    2    4    4    0    0  0.15954742185E+03  0.20818087962E+03 -0.85495051965E+02  0.29029689940E+03  0.90378246446E+02 0.  0.
         23    2    4    4    0    0 -0.63769396262E+03 -0.32402614207E+03 -0.61861747828E+03  0.94936180387E+03  0.83388965172E+02 0.  0.
          1    1    3    3  502    0  0.39613824729E+03  0.12746795046E+03 -0.23246719640E+04  0.23616251458E+04  0.00000000000E+00 0. -1.
         -1    1    3    3    0  502  0.82008293473E+02 -0.11622688017E+02 -0.37287607224E+03  0.38196467418E+03  0.00000000000E+00 0.  1.
         13    1    5    5    0    0  0.12797892881E+03  0.18781289009E+03 -0.39119747319E+02  0.23061362175E+03  0.00000000000E+00 0.  1.
        -13    1    5    5    0    0  0.31568493038E+02  0.20367989528E+02 -0.46375304646E+02  0.59683277651E+02  0.00000000000E+00 0. -1.
          2    1    6    6  503    0 -0.52059291069E+03 -0.22772370079E+03 -0.47692110235E+03  0.74184149279E+03  0.00000000000E+00 0.  1.
         -2    1    6    6    0  503 -0.11710105193E+03 -0.96302441271E+02 -0.14169637593E+03  0.20752031107E+03  0.00000000000E+00 0. -1.
<mgrwt>
<rscale>  0 0.20724320E+04</rscale>
<asrwt>0</asrwt>
<pdfrwt beam="1">  1        2 0.56806997E+00 0.20724320E+04</pdfrwt>
<pdfrwt beam="2">  1       -2 0.44737532E-01 0.20724320E+04</pdfrwt>
<totfact> 0.26039879E+00</totfact>
</mgrwt>
</event>
<event>
12    3  0.4688899E-008  0.1152416E+04  0.7818608E-02  0.9155557E-01
         -1   -1    0    0    0  501 -0.00000000000E+00  0.00000000000E+00  0.20400537452E+03  0.20400537452E+03  0.00000000000E+00 0.  1.
          1   -1    0    0  501    0  0.00000000000E+00 -0.00000000000E+00 -0.16274852741E+04  0.16274852741E+04  0.00000000000E+00 0. -1.
         23    2    1    2    0    0  0.18804208295E+03 -0.34829159516E+02 -0.45166443163E+03  0.49865701865E+03  0.89917563033E+02 0.  0.
        254    2    1    2    0    0 -0.18804208295E+03  0.34829159516E+02 -0.97181546792E+03  0.13328336299E+04  0.89187851533E+03 0.  0.
         23    2    4    4    0    0 -0.19043230524E+03 -0.16730828718E+03 -0.10613925209E+04  0.10948385759E+04  0.88661704848E+02 0.  0.
         23    2    4    4    0    0  0.23902222944E+01  0.20213744670E+03  0.89577052993E+02  0.23799505408E+03  0.88047355570E+02 0.  0.
          3    1    3    3  502    0  0.15901766798E+03 -0.10219631881E+02 -0.41979960645E+03  0.44902424120E+03  0.00000000000E+00 0. -1.
         -3    1    3    3    0  502  0.29024414961E+02 -0.24609527635E+02 -0.31864825179E+02  0.49632777455E+02  0.00000000000E+00 0.  1.
         13    1    5    5    0    0 -0.17708426920E+03 -0.16413194194E+03 -0.10487368060E+04  0.10761723938E+04  0.00000000000E+00 0. -1.
        -13    1    5    5    0    0 -0.13348036040E+02 -0.31763452420E+01 -0.12655714888E+02  0.18666182110E+02  0.00000000000E+00 0.  1.
          1    1    6    6  503    0 -0.22079466972E+02  0.19259818416E+03  0.74291008309E+02  0.20760712252E+03  0.00000000000E+00 0. -1.
         -1    1    6    6    0  503  0.24469689266E+02  0.95392625359E+01  0.15286044683E+02  0.30387931561E+02  0.00000000000E+00 0.  1.
<mgrwt>
<rscale>  0 0.11524161E+04</rscale>
<asrwt>0</asrwt>
<pdfrwt beam="1">  1        1 0.25038235E+00 0.11524161E+04</pdfrwt>
<pdfrwt beam="2">  1       -1 0.31385442E-01 0.11524161E+04</pdfrwt>
<totfact> 0.50001921E+01</totfact>
</mgrwt>
</event>
<event>
12    3  0.4688899E-008  0.2935887E+04  0.7818608E-02  0.8262279E-01
         -2   -1    0    0    0  501 -0.00000000000E+00  0.00000000000E+00  0.14758921145E+04  0.14758921145E+04  0.00000000000E+00 0.  1.
          2   -1    0    0  501    0  0.00000000000E+00 -0.00000000000E+00 -0.14600376681E+04  0.14600376681E+04  0.00000000000E+00 0. -1.
         23    2    1    2    0    0  0.36977543322E+03 -0.23468844081E+03 -0.12484092465E+04  0.13253644184E+04  0.79073759827E+02 0.  0.
        254    2    1    2    0    0 -0.36977543322E+03  0.23468844081E+03  0.12642636930E+04  0.16105653642E+04  0.89651858406E+03 0.  0.
         23    2    4    4    0    0 -0.20055808657E+03  0.44358617787E+03  0.24450209312E+03  0.55158872992E+03  0.86467393590E+02 0.  0.
         23    2    4    4    0    0 -0.16921734665E+03 -0.20889773705E+03  0.10197615999E+04  0.10589766343E+04  0.96151007978E+02 0.  0.
          2    1    3    3  502    0  0.21550717857E+03 -0.14752990705E+03 -0.62780312891E+03  0.67995969451E+03  0.00000000000E+00 0. -1.
         -2    1    3    3    0  502  0.15426825465E+03 -0.87158533765E+02 -0.62060611762E+03  0.64540472389E+03  0.00000000000E+00 0.  1.
         13    1    5    5    0    0 -0.51876540325E+01 -0.30213979914E+01 -0.47706554481E+00  0.60223078398E+01  0.00000000000E+00 0.  1.
        -13    1    5    5    0    0 -0.19537043254E+03  0.44660757586E+03  0.24497915867E+03  0.54556642208E+03  0.00000000000E+00 0. -1.
          1    1    6    6  503    0 -0.16857039591E+03 -0.16458992791E+03  0.76727982088E+03  0.80263574944E+03  0.00000000000E+00 0. -1.
         -1    1    6    6    0  503 -0.64695073447E+00 -0.44307809144E+02  0.25248177900E+03  0.25634088481E+03  0.00000000000E+00 0.  1.
<mgrwt>
<rscale>  0 0.29358870E+04</rscale>
<asrwt>0</asrwt>
<pdfrwt beam="1">  1        2 0.22462118E+00 0.29358870E+04</pdfrwt>
<pdfrwt beam="2">  1       -2 0.22706033E+00 0.29358870E+04</pdfrwt>
<totfact> 0.10266310E+00</totfact>
</mgrwt>
</event>
<event>
12    3  0.4688899E-008  0.1727581E+04  0.7818608E-02  0.8745788E-01
          2   -1    0    0  501    0  0.00000000000E+00  0.00000000000E+00  0.22085317049E+04  0.22085317049E+04  0.00000000000E+00 0. -1.
         -2   -1    0    0    0  501 -0.00000000000E+00 -0.00000000000E+00 -0.33784176427E+03  0.33784176427E+03  0.00000000000E+00 0.  1.
         23    2    1    2    0    0 -0.58159658695E+03  0.13694833943E+03  0.99179606190E+03  0.11614668368E+04  0.91303598088E+02 0.  0.
        254    2    1    2    0    0  0.58159658695E+03 -0.13694833943E+03  0.87889387877E+03  0.13849066324E+04  0.88797662844E+03 0.  0.
         23    2    4    4    0    0 -0.10390654923E+03 -0.32497001397E+03  0.27515670297E+03  0.44791069048E+03  0.92253425443E+02 0.  0.
         23    2    4    4    0    0  0.68550313618E+03  0.18802167454E+03  0.60373717580E+03  0.93699594190E+03  0.90532413488E+02 0.  0.
          2    1    3    3  502    0 -0.46649025719E+03  0.14582937607E+03  0.81483913597E+03  0.95018008003E+03  0.00000000000E+00 0. -1.
         -2    1    3    3    0  502 -0.11510632975E+03 -0.88810366464E+01  0.17695692593E+03  0.21128675679E+03  0.00000000000E+00 0.  1.
         13    1    5    5    0    0 -0.11215955526E+02 -0.11687323486E+02  0.46216714118E+02  0.48973215664E+02  0.00000000000E+00 0.  1.
        -13    1    5    5    0    0 -0.92690593700E+02 -0.31328269048E+03  0.22893998885E+03  0.39893747482E+03  0.00000000000E+00 0. -1.
          4    1    6    6  503    0  0.67391004326E+03  0.17373098999E+03  0.57442564379E+03  0.90238684805E+03  0.00000000000E+00 0. -1.
         -4    1    6    6    0  503  0.11593092914E+02  0.14290684553E+02  0.29311532015E+02  0.34609093853E+02  0.00000000000E+00 0.  1.
<mgrwt>
<rscale>  0 0.17275813E+04</rscale>
<asrwt>0</asrwt>
<pdfrwt beam="1">  1        2 0.33977410E+00 0.17275813E+04</pdfrwt>
<pdfrwt beam="2">  1       -2 0.51975657E-01 0.17275813E+04</pdfrwt>
<totfact> 0.16956199E+01</totfact>
</mgrwt>
</event>
<event>
12    3  0.4688899E-008  0.1806387E+04  0.7818608E-02  0.8702910E-01
         -3   -1    0    0    0  501 -0.00000000000E+00  0.00000000000E+00  0.16017291998E+04  0.16017291998E+04  0.00000000000E+00 0.  1.
          3   -1    0    0  501    0  0.00000000000E+00 -0.00000000000E+00 -0.50929885666E+03  0.50929885666E+03  0.00000000000E+00 0. -1.
         23    2    1    2    0    0 -0.10978793032E+03  0.66544158634E+03  0.39070855592E+03  0.78458481111E+03  0.89745505065E+02 0.  0.
        254    2    1    2    0    0  0.10978793032E+03 -0.66544158634E+03  0.70172178724E+03  0.13264432454E+04  0.90120603751E+03 0.  0.
         23    2    4    4    0    0  0.33441152608E+03 -0.60794166868E+02 -0.22863836342E+02  0.35211969147E+03  0.89098387243E+02 0.  0.
         23    2    4    4    0    0 -0.22462359575E+03 -0.60464741947E+03  0.72458562358E+03  0.97432355391E+03  0.90707222233E+02 0.  0.
          3    1    3    3  502    0  0.62981217470E+01  0.67655155191E+02  0.64846314318E+02  0.93925134241E+02  0.00000000000E+00 0. -1.
         -3    1    3    3    0  502 -0.11608605207E+03  0.59778643115E+03  0.32586224160E+03  0.69065967687E+03  0.00000000000E+00 0.  1.
         13    1    5    5    0    0  0.16110260342E+03 -0.59631216653E+00  0.23698264581E+02  0.16283737950E+03  0.00000000000E+00 0. -1.
        -13    1    5    5    0    0  0.17330892265E+03 -0.60197854702E+02 -0.46562100923E+02  0.18928231197E+03  0.00000000000E+00 0.  1.
          1    1    6    6  503    0  0.46688367883E+01 -0.60939267423E+02  0.61624414884E+02  0.86792631374E+02  0.00000000000E+00 0. -1.
         -1    1    6    6    0  503 -0.22929243254E+03 -0.54370815205E+03  0.66296120870E+03  0.88753092254E+03  0.00000000000E+00 0.  1.
<mgrwt>
<rscale>  0 0.18063874E+04</rscale>
<asrwt>0</asrwt>
<pdfrwt beam="1">  1        3 0.78353671E-01 0.18063874E+04</pdfrwt>
<pdfrwt beam="2">  1       -3 0.24641987E+00 0.18063874E+04</pdfrwt>
<totfact> 0.28871334E-01</totfact>
</mgrwt>
</event>
<event>
12    3  0.4688899E-008  0.2290321E+04  0.7818608E-02  0.8481747E-01
          1   -1    0    0  501    0  0.00000000000E+00  0.00000000000E+00  0.78383919418E+03  0.78383919418E+03  0.00000000000E+00 0. -1.
         -1   -1    0    0    0  501 -0.00000000000E+00 -0.00000000000E+00 -0.16730374699E+04  0.16730374699E+04  0.00000000000E+00 0.  1.
         23    2    1    2    0    0  0.39242761647E+03 -0.44799673677E+03  0.44120460740E+03  0.74673982709E+03  0.90875483155E+02 0.  0.
        254    2    1    2    0    0 -0.39242761647E+03  0.44799673677E+03 -0.13304028831E+04  0.17101368370E+04  0.89436886099E+03 0.  0.
         23    2    4    4    0    0 -0.22667316255E+03  0.41750861655E+03 -0.14182362125E+04  0.14986355796E+04  0.93917401923E+02 0.  0.
         23    2    4    4    0    0 -0.16575445392E+03  0.30488120220E+02  0.87833329431E+02  0.21150125738E+03  0.92811764587E+02 0.  0.
          1    1    3    3  502    0  0.18805710911E+03 -0.23554119164E+03  0.16931871469E+03  0.34570790617E+03  0.00000000000E+00 0. -1.
         -1    1    3    3    0  502  0.20437050736E+03 -0.21245554513E+03  0.27188589272E+03  0.40103192092E+03  0.00000000000E+00 0.  1.
         13    1    5    5    0    0 -0.19918818839E+03  0.33637045485E+03 -0.10458557521E+04  0.11165282225E+04  0.00000000000E+00 0. -1.
        -13    1    5    5    0    0 -0.27484974166E+02  0.81138161700E+02 -0.37238046039E+03  0.38210735713E+03  0.00000000000E+00 0.  1.
          3    1    6    6  503    0 -0.82274523464E+02 -0.30676332394E+02  0.29080939707E+02  0.92497760160E+02  0.00000000000E+00 0. -1.
         -3    1    6    6    0  503 -0.83479930457E+02  0.61164452614E+02  0.58752389724E+02  0.11900349722E+03  0.00000000000E+00 0.  1.
<mgrwt>
<rscale>  0 0.22903208E+04</rscale>
<asrwt>0</asrwt>
<pdfrwt beam="1">  1        1 0.12059064E+00 0.22903208E+04</pdfrwt>
<pdfrwt beam="2">  1       -1 0.25739038E+00 0.22903208E+04</pdfrwt>
<totfact> 0.12893827E+00</totfact>
</mgrwt>
</event>
<event>
12    3  0.4688899E-008  0.2415746E+04  0.7818608E-02  0.8433632E-01
          2   -1    0    0  501    0  0.00000000000E+00  0.00000000000E+00  0.10781356053E+04  0.10781356053E+04  0.00000000000E+00 0. -1.
         -2   -1    0    0    0  501 -0.00000000000E+00 -0.00000000000E+00 -0.13532225157E+04  0.13532225157E+04  0.00000000000E+00 0.  1.
         23    2    1    2    0    0 -0.45950316055E+03  0.91429938750E+03 -0.29181579982E+03  0.10678573321E+04  0.89868215968E+02 0.  0.
        254    2    1    2    0    0  0.45950316055E+03 -0.91429938750E+03  0.16728889446E+02  0.13635007888E+04  0.90098169833E+03 0.  0.
         23    2    4    4    0    0  0.58544259467E+03 -0.52976050785E+03  0.31253451545E+03  0.85400158671E+03  0.90838644970E+02 0.  0.
         23    2    4    4    0    0 -0.12593943412E+03 -0.38453887965E+03 -0.29580562601E+03  0.50949920208E+03  0.91419787299E+02 0.  0.
          3    1    3    3  502    0 -0.16852253433E+02  0.38725678624E+02  0.57390166448E+01  0.42621742605E+02  0.00000000000E+00 0. -1.
         -3    1    3    3    0  502 -0.44265090712E+03  0.87557370888E+03 -0.29755481647E+03  0.10252355895E+04  0.00000000000E+00 0.  1.
         13    1    5    5    0    0  0.49781782532E+03 -0.43906305078E+03  0.29609626316E+03  0.72682318814E+03  0.00000000000E+00 0. -1.
        -13    1    5    5    0    0  0.87624769352E+02 -0.90697457074E+02  0.16438252289E+02  0.12717839857E+03  0.00000000000E+00 0.  1.
          3    1    6    6  503    0  0.20168839789E+01 -0.11614135545E+03 -0.65121224546E+02  0.13316777446E+03  0.00000000000E+00 0. -1.
         -3    1    6    6    0  503 -0.12795631810E+03 -0.26839752420E+03 -0.23068440146E+03  0.37633142762E+03  0.00000000000E+00 0.  1.
<mgrwt>
<rscale>  0 0.24157462E+04</rscale>
<asrwt>0</asrwt>
<pdfrwt beam="1">  1        2 0.16586702E+00 0.24157462E+04</pdfrwt>
<pdfrwt beam="2">  1       -2 0.20818808E+00 0.24157462E+04</pdfrwt>
<totfact> 0.23742029E+00</totfact>
</mgrwt>
</event>
<event>
12    3  0.4688899E-008  0.1276599E+04  0.7818608E-02  0.9048331E-01
          2   -1    0    0  501    0  0.00000000000E+00  0.00000000000E+00  0.10434534287E+04  0.10434534287E+04  0.00000000000E+00 0. -1.
         -2   -1    0    0    0  501 -0.00000000000E+00 -0.00000000000E+00 -0.39045948677E+03  0.39045948677E+03  0.00000000000E+00 0.  1.
         23    2    1    2    0    0 -0.10677779959E+03 -0.28756904232E+03  0.20553850184E+03  0.38095390961E+03  0.93714208771E+02 0.  0.
        254    2    1    2    0    0  0.10677779959E+03  0.28756904232E+03  0.44745544012E+03  0.10529590059E+04  0.90244603419E+03 0.  0.
         23    2    4    4    0    0  0.25274683332E+03  0.45919467452E+03  0.57010063221E+03  0.78046902595E+03  0.96832116353E+02 0.  0.
         23    2    4    4    0    0 -0.14596903373E+03 -0.17162563221E+03 -0.12264519209E+03  0.27248997995E+03  0.91905547104E+02 0.  0.
          3    1    3    3  502    0 -0.40495875270E+02 -0.15685414585E+03  0.15948437092E+03  0.22732884452E+03  0.00000000000E+00 0. -1.
         -3    1    3    3    0  502 -0.66281924316E+02 -0.13071489646E+03  0.46054130926E+02  0.15362506509E+03  0.00000000000E+00 0.  1.
         13    1    5    5    0    0  0.16839854768E+03  0.21034909434E+03  0.26697452764E+03  0.37931545020E+03  0.00000000000E+00 0.  1.
        -13    1    5    5    0    0  0.84348285640E+02  0.24884558018E+03  0.30312610457E+03  0.40115357575E+03  0.00000000000E+00 0. -1.
          1    1    6    6  503    0 -0.61510456024E+02 -0.12402213740E+02 -0.25416776179E+02  0.67700543700E+02  0.00000000000E+00 0. -1.
         -1    1    6    6    0  503 -0.84458577708E+02 -0.15922341847E+03 -0.97228415909E+02  0.20478943625E+03  0.00000000000E+00 0.  1.
<mgrwt>
<rscale>  0 0.12765991E+04</rscale>
<asrwt>0</asrwt>
<pdfrwt beam="1">  1        2 0.16053130E+00 0.12765991E+04</pdfrwt>
<pdfrwt beam="2">  1       -2 0.60070691E-01 0.12765991E+04</pdfrwt>
<totfact> 0.59943491E+01</totfact>
</mgrwt>
</event>
<event>
12    3  0.4688899E-008  0.1188174E+04  0.7818608E-02  0.9123271E-01
         -2   -1    0    0    0  501 -0.00000000000E+00  0.00000000000E+00  0.48201294214E+03  0.48201294214E+03  0.00000000000E+00 0.  1.
          2   -1    0    0  501    0  0.00000000000E+00 -0.00000000000E+00 -0.73221987582E+03  0.73221987582E+03  0.00000000000E+00 0. -1.
         23    2    1    2    0    0 -0.15580230493E+03 -0.19922364423E+03 -0.29021171166E+03  0.39263687642E+03  0.77307570756E+02 0.  0.
        254    2    1    2    0    0  0.15580230493E+03  0.19922364423E+03  0.40004777979E+02  0.82159594155E+03  0.78067604694E+03 0.  0.
         23    2    4    4    0    0 -0.20650232931E+03 -0.14841358155E+03  0.13497524601E+03  0.30227772043E+03  0.92107003178E+02 0.  0.
         23    2    4    4    0    0  0.36230463424E+03  0.34763722578E+03 -0.94970468030E+02  0.51931822112E+03  0.92497222956E+02 0.  0.
          3    1    3    3  502    0 -0.11827053471E+03 -0.19097186066E+03 -0.26108489771E+03  0.34441761679E+03  0.00000000000E+00 0. -1.
         -3    1    3    3    0  502 -0.37531770220E+02 -0.82517835715E+01 -0.29126813949E+02  0.48219259625E+02  0.00000000000E+00 0.  1.
         13    1    5    5    0    0 -0.21299470579E+03 -0.13754317199E+03  0.13880041728E+03  0.28905090329E+03  0.00000000000E+00 0.  1.
        -13    1    5    5    0    0  0.64923764795E+01 -0.10870409564E+02 -0.38251712727E+01  0.13226817142E+02  0.00000000000E+00 0. -1.
          1    1    6    6  503    0  0.14045717121E+03  0.19672508463E+03 -0.56812202509E+02  0.24830747516E+03  0.00000000000E+00 0. -1.
         -1    1    6    6    0  503  0.22184746303E+03  0.15091214115E+03 -0.38158265521E+02  0.27101074596E+03  0.00000000000E+00 0.  1.
<mgrwt>
<rscale>  0 0.11881742E+04</rscale>
<asrwt>0</asrwt>
<pdfrwt beam="1">  1        2 0.11264921E+00 0.11881742E+04</pdfrwt>
<pdfrwt beam="2">  1       -2 0.74155837E-01 0.11881742E+04</pdfrwt>
<totfact> 0.62578106E+01</totfact>
</mgrwt>
</event>
<event>
12    3  0.4688899E-008  0.1400166E+04  0.7818608E-02  0.8953698E-01
         -2   -1    0    0    0  501 -0.00000000000E+00  0.00000000000E+00  0.44654432237E+03  0.44654432237E+03  0.00000000000E+00 0.  1.
          2   -1    0    0  501    0  0.00000000000E+00 -0.00000000000E+00 -0.10975763258E+04  0.10975763258E+04  0.00000000000E+00 0. -1.
         23    2    1    2    0    0 -0.32461626120E+03 -0.18054394592E+03 -0.22688109310E+02  0.38292134273E+03  0.90233979035E+02 0.  0.
        254    2    1    2    0    0  0.32461626120E+03  0.18054394592E+03 -0.62834389416E+03  0.11611993055E+04  0.90310350695E+03 0.  0.
         23    2    4    4    0    0  0.52533125588E+03 -0.15997382695E+03 -0.26346672139E+03  0.61588313391E+03  0.91283994430E+02 0.  0.
         23    2    4    4    0    0 -0.20071499468E+03  0.34051777287E+03 -0.36487717277E+03  0.54531617157E+03  0.89417632741E+02 0.  0.
          4    1    3    3  502    0 -0.87957570308E+01 -0.24154056791E+02 -0.16309012620E+02  0.30442859489E+02  0.00000000000E+00 0. -1.
         -4    1    3    3    0  502 -0.31582050417E+03 -0.15638988913E+03 -0.63790966898E+01  0.35247848325E+03  0.00000000000E+00 0.  1.
         13    1    5    5    0    0  0.41078138986E+03 -0.14022805563E+03 -0.16788679234E+03  0.46539363219E+03  0.00000000000E+00 0. -1.
        -13    1    5    5    0    0  0.11454986601E+03 -0.19745771322E+02 -0.95579929048E+02  0.15048950171E+03  0.00000000000E+00 0.  1.
          4    1    6    6  503    0 -0.20061903007E+03  0.32707661763E+03 -0.36785467473E+03  0.53154884136E+03  0.00000000000E+00 0. -1.
         -4    1    6    6    0  503 -0.95964605101E-01  0.13441155238E+02  0.29775019625E+01  0.13767330216E+02  0.00000000000E+00 0.  1.
<mgrwt>
<rscale>  0 0.14001664E+04</rscale>
<asrwt>0</asrwt>
<pdfrwt beam="1">  1        2 0.16885789E+00 0.14001664E+04</pdfrwt>
<pdfrwt beam="2">  1       -2 0.68699127E-01 0.14001664E+04</pdfrwt>
<totfact> 0.41212442E+01</totfact>
</mgrwt>
</event>
<event>
12    3  0.4688899E-008  0.1802650E+04  0.7818608E-02  0.8704892E-01
         -1   -1    0    0    0  501 -0.00000000000E+00  0.00000000000E+00  0.10211890789E+04  0.10211890789E+04  0.00000000000E+00 0. -1.
          1   -1    0    0  501    0  0.00000000000E+00 -0.00000000000E+00 -0.79553006123E+03  0.79553006123E+03  0.00000000000E+00 0.  1.
         23    2    1    2    0    0 -0.22600995796E+02  0.30619888281E+03  0.68642645453E+03  0.75779285800E+03  0.93809260284E+02 0.  0.
        254    2    1    2    0    0  0.22600995796E+02 -0.30619888281E+03 -0.46076743688E+03  0.10589262821E+04  0.90263485374E+03 0.  0.
         23    2    4    4    0    0 -0.42316127129E+03 -0.98969357924E+02 -0.28926612261E+03  0.53020021559E+03  0.92612005689E+02 0.  0.
         23    2    4    4    0    0  0.44576226708E+03 -0.20722952489E+03 -0.17150131427E+03  0.52872606650E+03  0.92143789075E+02 0.  0.
          1    1    3    3  502    0 -0.14679151369E+02  0.31110249078E+03  0.67125925732E+03  0.73999272144E+03  0.00000000000E+00 0. -1.
         -1    1    3    3    0  502 -0.79218444269E+01 -0.49036079693E+01  0.15167197216E+02  0.17800136563E+02  0.00000000000E+00 0.  1.
         13    1    5    5    0    0 -0.50708066325E+02  0.16568175175E+02 -0.47100822020E+02  0.71163894314E+02  0.00000000000E+00 0. -1.
        -13    1    5    5    0    0 -0.37245320496E+03 -0.11553753310E+03 -0.24216530059E+03  0.45903632128E+03  0.00000000000E+00 0.  1.
          1    1    6    6  503    0  0.14475261233E+03 -0.11345344792E+03 -0.47606208179E+02  0.18997724779E+03  0.00000000000E+00 0. -1.
         -1    1    6    6    0  503  0.30100965475E+03 -0.93776076967E+02 -0.12389510609E+03  0.33874881871E+03  0.00000000000E+00 0.  1.
<mgrwt>
<rscale>  0 0.18026498E+04</rscale>
<asrwt>0</asrwt>
<pdfrwt beam="1">  1        1 0.12238924E+00 0.18026498E+04</pdfrwt>
<pdfrwt beam="2">  1       -1 0.15710601E+00 0.18026498E+04</pdfrwt>
<totfact> 0.64712769E+00</totfact>
</mgrwt>
</event>
<event>
12    3  0.4688899E-008  0.2669173E+04  0.7818608E-02  0.8345077E-01
         -1   -1    0    0    0  501 -0.00000000000E+00  0.00000000000E+00  0.87593116291E+03  0.87593116291E+03  0.00000000000E+00 0.  1.
          1   -1    0    0  501    0  0.00000000000E+00 -0.00000000000E+00 -0.20334029402E+04  0.20334029402E+04  0.00000000000E+00 0. -1.
         23    2    1    2    0    0  0.13033554153E+03  0.11682065261E+04 -0.38792905016E+03  0.12411820494E+04  0.91378830949E+02 0.  0.
        254    2    1    2    0    0 -0.13033554153E+03 -0.11682065261E+04 -0.76954272718E+03  0.16681520538E+04  0.89935611668E+03 0.  0.
         23    2    4    4    0    0 -0.18676553117E+03 -0.27857806671E+03  0.15497229630E+03  0.38064998901E+03  0.91601848367E+02 0.  0.
         23    2    4    4    0    0  0.56429989637E+02 -0.88962845937E+03 -0.92451502348E+03  0.12875020648E+04  0.91161388190E+02 0.  0.
          3    1    3    3  502    0  0.27069002379E+02  0.32272116278E+03 -0.14934076887E+03  0.35662914217E+03  0.00000000000E+00 0. -1.
         -3    1    3    3    0  502  0.10326653915E+03  0.84548536331E+03 -0.23858828129E+03  0.88455290720E+03  0.00000000000E+00 0.  1.
         13    1    5    5    0    0 -0.77885120328E+02 -0.73430080804E+02  0.11502190559E+02  0.10765857664E+03  0.00000000000E+00 0. -1.
        -13    1    5    5    0    0 -0.10888041084E+03 -0.20514798591E+03  0.14347010574E+03  0.27299141237E+03  0.00000000000E+00 0.  1.
          2    1    6    6  503    0  0.37974497565E+02 -0.28638230522E+03 -0.24626852327E+03  0.37961173950E+03  0.00000000000E+00 0. -1.
         -2    1    6    6    0  503  0.18455492072E+02 -0.60324615416E+03 -0.67824650021E+03  0.90789032528E+03  0.00000000000E+00 0.  1.
<mgrwt>
<rscale>  0 0.26691729E+04</rscale>
<asrwt>0</asrwt>
<pdfrwt beam="1">  1        1 0.31283122E+00 0.26691729E+04</pdfrwt>
<pdfrwt beam="2">  1       -1 0.13475864E+00 0.26691729E+04</pdfrwt>
<totfact> 0.11456868E+00</totfact>
</mgrwt>
</event>
<event>
12    3  0.4688899E-008  0.1297669E+04  0.7818608E-02  0.9031416E-01
          2   -1    0    0  501    0  0.00000000000E+00  0.00000000000E+00  0.30485926952E+03  0.30485926952E+03  0.00000000000E+00 0. -1.
         -2   -1    0    0    0  501 -0.00000000000E+00 -0.00000000000E+00 -0.13809197132E+04  0.13809197132E+04  0.00000000000E+00 0.  1.
         23    2    1    2    0    0  0.29766855579E+03  0.10815426962E+03 -0.41346257166E+03  0.52867039433E+03  0.90758870272E+02 0.  0.
        254    2    1    2    0    0 -0.29766855579E+03 -0.10815426962E+03 -0.66259787205E+03  0.11571085884E+04  0.89418143026E+03 0.  0.
         23    2    4    4    0    0 -0.16122552693E+03 -0.26267601256E+03  0.11968761287E+03  0.34275326872E+03  0.90345561231E+02 0.  0.
         23    2    4    4    0    0 -0.13644302886E+03  0.15452174295E+03 -0.78228548492E+03  0.81435531971E+03  0.93329189655E+02 0.  0.
          2    1    3    3  502    0  0.16330974095E+03  0.57327780264E+02 -0.15201931272E+03  0.23036149270E+03  0.00000000000E+00 0. -1.
         -2    1    3    3    0  502  0.13435881484E+03  0.50826489353E+02 -0.26144325894E+03  0.29830890163E+03  0.00000000000E+00 0.  1.
         13    1    5    5    0    0 -0.38827515207E+02 -0.93901417278E+02 -0.14641917766E+01  0.10162281221E+03  0.00000000000E+00 0. -1.
        -13    1    5    5    0    0 -0.12239801173E+03 -0.16877459528E+03  0.12115180465E+03  0.24113045651E+03  0.00000000000E+00 0.  1.
          3    1    6    6  503    0 -0.41170371355E+01  0.66943966770E+02 -0.20768111906E+03  0.21824273618E+03  0.00000000000E+00 0. -1.
         -3    1    6    6    0  503 -0.13232599173E+03  0.87577776175E+02 -0.57460436587E+03  0.59611258353E+03  0.00000000000E+00 0.  1.
<mgrwt>
<rscale>  0 0.12976689E+04</rscale>
<asrwt>0</asrwt>
<pdfrwt beam="1">  1        2 0.46901426E-01 0.12976689E+04</pdfrwt>
<pdfrwt beam="2">  1       -2 0.21244919E+00 0.12976689E+04</pdfrwt>
<totfact> 0.11669660E+01</totfact>
</mgrwt>
</event>
<event>
12    3  0.4688899E-008  0.2178335E+04  0.7818608E-02  0.8527500E-01
          1   -1    0    0  501    0  0.00000000000E+00  0.00000000000E+00  0.69219408412E+03  0.69219408412E+03  0.00000000000E+00 0. -1.
         -1   -1    0    0    0  501 -0.00000000000E+00 -0.00000000000E+00 -0.17138046496E+04  0.17138046496E+04  0.00000000000E+00 0.  1.
         23    2    1    2    0    0 -0.26151726516E+03  0.41638925934E+03 -0.12545837231E+04  0.13505840084E+04  0.91244452911E+02 0.  0.
        254    2    1    2    0    0  0.26151726516E+03 -0.41638925934E+03  0.23297315766E+03  0.10554147253E+04  0.90435195301E+03 0.  0.
         23    2    4    4    0    0  0.33916888989E+02 -0.47771160536E+03  0.49272562141E+03  0.69304421337E+03  0.90404703651E+02 0.  0.
         23    2    4    4    0    0  0.22760037617E+03  0.61322346022E+02 -0.25975246375E+03  0.36237051192E+03  0.90987274553E+02 0.  0.
          4    1    3    3  502    0 -0.19925318644E+02  0.75703610359E+02 -0.14128547136E+03  0.16152287566E+03  0.00000000000E+00 0. -1.
         -4    1    3    3    0  502 -0.24159194652E+03  0.34068564898E+03 -0.11132982518E+04  0.11890611328E+04  0.00000000000E+00 0.  1.
         13    1    5    5    0    0  0.40848202842E+02 -0.42829074747E+03  0.47295713677E+03  0.63936686908E+03  0.00000000000E+00 0. -1.
        -13    1    5    5    0    0 -0.69313138535E+01 -0.49420857887E+02  0.19768484635E+02  0.53677344297E+02  0.00000000000E+00 0.  1.
          3    1    6    6  503    0  0.12604206145E+03  0.77486075469E+02 -0.17458107131E+03  0.22884327302E+03  0.00000000000E+00 0. -1.
         -3    1    6    6    0  503  0.10155831472E+03 -0.16163729447E+02 -0.85171392441E+02  0.13352723890E+03  0.00000000000E+00 0.  1.
<mgrwt>
<rscale>  0 0.21783346E+04</rscale>
<asrwt>0</asrwt>
<pdfrwt beam="1">  1        1 0.10649140E+00 0.21783346E+04</pdfrwt>
<pdfrwt beam="2">  1       -1 0.26366225E+00 0.21783346E+04</pdfrwt>
<totfact> 0.14379509E+00</totfact>
</mgrwt>
</event>
<event>
12    3  0.4688899E-008  0.1064278E+04  0.7818608E-02  0.9240726E-01
          2   -1    0    0  501    0  0.00000000000E+00  0.00000000000E+00  0.66536786422E+03  0.66536786422E+03  0.00000000000E+00 0. -1.
         -2   -1    0    0    0  501 -0.00000000000E+00 -0.00000000000E+00 -0.42558691475E+03  0.42558691475E+03  0.00000000000E+00 0.  1.
         23    2    1    2    0    0  0.92548536009E+02  0.24825817419E+02  0.11730227893E+03  0.17652509072E+03  0.90662728199E+02 0.  0.
        254    2    1    2    0    0 -0.92548536009E+02 -0.24825817419E+02  0.12247867054E+03  0.91442968824E+03  0.90110991409E+03 0.  0.
         23    2    4    4    0    0  0.73661549060E+02 -0.43113247565E+03 -0.81988234970E+01  0.44704923997E+03  0.92111708714E+02 0.  0.
         23    2    4    4    0    0 -0.16621008507E+03  0.40630665823E+03  0.13067749404E+03  0.46738044827E+03  0.93042909830E+02 0.  0.
          2    1    3    3  502    0  0.60782935387E+02  0.32426472220E+02  0.12521728459E+03  0.14291749261E+03  0.00000000000E+00 0. -1.
         -2    1    3    3    0  502  0.31765600622E+02 -0.76006548012E+01 -0.79150056567E+01  0.33607598112E+02  0.00000000000E+00 0.  1.
         13    1    5    5    0    0  0.70396838777E+02 -0.33833295046E+03  0.29490257515E+02  0.34683508411E+03  0.00000000000E+00 0. -1.
        -13    1    5    5    0    0  0.32647102825E+01 -0.92799525190E+02 -0.37689081012E+02  0.10021415587E+03  0.00000000000E+00 0.  1.
          2    1    6    6  503    0 -0.15655122636E+03  0.37154709583E+03  0.14514356443E+03  0.42851159283E+03  0.00000000000E+00 0. -1.
         -2    1    6    6    0  503 -0.96588587056E+01  0.34759562408E+02 -0.14466070396E+02  0.38868855437E+02  0.00000000000E+00 0.  1.
<mgrwt>
<rscale>  0 0.10642779E+04</rscale>
<asrwt>0</asrwt>
<pdfrwt beam="1">  1        2 0.10236429E+00 0.10642779E+04</pdfrwt>
<pdfrwt beam="2">  1       -2 0.65474910E-01 0.10642779E+04</pdfrwt>
<totfact> 0.93443702E+01</totfact>
</mgrwt>
</event>
<event>
12    3  0.4688899E-008  0.1670150E+04  0.7818608E-02  0.8778575E-01
         -1   -1    0    0    0  501 -0.00000000000E+00  0.00000000000E+00  0.96151476407E+03  0.96151476407E+03  0.00000000000E+00 0.  1.
          1   -1    0    0  501    0  0.00000000000E+00 -0.00000000000E+00 -0.72526172160E+03  0.72526172160E+03  0.00000000000E+00 0. -1.
         23    2    1    2    0    0  0.50174738557E+03 -0.29194139426E+03  0.18183814695E+03  0.61410494156E+03  0.84140067513E+02 0.  0.
        254    2    1    2    0    0 -0.50174738557E+03  0.29194139426E+03  0.54414895519E+02  0.10726715441E+04  0.90037938897E+03 0.  0.
         23    2    4    4    0    0  0.30640290033E+02 -0.85751856779E+02 -0.29822939756E+03  0.32520211059E+03  0.92322428713E+02 0.  0.
         23    2    4    4    0    0 -0.53238767560E+03  0.37769325104E+03  0.35264429308E+03  0.74746943352E+03  0.90905047174E+02 0.  0.
          4    1    3    3  502    0  0.40962802096E+03 -0.22103867845E+03  0.17629077797E+03  0.49772648244E+03  0.00000000000E+00 0. -1.
         -4    1    3    3    0  502  0.92119364602E+02 -0.70902715811E+02  0.55473689779E+01  0.11637845912E+03  0.00000000000E+00 0.  1.
         13    1    5    5    0    0 -0.21676179195E+02  0.33148705060E+01 -0.91651361938E+02  0.94238088139E+02  0.00000000000E+00 0.  1.
        -13    1    5    5    0    0  0.52316469227E+02 -0.89066727285E+02 -0.20657803563E+03  0.23096402245E+03  0.00000000000E+00 0. -1.
          2    1    6    6  503    0 -0.15028808360E+03  0.15298538985E+03  0.93030485006E+02  0.23376421608E+03  0.00000000000E+00 0. -1.
         -2    1    6    6    0  503 -0.38209959200E+03  0.22470786119E+03  0.25961380808E+03  0.51370521744E+03  0.00000000000E+00 0.  1.
<mgrwt>
<rscale>  0 0.16701495E+04</rscale>
<asrwt>0</asrwt>
<pdfrwt beam="1">  1        1 0.11157873E+00 0.16701495E+04</pdfrwt>
<pdfrwt beam="2">  1       -1 0.14792535E+00 0.16701495E+04</pdfrwt>
<totfact> 0.89171813E+00</totfact>
</mgrwt>
</event>
<event>
12    3  0.4688899E-008  0.2492304E+04  0.7818608E-02  0.8405732E-01
         -1   -1    0    0    0  501 -0.00000000000E+00  0.00000000000E+00  0.11164306910E+04  0.11164306910E+04  0.00000000000E+00 0.  1.
          1   -1    0    0  501    0  0.00000000000E+00 -0.00000000000E+00 -0.13909460440E+04  0.13909460440E+04  0.00000000000E+00 0. -1.
         23    2    1    2    0    0  0.26387850118E+03  0.50597893676E+03 -0.10454714462E+04  0.11945288283E+04  0.90785622148E+02 0.  0.
        254    2    1    2    0    0 -0.26387850118E+03 -0.50597893676E+03  0.77095609321E+03  0.13128479067E+04  0.89640938226E+03 0.  0.
         23    2    4    4    0    0 -0.33019451710E+03 -0.10217375796E+03  0.81576489707E+03  0.89111798536E+03  0.95660862378E+02 0.  0.
         23    2    4    4    0    0  0.66316015912E+02 -0.40380517880E+03 -0.44808803864E+02  0.42172992133E+03  0.91607102619E+02 0.  0.
          4    1    3    3  502    0  0.23245074748E+03  0.36379633595E+03 -0.75980745411E+03  0.87389272304E+03  0.00000000000E+00 0. -1.
         -4    1    3    3    0  502  0.31427753703E+02  0.14218260081E+03 -0.28566399205E+03  0.32063610531E+03  0.00000000000E+00 0.  1.
         13    1    5    5    0    0 -0.14519225057E+03 -0.72311903287E+02  0.28081496907E+03  0.32429438453E+03  0.00000000000E+00 0.  1.
        -13    1    5    5    0    0 -0.18500226653E+03 -0.29861854673E+02  0.53494992800E+03  0.56682360083E+03  0.00000000000E+00 0. -1.
          4    1    6    6  503    0  0.44695356836E+02 -0.33692887131E+03 -0.28870803738E+01  0.33989273966E+03  0.00000000000E+00 0. -1.
         -4    1    6    6    0  503  0.21620659076E+02 -0.66876307487E+02 -0.41921723490E+02  0.81837181662E+02  0.00000000000E+00 0.  1.
<mgrwt>
<rscale>  0 0.24923040E+04</rscale>
<asrwt>0</asrwt>
<pdfrwt beam="1">  1        1 0.21399170E+00 0.24923040E+04</pdfrwt>
<pdfrwt beam="2">  1       -1 0.17175857E+00 0.24923040E+04</pdfrwt>
<totfact> 0.16556073E+00</totfact>
</mgrwt>
</event>
<event>
12    3  0.4688899E-008  0.3062356E+04  0.7818608E-02  0.8226145E-01
         -2   -1    0    0    0  501 -0.00000000000E+00  0.00000000000E+00  0.10768045811E+04  0.10768045811E+04  0.00000000000E+00 0.  1.
          2   -1    0    0  501    0  0.00000000000E+00 -0.00000000000E+00 -0.21772812058E+04  0.21772812058E+04  0.00000000000E+00 0. -1.
         23    2    1    2    0    0 -0.88761367906E+02 -0.34581887866E+03 -0.19395406392E+04  0.19742286097E+04  0.91057316809E+02 0.  0.
        254    2    1    2    0    0  0.88761367906E+02  0.34581887866E+03  0.83906401447E+03  0.12798571773E+04  0.89807388144E+03 0.  0.
         23    2    4    4    0    0  0.43971835975E+03  0.36476281964E+03  0.36951224554E+03  0.68625210725E+03  0.89434359184E+02 0.  0.
         23    2    4    4    0    0 -0.35095699184E+03 -0.18943940972E+02  0.46955176893E+03  0.59360507001E+03  0.91424462903E+02 0.  0.
          2    1    3    3  502    0 -0.64523280670E+02 -0.33565117836E+03 -0.18223745604E+04  0.18541504809E+04  0.00000000000E+00 0. -1.
         -2    1    3    3    0  502 -0.24238087236E+02 -0.10167700309E+02 -0.11716607879E+03  0.12007812883E+03  0.00000000000E+00 0.  1.
         13    1    5    5    0    0  0.11154543232E+03  0.13099609005E+03  0.14499015284E+03  0.22499889667E+03  0.00000000000E+00 0. -1.
        -13    1    5    5    0    0  0.32817292743E+03  0.23376672959E+03  0.22452209270E+03  0.46125321058E+03  0.00000000000E+00 0.  1.
          2    1    6    6  503    0 -0.15276596713E+03 -0.52380595880E+02  0.19130234491E+03  0.25035525699E+03  0.00000000000E+00 0. -1.
         -2    1    6    6    0  503 -0.19819102472E+03  0.33436654908E+02  0.27824942403E+03  0.34324981302E+03  0.00000000000E+00 0.  1.
<mgrwt>
<rscale>  0 0.30623562E+04</rscale>
<asrwt>0</asrwt>
<pdfrwt beam="1">  1        2 0.33496634E+00 0.30623562E+04</pdfrwt>
<pdfrwt beam="2">  1       -2 0.16566224E+00 0.30623562E+04</pdfrwt>
<totfact> 0.10370430E+00</totfact>
</mgrwt>
</event>
<event>
12    3  0.4688899E-008  0.1665636E+04  0.7818608E-02  0.8781210E-01
          2   -1    0    0  501    0  0.00000000000E+00  0.00000000000E+00  0.20641963085E+04  0.20641963085E+04  0.00000000000E+00 0. -1.
         -2   -1    0    0    0  501 -0.00000000000E+00 -0.00000000000E+00 -0.33600775383E+03  0.33600775383E+03  0.00000000000E+00 0.  1.
         23    2    1    2    0    0 -0.87483313374E+02 -0.48785664523E+03  0.17464825065E+03  0.53338091410E+03  0.91300337663E+02 0.  0.
        254    2    1    2    0    0  0.87483313374E+02  0.48785664523E+03  0.15535403041E+04  0.18668231483E+04  0.90878146666E+03 0.  0.
         23    2    4    4    0    0  0.48599721959E+03  0.30954881235E+03  0.77112309745E+03  0.96668237708E+03  0.88488542069E+02 0.  0.
         23    2    4    4    0    0 -0.39851390621E+03  0.17830783288E+03  0.78241720661E+03  0.90014077118E+03  0.86427461068E+02 0.  0.
          2    1    3    3  502    0  0.94594757511E+01 -0.11522032114E+02 -0.40957572984E+01  0.15460081933E+02  0.00000000000E+00 0. -1.
         -2    1    3    3    0  502 -0.96942789125E+02 -0.47633461311E+03  0.17874400795E+03  0.51792083216E+03  0.00000000000E+00 0.  1.
         13    1    5    5    0    0  0.52953747156E+02  0.64673559718E+02  0.14009218549E+03  0.16313365410E+03  0.00000000000E+00 0.  1.
        -13    1    5    5    0    0  0.43304347243E+03  0.24487525263E+03  0.63103091196E+03  0.80354872298E+03  0.00000000000E+00 0. -1.
          4    1    6    6  503    0 -0.25399632744E+03  0.11737765179E+03  0.58097036113E+03  0.64483967620E+03  0.00000000000E+00 0. -1.
         -4    1    6    6    0  503 -0.14451757878E+03  0.60930181086E+02  0.20144684548E+03  0.25530109498E+03  0.00000000000E+00 0.  1.
<mgrwt>
<rscale>  0 0.16656362E+04</rscale>
<asrwt>0</asrwt>
<pdfrwt beam="1">  1        2 0.31756865E+00 0.16656362E+04</pdfrwt>
<pdfrwt beam="2">  1       -2 0.51693502E-01 0.16656362E+04</pdfrwt>
<totfact> 0.20754442E+01</totfact>
</mgrwt>
</event>
<event>
12    3  0.4688899E-008  0.2148277E+04  0.7818608E-02  0.8540270E-01
          1   -1    0    0  501    0  0.00000000000E+00  0.00000000000E+00  0.11931279093E+04  0.11931279093E+04  0.00000000000E+00 0. -1.
         -1   -1    0    0    0  501 -0.00000000000E+00 -0.00000000000E+00 -0.96701593979E+03  0.96701593979E+03  0.00000000000E+00 0.  1.
         23    2    1    2    0    0  0.91230657078E+02  0.65130107717E+03  0.68671532292E+03  0.95515617905E+03  0.90715300451E+02 0.  0.
        254    2    1    2    0    0 -0.91230657078E+02 -0.65130107717E+03 -0.46060335345E+03  0.12049876700E+04  0.89851194188E+03 0.  0.
         23    2    4    4    0    0  0.31458308678E+03 -0.50457031814E+03 -0.52573097414E+02  0.60371485672E+03  0.90299353373E+02 0.  0.
         23    2    4    4    0    0 -0.40581374386E+03 -0.14673075903E+03 -0.40803025603E+03  0.60127281327E+03  0.93944642114E+02 0.  0.
          3    1    3    3  502    0  0.10849680528E+03  0.56807892268E+03  0.58535790289E+03  0.82287854123E+03  0.00000000000E+00 0. -1.
         -3    1    3    3    0  502 -0.17266148200E+02  0.83222154495E+02  0.10135742003E+03  0.13227763782E+03  0.00000000000E+00 0.  1.
         13    1    5    5    0    0  0.78853285963E+02 -0.67514399226E+02  0.42820838354E+01  0.10389596264E+03  0.00000000000E+00 0.  1.
        -13    1    5    5    0    0  0.23572980082E+03 -0.43705591892E+03 -0.56855181250E+02  0.49981889409E+03  0.00000000000E+00 0. -1.
          2    1    6    6  503    0 -0.29526583393E+03 -0.10077355964E+03 -0.23378424551E+03  0.38986189408E+03  0.00000000000E+00 0. -1.
         -2    1    6    6    0  503 -0.11054790993E+03 -0.45957199394E+02 -0.17424601053E+03  0.21141091918E+03  0.00000000000E+00 0.  1.
<mgrwt>
<rscale>  0 0.21482772E+04</rscale>
<asrwt>0</asrwt>
<pdfrwt beam="1">  1        1 0.18355814E+00 0.21482772E+04</pdfrwt>
<pdfrwt beam="2">  1       -1 0.14877168E+00 0.21482772E+04</pdfrwt>
<totfact> 0.35319739E+00</totfact>
</mgrwt>
</event>
<event>
12    3  0.4688899E-008  0.1743799E+04  0.7818608E-02  0.8736771E-01
          2   -1    0    0  501    0  0.00000000000E+00  0.00000000000E+00  0.16368947513E+04  0.16368947513E+04  0.00000000000E+00 0. -1.
         -2   -1    0    0    0  501 -0.00000000000E+00 -0.00000000000E+00 -0.46442134899E+03  0.46442134899E+03  0.00000000000E+00 0.  1.
         23    2    1    2    0    0 -0.34447337214E+03  0.43094857261E+03  0.81724121638E+03  0.99035231660E+03  0.92390090869E+02 0.  0.
        254    2    1    2    0    0  0.34447337214E+03 -0.43094857261E+03  0.35523218592E+03  0.11109637837E+04  0.89647757718E+03 0.  0.
         23    2    4    4    0    0  0.48601817830E+03 -0.23047545400E+02  0.43982258254E+03  0.66148472099E+03  0.85867764654E+02 0.  0.
         23    2    4    4    0    0 -0.14154480616E+03 -0.40790102721E+03 -0.84590396617E+02  0.44947906269E+03  0.91965822130E+02 0.  0.
          1    1    3    3  502    0 -0.33486391214E+03  0.38142906234E+03  0.72168193774E+03  0.88229631560E+03  0.00000000000E+00 0. -1.
         -1    1    3    3    0  502 -0.96094600056E+01  0.49519510272E+02  0.95559278636E+02  0.10805600100E+03  0.00000000000E+00 0.  1.
         13    1    5    5    0    0  0.38124479236E+03  0.15772627637E+02  0.32427881437E+03  0.50075255060E+03  0.00000000000E+00 0.  1.
        -13    1    5    5    0    0  0.10477338595E+03 -0.38820173037E+02  0.11554376817E+03  0.16073217039E+03  0.00000000000E+00 0. -1.
          1    1    6    6  503    0  0.77734438998E+01 -0.74172581076E+01  0.63728598216E+01  0.12492217185E+02  0.00000000000E+00 0. -1.
         -1    1    6    6    0  503 -0.14931825006E+03 -0.40048376911E+03 -0.90963256439E+02  0.43698684550E+03  0.00000000000E+00 0.  1.
<mgrwt>
<rscale>  0 0.17437991E+04</rscale>
<asrwt>0</asrwt>
<pdfrwt beam="1">  1        2 0.25182996E+00 0.17437991E+04</pdfrwt>
<pdfrwt beam="2">  1       -2 0.71449439E-01 0.17437991E+04</pdfrwt>
<totfact> 0.17921351E+01</totfact>
</mgrwt>
</event>
<event>
12    3  0.4688899E-008  0.2387418E+04  0.7818608E-02  0.8444229E-01
          2   -1    0    0  501    0  0.00000000000E+00  0.00000000000E+00  0.40879937937E+04  0.40879937937E+04  0.00000000000E+00 0. -1.
         -2   -1    0    0    0  501 -0.00000000000E+00 -0.00000000000E+00 -0.34856724885E+03  0.34856724885E+03  0.00000000000E+00 0.  1.
         23    2    1    2    0    0  0.27085975258E+03  0.97991429343E+03  0.15993580228E+04  0.18972510847E+04  0.89546442673E+02 0.  0.
        254    2    1    2    0    0 -0.27085975258E+03 -0.97991429343E+03  0.21400685221E+04  0.25393099579E+04  0.91356704997E+03 0.  0.
         23    2    4    4    0    0 -0.38682894180E+03 -0.42973928081E+03  0.17606595403E+04  0.18549084069E+04  0.80316260225E+02 0.  0.
         23    2    4    4    0    0  0.11596918922E+03 -0.55017501262E+03  0.37940898184E+03  0.68440155094E+03  0.91175161531E+02 0.  0.
          4    1    3    3  502    0  0.18556591387E-01  0.11140478826E+02  0.52983327564E+01  0.12336245085E+02  0.00000000000E+00 0.  1.
         -4    1    3    3    0  502  0.27084119599E+03  0.96877381461E+03  0.15940596900E+04  0.18849148396E+04  0.00000000000E+00 0. -1.
         13    1    5    5    0    0 -0.12449914970E+03 -0.17825653979E+03  0.57160770130E+03  0.61156422102E+03  0.00000000000E+00 0. -1.
        -13    1    5    5    0    0 -0.26232979210E+03 -0.25148274103E+03  0.11890518390E+04  0.12433441859E+04  0.00000000000E+00 0.  1.
          3    1    6    6  503    0  0.18974378133E+01 -0.22642726871E+02  0.42391216634E+02  0.48096866822E+02  0.00000000000E+00 0. -1.
         -3    1    6    6    0  503  0.11407175140E+03 -0.52753228575E+03  0.33701776520E+03  0.63630468412E+03  0.00000000000E+00 0.  1.
<mgrwt>
<rscale>  0 0.23874176E+04</rscale>
<asrwt>0</asrwt>
<pdfrwt beam="1">  1        2 0.62892209E+00 0.23874176E+04</pdfrwt>
<pdfrwt beam="2">  1       -2 0.53625734E-01 0.23874176E+04</pdfrwt>
<totfact> 0.85875956E-01</totfact>
</mgrwt>
</event>
<event>
12    3  0.4688899E-008  0.3897765E+04  0.7818608E-02  0.8025494E-01
          1   -1    0    0  501    0  0.00000000000E+00  0.00000000000E+00  0.17840025109E+04  0.17840025109E+04  0.00000000000E+00 0. -1.
         -1   -1    0    0    0  501 -0.00000000000E+00 -0.00000000000E+00 -0.21290005398E+04  0.21290005398E+04  0.00000000000E+00 0.  1.
         23    2    1    2    0    0  0.46211131564E+03 -0.16666965575E+04  0.48048992442E+03  0.17973684315E+04  0.90765787516E+02 0.  0.
        254    2    1    2    0    0 -0.46211131564E+03  0.16666965575E+04 -0.82548795324E+03  0.21156346192E+04  0.89613347123E+03 0.  0.
         23    2    4    4    0    0 -0.64979226663E+03  0.14369584007E+04 -0.86619348920E+03  0.18016398291E+04  0.92387650241E+02 0.  0.
         23    2    4    4    0    0  0.18768095099E+03  0.22973815683E+03  0.40705535960E+02  0.31399479015E+03  0.94509404388E+02 0.  0.
          3    1    3    3  502    0  0.14157108879E+01 -0.68059769852E+01  0.90015000470E+01  0.11373326828E+02  0.00000000000E+00 0. -1.
         -3    1    3    3    0  502  0.46069560475E+03 -0.16598905805E+04  0.47148842438E+03  0.17859951047E+04  0.00000000000E+00 0.  1.
         13    1    5    5    0    0 -0.17462131201E+03  0.29490710063E+03 -0.19461486763E+03  0.39412909981E+03  0.00000000000E+00 0. -1.
        -13    1    5    5    0    0 -0.47517095462E+03  0.11420513000E+04 -0.67157862157E+03  0.14075107293E+04  0.00000000000E+00 0.  1.
          1    1    6    6  503    0  0.88097390114E+02  0.56069946207E+02 -0.16652096391E+02  0.10574630644E+03  0.00000000000E+00 0. -1.
         -1    1    6    6    0  503  0.99583560873E+02  0.17366821063E+03  0.57357632351E+02  0.20824848371E+03  0.00000000000E+00 0.  1.
<mgrwt>
<rscale>  0 0.38977646E+04</rscale>
<asrwt>0</asrwt>
<pdfrwt beam="1">  1        1 0.27446193E+00 0.38977646E+04</pdfrwt>
<pdfrwt beam="2">  1       -1 0.32753854E+00 0.38977646E+04</pdfrwt>
<totfact> 0.72015425E-02</totfact>
</mgrwt>
</event>
<event>
12    3  0.4688899E-008  0.2783249E+04  0.7818608E-02  0.8308488E-01
         -2   -1    0    0    0  501 -0.00000000000E+00  0.00000000000E+00  0.10443909785E+04  0.10443909785E+04  0.00000000000E+00 0.  1.
          2   -1    0    0  501    0  0.00000000000E+00 -0.00000000000E+00 -0.18543048598E+04  0.18543048598E+04  0.00000000000E+00 0. -1.
         23    2    1    2    0    0 -0.49651969691E+03 -0.40380905912E+03  0.74692968785E+03  0.98767731168E+03  0.89492724625E+02 0.  0.
        254    2    1    2    0    0  0.49651969691E+03  0.40380905912E+03 -0.15568435692E+04  0.19110185267E+04  0.90478524782E+03 0.  0.
         23    2    4    4    0    0  0.73070361141E+03  0.15050142622E+03 -0.10642890268E+04  0.13029910348E+04  0.92174058213E+02 0.  0.
         23    2    4    4    0    0 -0.23418391450E+03  0.25330763289E+03 -0.49255454237E+03  0.60802749191E+03  0.89892107657E+02 0.  0.
          2    1    3    3  502    0 -0.70671811761E+02 -0.10182084836E+03  0.13328347744E+03  0.18200680069E+03  0.00000000000E+00 0. -1.
         -2    1    3    3    0  502 -0.42584788515E+03 -0.30198821076E+03  0.61364621042E+03  0.80567051099E+03  0.00000000000E+00 0.  1.
         13    1    5    5    0    0  0.15503792357E+01 -0.53652980711E+01 -0.44304444159E+01  0.71287402035E+01  0.00000000000E+00 0. -1.
        -13    1    5    5    0    0  0.72915323218E+03  0.15586672429E+03 -0.10598585824E+04  0.12958622946E+04  0.00000000000E+00 0.  1.
          2    1    6    6  503    0 -0.24099781775E+03  0.24912107792E+03 -0.48872506457E+03  0.59916061984E+03  0.00000000000E+00 0.  1.
         -2    1    6    6    0  503  0.68139032560E+01  0.41865549708E+01 -0.38294777980E+01  0.88668720703E+01  0.00000000000E+00 0. -1.
<mgrwt>
<rscale>  0 0.27832494E+04</rscale>
<asrwt>0</asrwt>
<pdfrwt beam="1">  1        2 0.28527767E+00 0.27832494E+04</pdfrwt>
<pdfrwt beam="2">  1       -2 0.16067554E+00 0.27832494E+04</pdfrwt>
<totfact> 0.17469352E+00</totfact>
</mgrwt>
</event>
<event>
12    3  0.4688899E-008  0.1602782E+04  0.7818608E-02  0.8818841E-01
          2   -1    0    0  501    0  0.00000000000E+00  0.00000000000E+00  0.93973698576E+03  0.93973698576E+03  0.00000000000E+00 0.  1.
         -2   -1    0    0    0  501 -0.00000000000E+00 -0.00000000000E+00 -0.68341221420E+03  0.68341221420E+03  0.00000000000E+00 0. -1.
         23    2    1    2    0    0  0.68323455083E+02  0.19860204353E+01  0.62463003006E+03  0.63522022087E+03  0.93112919370E+02 0.  0.
        254    2    1    2    0    0 -0.68323455083E+02 -0.19860204353E+01 -0.36830525849E+03  0.98792897909E+03  0.91415691514E+03 0.  0.
         23    2    4    4    0    0 -0.70936764566E+02 -0.43998870969E+03 -0.27326166147E+03  0.53054998914E+03  0.90494564069E+02 0.  0.
         23    2    4    4    0    0  0.26133094831E+01  0.43800268926E+03 -0.95043597020E+02  0.45737898995E+03  0.91154099908E+02 0.  0.
          3    1    3    3  502    0  0.26718087002E+02  0.26440395316E+02  0.79288348974E+02  0.87747324520E+02  0.00000000000E+00 0. -1.
         -3    1    3    3    0  502  0.41605368080E+02 -0.24454374880E+02  0.54534168109E+03  0.54747289635E+03  0.00000000000E+00 0.  1.
         13    1    5    5    0    0 -0.65793610659E+02 -0.18157527693E+03 -0.86182030797E+02  0.21148456877E+03  0.00000000000E+00 0. -1.
        -13    1    5    5    0    0 -0.51431539065E+01 -0.25841343276E+03 -0.18707963068E+03  0.31906542037E+03  0.00000000000E+00 0.  1.
          3    1    6    6  503    0  0.42111499616E+02  0.16753306445E+03 -0.53920167992E+02  0.18096433516E+03  0.00000000000E+00 0. -1.
         -3    1    6    6    0  503 -0.39498190133E+02  0.27046962480E+03 -0.41123429028E+02  0.27641465479E+03  0.00000000000E+00 0.  1.
<mgrwt>
<rscale>  0 0.16027822E+04</rscale>
<asrwt>0</asrwt>
<pdfrwt beam="1">  1        2 0.14457492E+00 0.16027822E+04</pdfrwt>
<pdfrwt beam="2">  1       -2 0.10514034E+00 0.16027822E+04</pdfrwt>
<totfact> 0.19375945E+01</totfact>
</mgrwt>
</event>
<event>
12    3  0.4688899E-008  0.1491339E+04  0.7818608E-02  0.8890233E-01
         -2   -1    0    0    0  501 -0.00000000000E+00  0.00000000000E+00  0.20043066158E+04  0.20043066158E+04  0.00000000000E+00 0.  1.
          2   -1    0    0  501    0  0.00000000000E+00 -0.00000000000E+00 -0.27741432896E+03  0.27741432896E+03  0.00000000000E+00 0. -1.
         23    2    1    2    0    0  0.14573518468E+03  0.41776544760E+03  0.71975119082E+03  0.84979942773E+03  0.91381493783E+02 0.  0.
        254    2    1    2    0    0 -0.14573518468E+03 -0.41776544760E+03  0.10071410960E+04  0.14319215171E+04  0.91667842258E+03 0.  0.
         23    2    4    4    0    0  0.26616681770E+03  0.12472097664E+03  0.18227255073E+03  0.35793188275E+03  0.92151251107E+02 0.  0.
         23    2    4    4    0    0 -0.41190200238E+03 -0.54248642425E+03  0.82486854530E+03  0.10739896343E+04  0.95345883603E+02 0.  0.
          1    1    3    3  502    0  0.11286854454E+03  0.35975787332E+03  0.54457516745E+03  0.66236481547E+03  0.00000000000E+00 0. -1.
         -1    1    3    3    0  502  0.32866640142E+02  0.58007574283E+02  0.17517602338E+03  0.18743461226E+03  0.00000000000E+00 0.  1.
         13    1    5    5    0    0  0.13433127090E+03  0.10461871241E+03  0.71901846914E+02  0.18482381047E+03  0.00000000000E+00 0.  1.
        -13    1    5    5    0    0  0.13183554680E+03  0.20102264235E+02  0.11037070382E+03  0.17310807228E+03  0.00000000000E+00 0. -1.
          4    1    6    6  503    0 -0.84947798293E+02 -0.60950151240E+02  0.14928899839E+03  0.18225875675E+03  0.00000000000E+00 0. -1.
         -4    1    6    6    0  503 -0.32695420409E+03 -0.48153627301E+03  0.67557954690E+03  0.89173087756E+03  0.00000000000E+00 0.  1.
<mgrwt>
<rscale>  0 0.14913395E+04</rscale>
<asrwt>0</asrwt>
<pdfrwt beam="1">  1        2 0.42679129E-01 0.14913395E+04</pdfrwt>
<pdfrwt beam="2">  1       -2 0.30835486E+00 0.14913395E+04</pdfrwt>
<totfact> 0.32863322E+00</totfact>
</mgrwt>
</event>
<event>
12    3  0.4688899E-008  0.1846177E+04  0.7818608E-02  0.8682122E-01
          1   -1    0    0  501    0  0.00000000000E+00  0.00000000000E+00  0.32170222042E+04  0.32170222042E+04  0.00000000000E+00 0. -1.
         -1   -1    0    0    0  501 -0.00000000000E+00 -0.00000000000E+00 -0.26486977014E+03  0.26486977014E+03  0.00000000000E+00 0.  1.
         23    2    1    2    0    0  0.19486573722E+03 -0.54744643327E+03  0.18682789144E+04  0.19586735819E+04  0.90916697075E+02 0.  0.
        254    2    1    2    0    0 -0.19486573722E+03  0.54744643327E+03  0.10838735197E+04  0.15232183924E+04  0.89874479772E+03 0.  0.
         23    2    4    4    0    0  0.50247919559E+02 -0.16002632689E+03 -0.13344754150E+02  0.19173155747E+03  0.91921863276E+02 0.  0.
         23    2    4    4    0    0 -0.24511365678E+03  0.70747276016E+03  0.10972182738E+04  0.13314868349E+04  0.91492295049E+02 0.  0.
          1    1    3    3  502    0  0.26414910964E+02 -0.13234850622E+03  0.33110137434E+03  0.35754998910E+03  0.00000000000E+00 0. -1.
         -1    1    3    3    0  502  0.16845082625E+03 -0.41509792705E+03  0.15371775400E+04  0.16011235928E+04  0.00000000000E+00 0.  1.
         13    1    5    5    0    0  0.11834345770E+02 -0.94449184314E+02 -0.49814349319E+02  0.10743448960E+03  0.00000000000E+00 0. -1.
        -13    1    5    5    0    0  0.38413573789E+02 -0.65577142578E+02  0.36469595169E+02  0.84297067872E+02  0.00000000000E+00 0.  1.
          1    1    6    6  503    0 -0.24754441307E+03  0.70790222087E+03  0.10972174815E+04  0.13290184319E+04  0.00000000000E+00 0. -1.
         -1    1    6    6    0  503  0.24307562903E+01 -0.42946071452E+00  0.79233620882E-03  0.24684029809E+01  0.00000000000E+00 0.  1.
<mgrwt>
<rscale>  0 0.18461765E+04</rscale>
<asrwt>0</asrwt>
<pdfrwt beam="1">  1        1 0.49492646E+00 0.18461765E+04</pdfrwt>
<pdfrwt beam="2">  1       -1 0.40749198E-01 0.18461765E+04</pdfrwt>
<totfact> 0.22928374E+00</totfact>
</mgrwt>
</event>
<event>
12    3  0.4688899E-008  0.1462680E+04  0.7818608E-02  0.8909656E-01
         -1   -1    0    0    0  501 -0.00000000000E+00  0.00000000000E+00  0.85621070875E+03  0.85621070875E+03  0.00000000000E+00 0.  1.
          1   -1    0    0  501    0  0.00000000000E+00 -0.00000000000E+00 -0.62468082633E+03  0.62468082633E+03  0.00000000000E+00 0. -1.
         23    2    1    2    0    0 -0.34725575444E+02  0.33999525723E+03  0.35625622451E+03  0.50203729643E+03  0.91215727711E+02 0.  0.
        254    2    1    2    0    0  0.34725575444E+02 -0.33999525723E+03 -0.12472634208E+03  0.97885423865E+03  0.90873336001E+03 0.  0.
         23    2    4    4    0    0  0.19537820449E+03 -0.26478749118E+03 -0.46880177206E+03  0.58060702942E+03  0.95101855143E+02 0.  0.
         23    2    4    4    0    0 -0.16065262904E+03 -0.75207766050E+02  0.34407542997E+03  0.39824720924E+03  0.93527872115E+02 0.  0.
          3    1    3    3  502    0 -0.85898002819E+01  0.79961832675E+01 -0.30564304833E+01  0.12127051704E+02  0.00000000000E+00 0. -1.
         -3    1    3    3    0  502 -0.26135775162E+02  0.33199907396E+03  0.35931265499E+03  0.48991024473E+03  0.00000000000E+00 0.  1.
         13    1    5    5    0    0  0.25178811417E+01 -0.44933568065E+02 -0.10199319560E+03  0.11148083787E+03  0.00000000000E+00 0.  1.
        -13    1    5    5    0    0  0.19286032334E+03 -0.21985392311E+03 -0.36680857646E+03  0.46912619154E+03  0.00000000000E+00 0. -1.
          1    1    6    6  503    0 -0.16412448396E+03 -0.85731942156E+02  0.33851430905E+03  0.38584809131E+03  0.00000000000E+00 0. -1.
         -1    1    6    6    0  503  0.34718549205E+01  0.10524176106E+02  0.55611209232E+01  0.12399117921E+02  0.00000000000E+00 0.  1.
<mgrwt>
<rscale>  0 0.14626803E+04</rscale>
<asrwt>0</asrwt>
<pdfrwt beam="1">  1        1 0.96104742E-01 0.14626803E+04</pdfrwt>
<pdfrwt beam="2">  1       -1 0.13172472E+00 0.14626803E+04</pdfrwt>
<totfact> 0.15372287E+01</totfact>
</mgrwt>
</event>
<event>
12    3  0.4688899E-008  0.1489956E+04  0.7818608E-02  0.8891160E-01
         -2   -1    0    0    0  501 -0.00000000000E+00  0.00000000000E+00  0.50216626516E+03  0.50216626516E+03  0.00000000000E+00 0.  1.
          2   -1    0    0  501    0  0.00000000000E+00 -0.00000000000E+00 -0.11051956336E+04  0.11051956336E+04  0.00000000000E+00 0. -1.
         23    2    1    2    0    0  0.41646747736E+03 -0.15377257225E+03 -0.36394599200E+03  0.58100746851E+03  0.89564667728E+02 0.  0.
        254    2    1    2    0    0 -0.41646747736E+03  0.15377257225E+03 -0.23908337643E+03  0.10263544302E+04  0.89395267879E+03 0.  0.
         23    2    4    4    0    0 -0.60369392397E+03  0.11116938019E+03  0.96716201302E+02  0.62824479556E+03  0.92371611574E+02 0.  0.
         23    2    4    4    0    0  0.18722644662E+03  0.42603192059E+02 -0.33579957773E+03  0.39810963467E+03  0.94133684349E+02 0.  0.
          2    1    3    3  502    0  0.52656540650E+02  0.47276498803E+01 -0.22357834642E+02  0.57401521900E+02  0.00000000000E+00 0.  1.
         -2    1    3    3    0  502  0.36381093671E+03 -0.15850022213E+03 -0.34158815736E+03  0.52360594661E+03  0.00000000000E+00 0. -1.
         13    1    5    5    0    0  0.23494877505E+01  0.10063333612E+01  0.48164766354E+01  0.54526366744E+01  0.00000000000E+00 0.  1.
        -13    1    5    5    0    0 -0.60604341172E+03  0.11016304683E+03  0.91899724667E+02  0.62279215889E+03  0.00000000000E+00 0. -1.
          2    1    6    6  503    0  0.16745949774E+03  0.15249004799E+01 -0.27730489880E+03  0.32394909415E+03  0.00000000000E+00 0. -1.
         -2    1    6    6    0  503  0.19766948878E+02  0.41078291579E+02 -0.58494678936E+02  0.74160540524E+02  0.00000000000E+00 0.  1.
<mgrwt>
<rscale>  0 0.14899557E+04</rscale>
<asrwt>0</asrwt>
<pdfrwt beam="1">  1        2 0.17003010E+00 0.14899557E+04</pdfrwt>
<pdfrwt beam="2">  1       -2 0.77256348E-01 0.14899557E+04</pdfrwt>
<totfact> 0.31262955E+01</totfact>
</mgrwt>
</event>
<event>
12    3  0.4688899E-008  0.1508486E+04  0.7818608E-02  0.8878829E-01
         -2   -1    0    0    0  501 -0.00000000000E+00  0.00000000000E+00  0.63246417334E+03  0.63246417334E+03  0.00000000000E+00 0.  1.
          2   -1    0    0  501    0  0.00000000000E+00 -0.00000000000E+00 -0.89947007278E+03  0.89947007278E+03  0.00000000000E+00 0. -1.
         23    2    1    2    0    0 -0.38474306600E+03 -0.16375060592E+03  0.15867772367E+03  0.45367582996E+03  0.76168569145E+02 0.  0.
        254    2    1    2    0    0  0.38474306600E+03  0.16375060592E+03 -0.42568362311E+03  0.10782584162E+04  0.89810532637E+03 0.  0.
         23    2    4    4    0    0  0.56593998888E+02 -0.34850238894E+03 -0.23256822797E+03  0.43356788582E+03  0.96105853905E+02 0.  0.
         23    2    4    4    0    0  0.32814906712E+03  0.51225299485E+03 -0.19311539514E+03  0.64469053034E+03  0.90815103806E+02 0.  0.
          3    1    3    3  502    0 -0.22463063466E+03 -0.10547859049E+03  0.54866522850E+02  0.25415544537E+03  0.00000000000E+00 0. -1.
         -3    1    3    3    0  502 -0.16011243134E+03 -0.58272015422E+02  0.10381120082E+03  0.19952038459E+03  0.00000000000E+00 0.  1.
         13    1    5    5    0    0 -0.28637197771E+01  0.37930039021E+01  0.29994420637E+01  0.56200019801E+01  0.00000000000E+00 0.  1.
        -13    1    5    5    0    0  0.59457718665E+02 -0.35229539284E+03 -0.23556767003E+03  0.42794788384E+03  0.00000000000E+00 0. -1.
          1    1    6    6  503    0  0.23525460129E+03  0.40953016703E+03 -0.11663812653E+03  0.48648138473E+03  0.00000000000E+00 0. -1.
         -1    1    6    6    0  503  0.92894465827E+02  0.10272282783E+03 -0.76477268609E+02  0.15820914560E+03  0.00000000000E+00 0.  1.
<mgrwt>
<rscale>  0 0.15084861E+04</rscale>
<asrwt>0</asrwt>
<pdfrwt beam="1">  1        2 0.13838001E+00 0.15084861E+04</pdfrwt>
<pdfrwt beam="2">  1       -2 0.97302182E-01 0.15084861E+04</pdfrwt>
<totfact> 0.24972353E+01</totfact>
</mgrwt>
</event>
<event>
12    3  0.4688899E-008  0.3530954E+04  0.7818608E-02  0.8106493E-01
         -1   -1    0    0    0  501 -0.00000000000E+00  0.00000000000E+00  0.93598050097E+03  0.93598050097E+03  0.00000000000E+00 0.  1.
          1   -1    0    0  501    0  0.00000000000E+00 -0.00000000000E+00 -0.33301005562E+04  0.33301005562E+04  0.00000000000E+00 0. -1.
         23    2    1    2    0    0 -0.10174354763E+04  0.12971793238E+04 -0.99761270539E+03  0.19291519676E+04  0.92450297384E+02 0.  0.
        254    2    1    2    0    0  0.10174354763E+04 -0.12971793238E+04 -0.13965073499E+04  0.23369290896E+04  0.89059286158E+03 0.  0.
         23    2    4    4    0    0  0.28922532035E+03 -0.10362189790E+03  0.48629688071E+02  0.32404453526E+03  0.90836284683E+02 0.  0.
         23    2    4    4    0    0  0.72821015599E+03 -0.11935574259E+04 -0.14451370380E+04  0.20128845544E+04  0.91726825803E+02 0.  0.
          3    1    3    3  502    0 -0.19560089648E+02  0.11367215125E+02 -0.21971837509E+02  0.31536840842E+02  0.00000000000E+00 0. -1.
         -3    1    3    3    0  502 -0.99787538669E+03  0.12858121087E+04 -0.97564086788E+03  0.18976151267E+04  0.00000000000E+00 0.  1.
         13    1    5    5    0    0  0.78119459974E+02 -0.58108507827E+02 -0.15904576634E+02  0.98651934935E+02  0.00000000000E+00 0. -1.
        -13    1    5    5    0    0  0.21110586037E+03 -0.45513390072E+02  0.64534264704E+02  0.22539260032E+03  0.00000000000E+00 0.  1.
          2    1    6    6  503    0  0.15985148732E+03 -0.33087692510E+03 -0.40597590841E+03  0.54758421797E+03  0.00000000000E+00 0. -1.
         -2    1    6    6    0  503  0.56835866867E+03 -0.86268050079E+03 -0.10391611295E+04  0.14653003364E+04  0.00000000000E+00 0.  1.
<mgrwt>
<rscale>  0 0.35309541E+04</rscale>
<asrwt>0</asrwt>
<pdfrwt beam="1">  1        1 0.51232317E+00 0.35309541E+04</pdfrwt>
<pdfrwt beam="2">  1       -1 0.14399700E+00 0.35309541E+04</pdfrwt>
<totfact> 0.10713085E-01</totfact>
</mgrwt>
</event>
<event>
12    3  0.4688899E-008  0.1423087E+04  0.7818608E-02  0.8937275E-01
         -2   -1    0    0    0  501 -0.00000000000E+00  0.00000000000E+00  0.26479997108E+03  0.26479997108E+03  0.00000000000E+00 0.  1.
          2   -1    0    0  501    0  0.00000000000E+00 -0.00000000000E+00 -0.19119863213E+04  0.19119863213E+04  0.00000000000E+00 0. -1.
         23    2    1    2    0    0 -0.33108580242E+03 -0.12640284738E+03 -0.13302032966E+03  0.38840186751E+03  0.86983413304E+02 0.  0.
        254    2    1    2    0    0  0.33108580242E+03  0.12640284738E+03 -0.15141660206E+04  0.17883844249E+04  0.88319002762E+03 0.  0.
         23    2    4    4    0    0 -0.42551409905E+02  0.43803681234E+03 -0.60774109061E+03  0.75555921969E+03  0.88507795030E+02 0.  0.
         23    2    4    4    0    0  0.37363721233E+03 -0.31163396496E+03 -0.90642492996E+03  0.10328252052E+04  0.91658367124E+02 0.  0.
          2    1    3    3  502    0 -0.52089489009E+02 -0.56954583071E+02 -0.33716114010E+02  0.84225386565E+02  0.00000000000E+00 0. -1.
         -2    1    3    3    0  502 -0.27899631341E+03 -0.69448264310E+02 -0.99304215652E+02  0.30417648095E+03  0.00000000000E+00 0.  1.
         13    1    5    5    0    0 -0.45821833347E+02  0.19728164074E+03 -0.21903783808E+03  0.29832408669E+03  0.00000000000E+00 0.  1.
        -13    1    5    5    0    0  0.32704234426E+01  0.24075517160E+03 -0.38870325253E+03  0.45723513300E+03  0.00000000000E+00 0. -1.
          4    1    6    6  503    0  0.25917006064E+00  0.41714012466E+01 -0.20222328691E+02  0.20649705450E+02  0.00000000000E+00 0. -1.
         -4    1    6    6    0  503  0.37337804227E+03 -0.31580536621E+03 -0.88620260127E+03  0.10121754997E+04  0.00000000000E+00 0.  1.
<mgrwt>
<rscale>  0 0.14230867E+04</rscale>
<asrwt>0</asrwt>
<pdfrwt beam="1">  1        2 0.29415174E+00 0.14230867E+04</pdfrwt>
<pdfrwt beam="2">  1       -2 0.40738457E-01 0.14230867E+04</pdfrwt>
<totfact> 0.41469507E+01</totfact>
</mgrwt>
</event>
<event>
12    3  0.4688899E-008  0.2259862E+04  0.7818608E-02  0.8493917E-01
         -2   -1    0    0    0  501 -0.00000000000E+00  0.00000000000E+00  0.95075176058E+03  0.95075176058E+03  0.00000000000E+00 0. -1.
          2   -1    0    0  501    0  0.00000000000E+00 -0.00000000000E+00 -0.13428786172E+04  0.13428786172E+04  0.00000000000E+00 0.  1.
         23    2    1    2    0    0  0.61345236146E+03 -0.16287395643E+03 -0.83732273494E+03  0.10546366879E+04  0.91090369989E+02 0.  0.
        254    2    1    2    0    0 -0.61345236146E+03  0.16287395643E+03  0.44519587831E+03  0.12389936899E+04  0.96646483028E+03 0.  0.
         23    2    4    4    0    0 -0.82284810794E+03  0.32521376721E+02  0.50449424519E+03  0.96937303840E+03  0.83862956425E+02 0.  0.
         23    2    4    4    0    0  0.20939574649E+03  0.13035257971E+03 -0.59298366889E+02  0.26962065152E+03  0.91327026281E+02 0.  0.
          3    1    3    3  502    0  0.13335131157E+03 -0.54182188638E+02 -0.13772945233E+03  0.19921767969E+03  0.00000000000E+00 0. -1.
         -3    1    3    3    0  502  0.48010104989E+03 -0.10869176779E+03 -0.69959328260E+03  0.85541900818E+03  0.00000000000E+00 0.  1.
         13    1    5    5    0    0 -0.78764827495E+02  0.25598783598E+02  0.63848403593E+02  0.10457444436E+03  0.00000000000E+00 0. -1.
        -13    1    5    5    0    0 -0.74408328045E+03  0.69225931230E+01  0.44064584160E+03  0.86479859404E+03  0.00000000000E+00 0.  1.
          1    1    6    6  503    0  0.48899454900E+02  0.68771749477E+02 -0.48609778795E+02  0.97383883729E+02  0.00000000000E+00 0. -1.
         -1    1    6    6    0  503  0.16049629159E+03  0.61580830231E+02 -0.10688588093E+02  0.17223676779E+03  0.00000000000E+00 0.  1.
<mgrwt>
<rscale>  0 0.22598621E+04</rscale>
<asrwt>0</asrwt>
<pdfrwt beam="1">  1        2 0.20659671E+00 0.22598621E+04</pdfrwt>
<pdfrwt beam="2">  1       -2 0.14626950E+00 0.22598621E+04</pdfrwt>
<totfact> 0.45475680E+00</totfact>
</mgrwt>
</event>
<event>
12    3  0.5542457E-008  0.2543299E+04  0.7818608E-02  0.8387720E-01
          1   -1    0    0  501    0  0.00000000000E+00  0.00000000000E+00  0.22601970700E+04  0.22601970700E+04  0.00000000000E+00 0. -1.
         -1   -1    0    0    0  501 -0.00000000000E+00 -0.00000000000E+00 -0.71546542845E+03  0.71546542845E+03  0.00000000000E+00 0.  1.
         23    2    1    2    0    0  0.52384714490E+02 -0.66422406509E+03  0.17055169276E+04  0.18326681252E+04  0.77114847128E+02 0.  0.
        254    2    1    2    0    0 -0.52384714490E+02  0.66422406509E+03 -0.16078528603E+03  0.11429943733E+04  0.91468380454E+03 0.  0.
         23    2    4    4    0    0  0.28410407018E+03  0.52771425185E+02 -0.29935731054E+03  0.42599557923E+03  0.91419298523E+02 0.  0.
         23    2    4    4    0    0 -0.33648878467E+03  0.61145263991E+03  0.13857202451E+03  0.71699879409E+03  0.88238493267E+02 0.  0.
          1    1    3    3  502    0  0.71314946504E+02 -0.55609051152E+03  0.14463901544E+04  0.15512469041E+04  0.00000000000E+00 0. -1.
         -1    1    3    3    0  502 -0.18930232015E+02 -0.10813355358E+03  0.25912677316E+03  0.28142122106E+03  0.00000000000E+00 0.  1.
         13    1    5    5    0    0  0.16354156279E+03 -0.12205114134E+02 -0.13785243460E+03  0.21423842162E+03  0.00000000000E+00 0. -1.
        -13    1    5    5    0    0  0.12056250739E+03  0.64976539319E+02 -0.16150487594E+03  0.21175715762E+03  0.00000000000E+00 0.  1.
          1    1    6    6  503    0 -0.30247753484E+03  0.56921205367E+03  0.10464110430E+03  0.65302739746E+03  0.00000000000E+00 0. -1.
         -1    1    6    6    0  503 -0.34011249831E+02  0.42240586238E+02  0.33930920208E+02  0.63971396631E+02  0.00000000000E+00 0.  1.
<mgrwt>
<rscale>  0 0.25432993E+04</rscale>
<asrwt>0</asrwt>
<pdfrwt beam="1">  1        1 0.34772262E+00 0.25432993E+04</pdfrwt>
<pdfrwt beam="2">  1       -1 0.11007161E+00 0.25432993E+04</pdfrwt>
<totfact> 0.13361290E+00</totfact>
</mgrwt>
</event>
<event>
12    3  0.4688899E-008  0.1562001E+04  0.7818608E-02  0.8844238E-01
         -2   -1    0    0    0  501 -0.00000000000E+00  0.00000000000E+00  0.47472044307E+03  0.47472044307E+03  0.00000000000E+00 0.  1.
          2   -1    0    0  501    0  0.00000000000E+00 -0.00000000000E+00 -0.12848868052E+04  0.12848868052E+04  0.00000000000E+00 0. -1.
         23    2    1    2    0    0 -0.32124448905E+03 -0.34647650444E+03 -0.50452957244E+03  0.69713690691E+03  0.90585802597E+02 0.  0.
        254    2    1    2    0    0  0.32124448905E+03  0.34647650444E+03 -0.30563678968E+03  0.10624703413E+04  0.90121328727E+03 0.  0.
         23    2    4    4    0    0  0.38128596738E+03  0.18920332421E+03 -0.58113583196E+03  0.72592637315E+03  0.89851862745E+02 0.  0.
         23    2    4    4    0    0 -0.60041478336E+02  0.15727318023E+03  0.27549904228E+03  0.33654396819E+03  0.94985724645E+02 0.  0.
          4    1    3    3  502    0 -0.31345229945E+03 -0.33843336743E+03 -0.50722943654E+03  0.68561737837E+03  0.00000000000E+00 0. -1.
         -4    1    3    3    0  502 -0.77921895927E+01 -0.80431370131E+01  0.26998641013E+01  0.11519528542E+02  0.00000000000E+00 0.  1.
         13    1    5    5    0    0  0.33183177425E+03  0.12712927741E+03 -0.48540789111E+03  0.60157709425E+03  0.00000000000E+00 0. -1.
        -13    1    5    5    0    0  0.49454193136E+02  0.62074046798E+02 -0.95727940848E+02  0.12434927890E+03  0.00000000000E+00 0.  1.
          1    1    6    6  503    0 -0.78817537331E+02  0.10794879056E+03  0.15300619685E+03  0.20316506060E+03  0.00000000000E+00 0. -1.
         -1    1    6    6    0  503  0.18776058995E+02  0.49324389676E+02  0.12249284544E+03  0.13337890760E+03  0.00000000000E+00 0.  1.
<mgrwt>
<rscale>  0 0.15620013E+04</rscale>
<asrwt>0</asrwt>
<pdfrwt beam="1">  1        2 0.19767489E+00 0.15620013E+04</pdfrwt>
<pdfrwt beam="2">  1       -2 0.73033915E-01 0.15620013E+04</pdfrwt>
<totfact> 0.27478769E+01</totfact>
</mgrwt>
</event>
<event>
12    3  0.4688899E-008  0.1275160E+04  0.7818608E-02  0.9049499E-01
         -1   -1    0    0    0  501 -0.00000000000E+00  0.00000000000E+00  0.91875634978E+03  0.91875634978E+03  0.00000000000E+00 0.  1.
          1   -1    0    0  501    0  0.00000000000E+00 -0.00000000000E+00 -0.44245509040E+03  0.44245509040E+03  0.00000000000E+00 0. -1.
         23    2    1    2    0    0 -0.17772072454E+03 -0.32528220571E+02 -0.14712298417E+03  0.24967748363E+03  0.89726987568E+02 0.  0.
        254    2    1    2    0    0  0.17772072454E+03  0.32528220571E+02  0.62342424354E+03  0.11115339565E+04  0.90233431058E+03 0.  0.
         23    2    4    4    0    0  0.11571832293E+03  0.38812353861E+03  0.36681603274E+02  0.41657487572E+03  0.90324280103E+02 0.  0.
         23    2    4    4    0    0  0.62002401608E+02 -0.35559531804E+03  0.58674264027E+03  0.69495908082E+03  0.91699891462E+02 0.  0.
          1    1    3    3  502    0 -0.13620554756E+03  0.14583012971E+02 -0.84253677858E+02  0.16082070043E+03  0.00000000000E+00 0. -1.
         -1    1    3    3    0  502 -0.41515176979E+02 -0.47111233542E+02 -0.62869306312E+02  0.88856783205E+02  0.00000000000E+00 0.  1.
         13    1    5    5    0    0  0.10309620502E+03  0.38216706304E+03  0.22182814699E+02  0.39644995753E+03  0.00000000000E+00 0. -1.
        -13    1    5    5    0    0  0.12622117914E+02  0.59564755741E+01  0.14498788575E+02  0.20124918188E+02  0.00000000000E+00 0.  1.
          3    1    6    6  503    0 -0.15423714896E+02 -0.17813736818E+03  0.27930361352E+03  0.33163431887E+03  0.00000000000E+00 0. -1.
         -3    1    6    6    0  503  0.77426116504E+02 -0.17745794986E+03  0.30743902674E+03  0.36332476196E+03  0.00000000000E+00 0.  1.
<mgrwt>
<rscale>  0 0.12751603E+04</rscale>
<asrwt>0</asrwt>
<pdfrwt beam="1">  1        1 0.68070014E-01 0.12751603E+04</pdfrwt>
<pdfrwt beam="2">  1       -1 0.14134713E+00 0.12751603E+04</pdfrwt>
<totfact> 0.21082896E+01</totfact>
</mgrwt>
</event>
<event>
12    3  0.4688899E-008  0.1330208E+04  0.7818608E-02  0.9005947E-01
         -2   -1    0    0    0  501 -0.00000000000E+00  0.00000000000E+00  0.30922303891E+03  0.30922303891E+03  0.00000000000E+00 0.  1.
          2   -1    0    0  501    0  0.00000000000E+00 -0.00000000000E+00 -0.14305632719E+04  0.14305632719E+04  0.00000000000E+00 0. -1.
         23    2    1    2    0    0  0.99783266101E+02 -0.33668300353E+03 -0.25158405275E+03  0.44210512975E+03  0.94075847573E+02 0.  0.
        254    2    1    2    0    0 -0.99783266101E+02  0.33668300353E+03 -0.86975618028E+03  0.12976811811E+04  0.89676557115E+03 0.  0.
         23    2    4    4    0    0  0.25921767212E+03  0.36779220473E+02  0.31469907273E+02  0.27827792147E+03  0.88891697680E+02 0.  0.
         23    2    4    4    0    0 -0.35900093822E+03  0.29990378305E+03 -0.90122608755E+03  0.10194032596E+04  0.90280629848E+02 0.  0.
          2    1    3    3  502    0 -0.13822430201E+02 -0.87442312120E+02 -0.76638777085E+02  0.11709278235E+03  0.00000000000E+00 0. -1.
         -2    1    3    3    0  502  0.11360569630E+03 -0.24924069141E+03 -0.17494527567E+03  0.32501234740E+03  0.00000000000E+00 0.  1.
         13    1    5    5    0    0  0.15987865526E+03 -0.21503384239E+02  0.18555459304E+02  0.16238191098E+03  0.00000000000E+00 0.  1.
        -13    1    5    5    0    0  0.99339016859E+02  0.58282604712E+02  0.12914447969E+02  0.11589601050E+03  0.00000000000E+00 0. -1.
          2    1    6    6  503    0 -0.12586351330E+03  0.91471302652E+02 -0.39287984316E+03  0.42256738439E+03  0.00000000000E+00 0. -1.
         -2    1    6    6    0  503 -0.23313742492E+03  0.20843248040E+03 -0.50834624439E+03  0.59683587523E+03  0.00000000000E+00 0.  1.
<mgrwt>
<rscale>  0 0.13302077E+04</rscale>
<asrwt>0</asrwt>
<pdfrwt beam="1">  1        2 0.22008665E+00 0.13302077E+04</pdfrwt>
<pdfrwt beam="2">  1       -2 0.47572776E-01 0.13302077E+04</pdfrwt>
<totfact> 0.56911981E+01</totfact>
</mgrwt>
</event>
<event>
12    3  0.4688899E-008  0.1154257E+04  0.7818608E-02  0.9153865E-01
         -1   -1    0    0    0  501 -0.00000000000E+00  0.00000000000E+00  0.24008161818E+03  0.24008161818E+03  0.00000000000E+00 0.  1.
          1   -1    0    0  501    0  0.00000000000E+00 -0.00000000000E+00 -0.13873498276E+04  0.13873498276E+04  0.00000000000E+00 0. -1.
         23    2    1    2    0    0 -0.14773702509E+03 -0.59455432761E+02 -0.11992188183E+03  0.21896302044E+03  0.90566933869E+02 0.  0.
        254    2    1    2    0    0  0.14773702509E+03  0.59455432761E+02 -0.10273463276E+04  0.14084684253E+04  0.95025346687E+03 0.  0.
         23    2    4    4    0    0  0.38453065432E+02 -0.42606676160E+03 -0.61961669062E+03  0.75865397938E+03  0.92841227629E+02 0.  0.
         23    2    4    4    0    0  0.10928395966E+03  0.48552219436E+03 -0.40772963696E+03  0.64981444596E+03  0.91326733565E+02 0.  0.
          4    1    3    3  502    0 -0.23870025020E+02 -0.53179420208E+02 -0.48593097038E+02  0.75888852330E+02  0.00000000000E+00 0. -1.
         -4    1    3    3    0  502 -0.12386700007E+03 -0.62760125527E+01 -0.71328784792E+02  0.14307416811E+03  0.00000000000E+00 0.  1.
         13    1    5    5    0    0  0.43253528838E+01 -0.35954628756E+01 -0.41122103096E+02  0.41504980350E+02  0.00000000000E+00 0.  1.
        -13    1    5    5    0    0  0.34127712549E+02 -0.42247129872E+03 -0.57849458752E+03  0.71714899903E+03  0.00000000000E+00 0. -1.
          3    1    6    6  503    0  0.95394435302E+02  0.43808124016E+03 -0.32615000292E+03  0.55442681724E+03  0.00000000000E+00 0. -1.
         -3    1    6    6    0  503  0.13889524358E+02  0.47440954198E+02 -0.81579634046E+02  0.95387628722E+02  0.00000000000E+00 0.  1.
<mgrwt>
<rscale>  0 0.11542568E+04</rscale>
<asrwt>0</asrwt>
<pdfrwt beam="1">  1        1 0.21343843E+00 0.11542568E+04</pdfrwt>
<pdfrwt beam="2">  1       -1 0.36935635E-01 0.11542568E+04</pdfrwt>
<totfact> 0.54807530E+01</totfact>
</mgrwt>
</event>
<event>
12    3  0.4688899E-008  0.1539816E+04  0.7818608E-02  0.8858399E-01
          2   -1    0    0  501    0  0.00000000000E+00  0.00000000000E+00  0.24152648986E+04  0.24152648986E+04  0.00000000000E+00 0. -1.
         -2   -1    0    0    0  501 -0.00000000000E+00 -0.00000000000E+00 -0.24542181428E+03  0.24542181428E+03  0.00000000000E+00 0.  1.
         23    2    1    2    0    0 -0.98153216395E+02  0.29530838832E+03  0.36533958427E+02  0.32848005232E+03  0.98606878838E+02 0.  0.
        254    2    1    2    0    0  0.98153216395E+02 -0.29530838832E+03  0.21333091259E+04  0.23322066605E+04  0.88957235952E+03 0.  0.
         23    2    4    4    0    0 -0.27823721649E+03 -0.13020199467E+03  0.16908404235E+04  0.17210265477E+04  0.92857590318E+02 0.  0.
         23    2    4    4    0    0  0.37639043289E+03 -0.16510639365E+03  0.44246870235E+03  0.61118011282E+03  0.93982437461E+02 0.  0.
          1    1    3    3  502    0  0.10777986622E+02  0.49847859699E+02  0.31388328892E+02  0.59884900458E+02  0.00000000000E+00 0. -1.
         -1    1    3    3    0  502 -0.10893120302E+03  0.24546052862E+03  0.51456295345E+01  0.26859515186E+03  0.00000000000E+00 0.  1.
         13    1    5    5    0    0 -0.27079337899E+03 -0.99899085473E+02  0.15635111334E+04  0.15899295411E+04  0.00000000000E+00 0.  1.
        -13    1    5    5    0    0 -0.74438375037E+01 -0.30302909197E+02  0.12732929010E+03  0.13109700661E+03  0.00000000000E+00 0. -1.
          3    1    6    6  503    0  0.12762920695E+03 -0.58224557478E+02  0.21920000004E+03  0.26024594825E+03  0.00000000000E+00 0. -1.
         -3    1    6    6    0  503  0.24876122594E+03 -0.10688183617E+03  0.22326870231E+03  0.35093416457E+03  0.00000000000E+00 0.  1.
<mgrwt>
<rscale>  0 0.15398165E+04</rscale>
<asrwt>0</asrwt>
<pdfrwt beam="1">  1        2 0.37157920E+00 0.15398165E+04</pdfrwt>
<pdfrwt beam="2">  1       -2 0.37757204E-01 0.15398165E+04</pdfrwt>
<totfact> 0.24890899E+01</totfact>
</mgrwt>
</event>
<event>
12    3  0.4688899E-008  0.1825680E+04  0.7818608E-02  0.8692761E-01
         -1   -1    0    0    0  501 -0.00000000000E+00  0.00000000000E+00  0.94291413513E+03  0.94291413513E+03  0.00000000000E+00 0.  1.
          1   -1    0    0  501    0  0.00000000000E+00 -0.00000000000E+00 -0.88372481422E+03  0.88372481422E+03  0.00000000000E+00 0. -1.
         23    2    1    2    0    0  0.42106972802E+01  0.56084343065E+03 -0.37241278718E+03  0.67919347844E+03  0.89718523313E+02 0.  0.
        254    2    1    2    0    0 -0.42106972802E+01 -0.56084343065E+03  0.43160210808E+03  0.11474454709E+04  0.90320963532E+03 0.  0.
         23    2    4    4    0    0 -0.31594285896E+02  0.22996787566E+03  0.19127810624E+03  0.31450788010E+03  0.91893797298E+02 0.  0.
         23    2    4    4    0    0  0.27383588616E+02 -0.79081130631E+03  0.24032400184E+03  0.83293759081E+03  0.99483773592E+02 0.  0.
          3    1    3    3  502    0  0.11919345632E+01  0.54322666786E+03 -0.33630343798E+03  0.63890268099E+03  0.00000000000E+00 0. -1.
         -3    1    3    3    0  502  0.30187627170E+01  0.17616762795E+02 -0.36109349197E+02  0.40290797450E+02  0.00000000000E+00 0.  1.
         13    1    5    5    0    0 -0.35011612605E+02  0.17866782864E+03  0.94997093861E+02  0.20535932862E+03  0.00000000000E+00 0. -1.
        -13    1    5    5    0    0  0.34173267089E+01  0.51300047020E+02  0.96281012382E+02  0.10914855149E+03  0.00000000000E+00 0.  1.
          3    1    6    6  503    0 -0.33318339776E+02 -0.45759260526E+03  0.13641811909E+03  0.47865541611E+03  0.00000000000E+00 0. -1.
         -3    1    6    6    0  503  0.60701928392E+02 -0.33321870105E+03  0.10390588274E+03  0.35428217470E+03  0.00000000000E+00 0.  1.
<mgrwt>
<rscale>  0 0.18256797E+04</rscale>
<asrwt>0</asrwt>
<pdfrwt beam="1">  1        1 0.13595766E+00 0.18256797E+04</pdfrwt>
<pdfrwt beam="2">  1       -1 0.14506371E+00 0.18256797E+04</pdfrwt>
<totfact> 0.67445380E+00</totfact>
</mgrwt>
</event>
<event>
12    3  0.4688899E-008  0.1219180E+04  0.7818608E-02  0.9096232E-01
          2   -1    0    0  501    0  0.00000000000E+00  0.00000000000E+00  0.14065035136E+04  0.14065035136E+04  0.00000000000E+00 0. -1.
         -2   -1    0    0    0  501 -0.00000000000E+00 -0.00000000000E+00 -0.26420115502E+03  0.26420115502E+03  0.00000000000E+00 0.  1.
         23    2    1    2    0    0 -0.21136014730E+03 -0.42974213876E+02  0.70947781643E+02  0.24454093795E+03  0.90811825723E+02 0.  0.
        254    2    1    2    0    0  0.21136014730E+03  0.42974213876E+02  0.10713545769E+04  0.14261637307E+04  0.91630915210E+03 0.  0.
         23    2    4    4    0    0  0.40530705884E+03 -0.31638252127E+03  0.61937341060E+03  0.81023893793E+03  0.92152064913E+02 0.  0.
         23    2    4    4    0    0 -0.19394691154E+03  0.35935673515E+03  0.45198116634E+03  0.61592479274E+03  0.91234357530E+02 0.  0.
          2    1    3    3  502    0 -0.21584171970E+03 -0.42236551382E+02  0.80306585118E+02  0.23413825370E+03  0.00000000000E+00 0. -1.
         -2    1    3    3    0  502  0.44815723987E+01 -0.73766249379E+00 -0.93588034748E+01  0.10402684250E+02  0.00000000000E+00 0.  1.
         13    1    5    5    0    0  0.55245102359E+02 -0.54709546666E+02  0.49908772576E+02  0.92390699808E+02  0.00000000000E+00 0. -1.
        -13    1    5    5    0    0  0.35006195648E+03 -0.26167297460E+03  0.56946463802E+03  0.71784823812E+03  0.00000000000E+00 0.  1.
          2    1    6    6  503    0 -0.87729173172E+02  0.21844715583E+03  0.31109483624E+03  0.39012249980E+03  0.00000000000E+00 0. -1.
         -2    1    6    6    0  503 -0.10621773837E+03  0.14090957931E+03  0.14088633010E+03  0.22580229294E+03  0.00000000000E+00 0.  1.
<mgrwt>
<rscale>  0 0.12191798E+04</rscale>
<asrwt>0</asrwt>
<pdfrwt beam="1">  1        2 0.21638515E+00 0.12191798E+04</pdfrwt>
<pdfrwt beam="2">  1       -2 0.40646332E-01 0.12191798E+04</pdfrwt>
<totfact> 0.80986923E+01</totfact>
</mgrwt>
</event>
<event>
12    3  0.4688899E-008  0.2472442E+04  0.7818608E-02  0.8412869E-01
          1   -1    0    0  501    0  0.00000000000E+00  0.00000000000E+00  0.25671506510E+04  0.25671506510E+04  0.00000000000E+00 0. -1.
         -1   -1    0    0    0  501 -0.00000000000E+00 -0.00000000000E+00 -0.59530699370E+03  0.59530699370E+03  0.00000000000E+00 0.  1.
         23    2    1    2    0    0  0.72995971077E+03  0.51192539339E+03  0.97698576790E+02  0.90102363620E+03  0.85963907184E+02 0.  0.
        254    2    1    2    0    0 -0.72995971077E+03 -0.51192539339E+03  0.18741450805E+04  0.22614340085E+04  0.89819552671E+03 0.  0.
         23    2    4    4    0    0 -0.76050656880E+03 -0.16854116477E+03  0.16832819762E+04  0.18570325750E+04  0.91407919423E+02 0.  0.
         23    2    4    4    0    0  0.30546858025E+02 -0.34338422862E+03  0.19086310431E+03  0.40440143351E+03  0.90917302207E+02 0.  0.
          3    1    3    3  502    0  0.60775313083E+02  0.59853343896E+02  0.30771322250E+02  0.90680404327E+02  0.00000000000E+00 0. -1.
         -3    1    3    3    0  502  0.66918439769E+03  0.45207204949E+03  0.66927254540E+02  0.81034323187E+03  0.00000000000E+00 0.  1.
         13    1    5    5    0    0 -0.15303655002E+03 -0.39554382745E+02  0.43452535533E+03  0.46238189763E+03  0.00000000000E+00 0. -1.
        -13    1    5    5    0    0 -0.60747001878E+03 -0.12898678203E+03  0.12487566208E+04  0.13946506773E+04  0.00000000000E+00 0.  1.
          4    1    6    6  503    0  0.67821562433E+01 -0.31092196883E+03  0.18942742680E+03  0.36414450204E+03  0.00000000000E+00 0. -1.
         -4    1    6    6    0  503  0.23764701782E+02 -0.32462259787E+02  0.14356775104E+01  0.40256931467E+02  0.00000000000E+00 0.  1.
<mgrwt>
<rscale>  0 0.24724423E+04</rscale>
<asrwt>0</asrwt>
<pdfrwt beam="1">  1        1 0.39494625E+00 0.24724423E+04</pdfrwt>
<pdfrwt beam="2">  1       -1 0.91585693E-01 0.24724423E+04</pdfrwt>
<totfact> 0.12585439E+00</totfact>
</mgrwt>
</event>
<event>
12    3  0.4688899E-008  0.1869625E+04  0.7818608E-02  0.8670125E-01
         -2   -1    0    0    0  501 -0.00000000000E+00  0.00000000000E+00  0.53524456177E+03  0.53524456177E+03  0.00000000000E+00 0.  1.
          2   -1    0    0  501    0  0.00000000000E+00 -0.00000000000E+00 -0.16326641803E+04  0.16326641803E+04  0.00000000000E+00 0. -1.
         23    2    1    2    0    0  0.23311557596E+02 -0.47539226834E+03  0.19612747106E+03  0.52329238702E+03  0.93955840130E+02 0.  0.
        254    2    1    2    0    0 -0.23311557596E+02  0.47539226834E+03 -0.12935470896E+04  0.16446163551E+04  0.89719431830E+03 0.  0.
         23    2    4    4    0    0  0.27620902512E+03  0.60562255969E+03 -0.92693908292E+03  0.11448364721E+04  0.91456951767E+02 0.  0.
         23    2    4    4    0    0 -0.29952058272E+03 -0.13023029134E+03 -0.36660800668E+03  0.49977988296E+03  0.93305908690E+02 0.  0.
          4    1    3    3  502    0  0.26694535750E+02 -0.35135253880E+02  0.26524619094E+02  0.51484363862E+02  0.00000000000E+00 0. -1.
         -4    1    3    3    0  502 -0.33829781543E+01 -0.44025701446E+03  0.16960285196E+03  0.47180802316E+03  0.00000000000E+00 0.  1.
         13    1    5    5    0    0  0.13116573849E+03  0.27837006301E+03 -0.50656535878E+03  0.59270802732E+03  0.00000000000E+00 0.  1.
        -13    1    5    5    0    0  0.14504328663E+03  0.32725249668E+03 -0.42037372413E+03  0.55212844477E+03  0.00000000000E+00 0. -1.
          3    1    6    6  503    0 -0.25702344300E+03 -0.10279702024E+03 -0.25132657512E+03  0.37388945556E+03  0.00000000000E+00 0. -1.
         -3    1    6    6    0  503 -0.42497139720E+02 -0.27433271103E+02 -0.11528143156E+03  0.12589042740E+03  0.00000000000E+00 0.  1.
<mgrwt>
<rscale>  0 0.18696252E+04</rscale>
<asrwt>0</asrwt>
<pdfrwt beam="1">  1        2 0.25117910E+00 0.18696252E+04</pdfrwt>
<pdfrwt beam="2">  1       -2 0.82345319E-01 0.18696252E+04</pdfrwt>
<totfact> 0.12999195E+01</totfact>
</mgrwt>
</event>
<event>
12    3  0.4688899E-008  0.2059123E+04  0.7818608E-02  0.8579467E-01
          1   -1    0    0  501    0  0.00000000000E+00  0.00000000000E+00  0.12703664857E+04  0.12703664857E+04  0.00000000000E+00 0. -1.
         -1   -1    0    0    0  501 -0.00000000000E+00 -0.00000000000E+00 -0.83440240162E+03  0.83440240162E+03  0.00000000000E+00 0.  1.
         23    2    1    2    0    0 -0.69972085921E+03  0.21533358346E+03  0.59102397096E+03  0.94544559492E+03  0.92629399848E+02 0.  0.
        254    2    1    2    0    0  0.69972085921E+03 -0.21533358346E+03 -0.15505988691E+03  0.11593232924E+04  0.88544288054E+03 0.  0.
         23    2    4    4    0    0  0.85950781413E+02 -0.21391050865E+02 -0.43427177139E+03  0.45240233575E+03  0.90723690883E+02 0.  0.
         23    2    4    4    0    0  0.61377007780E+03 -0.19394253260E+03  0.27921188447E+03  0.70692095662E+03  0.86316557614E+02 0.  0.
          4    1    3    3  502    0 -0.53530342500E+03  0.12424126560E+03  0.42591667413E+03  0.69526301656E+03  0.00000000000E+00 0. -1.
         -4    1    3    3    0  502 -0.16441743421E+03  0.91092317869E+02  0.16510729683E+03  0.25018257836E+03  0.00000000000E+00 0.  1.
         13    1    5    5    0    0  0.75303585748E+02 -0.52842974634E+02 -0.34820182091E+03  0.36014929970E+03  0.00000000000E+00 0. -1.
        -13    1    5    5    0    0  0.10647195665E+02  0.31451923769E+02 -0.86069950480E+02  0.92253036047E+02  0.00000000000E+00 0.  1.
          1    1    6    6  503    0  0.44549516545E+02  0.66781112809E+01  0.28973649336E+02  0.53560516713E+02  0.00000000000E+00 0. -1.
         -1    1    6    6    0  503  0.56922056125E+03 -0.20062064388E+03  0.25023823514E+03  0.65336043990E+03  0.00000000000E+00 0.  1.
<mgrwt>
<rscale>  0 0.20591230E+04</rscale>
<asrwt>0</asrwt>
<pdfrwt beam="1">  1        1 0.19544100E+00 0.20591230E+04</pdfrwt>
<pdfrwt beam="2">  1       -1 0.12836960E+00 0.20591230E+04</pdfrwt>
<totfact> 0.45907114E+00</totfact>
</mgrwt>
</event>
<event>
12    3  0.4688899E-008  0.2018511E+04  0.7818608E-02  0.8598015E-01
         -2   -1    0    0    0  501 -0.00000000000E+00  0.00000000000E+00  0.56377122222E+03  0.56377122222E+03  0.00000000000E+00 0. -1.
          2   -1    0    0  501    0  0.00000000000E+00 -0.00000000000E+00 -0.18067551598E+04  0.18067551598E+04  0.00000000000E+00 0.  1.
         23    2    1    2    0    0  0.73049212351E+03  0.15280250271E+03 -0.14419891583E+03  0.76553910988E+03  0.91046439094E+02 0.  0.
        254    2    1    2    0    0 -0.73049212351E+03 -0.15280250271E+03 -0.10987850218E+04  0.16049872722E+04  0.90093744091E+03 0.  0.
         23    2    4    4    0    0 -0.79698067525E+03  0.10216074813E+02 -0.43543219061E+03  0.91291101381E+03  0.92318804289E+02 0.  0.
         23    2    4    4    0    0  0.66488551732E+02 -0.16301857752E+03 -0.66335283116E+03  0.69207625836E+03  0.89088633700E+02 0.  0.
          4    1    3    3  502    0  0.68369495949E+03  0.16441967825E+03 -0.14123341109E+03  0.71723044040E+03  0.00000000000E+00 0. -1.
         -4    1    3    3    0  502  0.46797164024E+02 -0.11617175541E+02 -0.29655047481E+01  0.48308669477E+02  0.00000000000E+00 0.  1.
         13    1    5    5    0    0 -0.46946085846E+03 -0.55853024136E+01 -0.20591791138E+03  0.51266644074E+03  0.00000000000E+00 0.  1.
        -13    1    5    5    0    0 -0.32751981678E+03  0.15801377227E+02 -0.22951427923E+03  0.40024457308E+03  0.00000000000E+00 0. -1.
          1    1    6    6  503    0  0.32695207033E+02 -0.88211603423E+02 -0.19408552370E+03  0.21568368981E+03  0.00000000000E+00 0. -1.
         -1    1    6    6    0  503  0.33793344699E+02 -0.74806974099E+02 -0.46926730746E+03  0.47639256855E+03  0.00000000000E+00 0.  1.
<mgrwt>
<rscale>  0 0.20185109E+04</rscale>
<asrwt>0</asrwt>
<pdfrwt beam="1">  1        2 0.27796233E+00 0.20185109E+04</pdfrwt>
<pdfrwt beam="2">  1       -2 0.86734035E-01 0.20185109E+04</pdfrwt>
<totfact> 0.91303365E+00</totfact>
</mgrwt>
</event>
<event>
12    3  0.4688899E-008  0.1643085E+04  0.7818608E-02  0.8794508E-01
          2   -1    0    0  501    0  0.00000000000E+00  0.00000000000E+00  0.46475439822E+03  0.46475439822E+03  0.00000000000E+00 0. -1.
         -2   -1    0    0    0  501 -0.00000000000E+00 -0.00000000000E+00 -0.14522344655E+04  0.14522344655E+04  0.00000000000E+00 0.  1.
         23    2    1    2    0    0  0.54192994561E+03 -0.20744421656E+02 -0.55551977741E+03  0.78210486470E+03  0.94696353230E+02 0.  0.
        254    2    1    2    0    0 -0.54192994561E+03  0.20744421656E+02 -0.43196028984E+03  0.11348839990E+04  0.89847292791E+03 0.  0.
         23    2    4    4    0    0 -0.14057716521E+03  0.15371769354E+03  0.24399225218E+03  0.33233962313E+03  0.86754465541E+02 0.  0.
         23    2    4    4    0    0 -0.40135278040E+03 -0.13297327189E+03 -0.67595254202E+03  0.80254437586E+03  0.91649826992E+02 0.  0.
          1    1    3    3  502    0  0.53770807902E+03 -0.15745687185E+02 -0.52780635661E+03  0.75362952105E+03  0.00000000000E+00 0. -1.
         -1    1    3    3    0  502  0.42218665842E+01 -0.49987344713E+01 -0.27713420800E+02  0.28475343654E+02  0.00000000000E+00 0.  1.
         13    1    5    5    0    0 -0.41866131835E+02  0.12639221064E+02  0.95237751104E+02  0.10479862661E+03  0.00000000000E+00 0.  1.
        -13    1    5    5    0    0 -0.98711033377E+02  0.14107847248E+03  0.14875450108E+03  0.22754099652E+03  0.00000000000E+00 0. -1.
          3    1    6    6  503    0 -0.21318873841E+03 -0.10253709345E+03 -0.43656528798E+03  0.49654057678E+03  0.00000000000E+00 0. -1.
         -3    1    6    6    0  503 -0.18816404198E+03 -0.30436178436E+02 -0.23938725405E+03  0.30600379908E+03  0.00000000000E+00 0.  1.
<mgrwt>
<rscale>  0 0.16430853E+04</rscale>
<asrwt>0</asrwt>
<pdfrwt beam="1">  1        2 0.71500678E-01 0.16430853E+04</pdfrwt>
<pdfrwt beam="2">  1       -2 0.22342068E+00 0.16430853E+04</pdfrwt>
<totfact> 0.60194787E+00</totfact>
</mgrwt>
</event>
<event>
12    3  0.4688899E-008  0.1749503E+04  0.7818608E-02  0.8733624E-01
         -2   -1    0    0    0  501 -0.00000000000E+00  0.00000000000E+00  0.58895029877E+03  0.58895029877E+03  0.00000000000E+00 0.  1.
          2   -1    0    0  501    0  0.00000000000E+00 -0.00000000000E+00 -0.12992434535E+04  0.12992434535E+04  0.00000000000E+00 0. -1.
         23    2    1    2    0    0 -0.18433708312E+03  0.56821358333E+03 -0.25250827257E+00  0.60445579182E+03  0.92303326081E+02 0.  0.
        254    2    1    2    0    0  0.18433708312E+03 -0.56821358333E+03 -0.71004064648E+03  0.12837379605E+04  0.88711814040E+03 0.  0.
         23    2    4    4    0    0  0.36278807144E+03 -0.72149505980E+03 -0.59662494176E+03  0.10078474053E+04  0.87319901063E+02 0.  0.
         23    2    4    4    0    0 -0.17845098832E+03  0.15328147647E+03 -0.11341570472E+03  0.27589055518E+03  0.88952291148E+02 0.  0.
          3    1    3    3  502    0 -0.38747634544E+00  0.96504886765E+02  0.16329983385E+02  0.97877534014E+02  0.00000000000E+00 0. -1.
         -3    1    3    3    0  502 -0.18394960678E+03  0.47170869656E+03 -0.16582491657E+02  0.50657825780E+03  0.00000000000E+00 0.  1.
         13    1    5    5    0    0  0.31412617303E+03 -0.54704138333E+03 -0.45111906906E+03  0.77552430144E+03  0.00000000000E+00 0.  1.
        -13    1    5    5    0    0  0.48661898414E+02 -0.17445367647E+03 -0.14550587270E+03  0.23232310385E+03  0.00000000000E+00 0. -1.
          1    1    6    6  503    0 -0.23074537424E+02  0.38502513680E+02  0.10874908022E+02  0.46185944415E+02  0.00000000000E+00 0. -1.
         -1    1    6    6    0  503 -0.15537645090E+03  0.11477896279E+03 -0.12429061274E+03  0.22970461077E+03  0.00000000000E+00 0.  1.
<mgrwt>
<rscale>  0 0.17495026E+04</rscale>
<asrwt>0</asrwt>
<pdfrwt beam="1">  1        2 0.19988361E+00 0.17495026E+04</pdfrwt>
<pdfrwt beam="2">  1       -2 0.90607738E-01 0.17495026E+04</pdfrwt>
<totfact> 0.16322639E+01</totfact>
</mgrwt>
</event>
<event>
12    3  0.4688899E-008  0.1989777E+04  0.7818608E-02  0.8611415E-01
          1   -1    0    0  501    0  0.00000000000E+00  0.00000000000E+00  0.12209031292E+04  0.12209031292E+04  0.00000000000E+00 0. -1.
         -1   -1    0    0    0  501 -0.00000000000E+00 -0.00000000000E+00 -0.81071406483E+03  0.81071406483E+03  0.00000000000E+00 0.  1.
         23    2    1    2    0    0 -0.55083452159E+03 -0.53329985377E+03 -0.88603144185E+01  0.77245306058E+03  0.93690028490E+02 0.  0.
        254    2    1    2    0    0  0.55083452159E+03  0.53329985377E+03  0.41904937883E+03  0.12591641335E+04  0.90667774264E+03 0.  0.
         23    2    4    4    0    0  0.10215845667E+02 -0.22439606224E+03  0.16116806149E+03  0.28904759423E+03  0.84352898195E+02 0.  0.
         23    2    4    4    0    0  0.54061867592E+03  0.75769591601E+03  0.25788131734E+03  0.97011653927E+03  0.90838714439E+02 0.  0.
          4    1    3    3  502    0 -0.37605767074E+03 -0.31132144520E+03 -0.30106136851E+02  0.48912860623E+03  0.00000000000E+00 0. -1.
         -4    1    3    3    0  502 -0.17477685085E+03 -0.22197840856E+03  0.21245822432E+02  0.28332445435E+03  0.00000000000E+00 0.  1.
         13    1    5    5    0    0  0.38366425393E+02 -0.14142859583E+03  0.69302540997E+02  0.16210142659E+03  0.00000000000E+00 0. -1.
        -13    1    5    5    0    0 -0.28150579726E+02 -0.82967466413E+02  0.91865520495E+02  0.12694616764E+03  0.00000000000E+00 0.  1.
          4    1    6    6  503    0  0.53345722413E+03  0.75601899721E+03  0.26203816940E+03  0.96166799695E+03  0.00000000000E+00 0. -1.
         -4    1    6    6    0  503  0.71614517834E+01  0.16769187940E+01 -0.41568520603E+01  0.84485423204E+01  0.00000000000E+00 0.  1.
<mgrwt>
<rscale>  0 0.19897772E+04</rscale>
<asrwt>0</asrwt>
<pdfrwt beam="1">  1        1 0.18783125E+00 0.19897772E+04</pdfrwt>
<pdfrwt beam="2">  1       -1 0.12472524E+00 0.19897772E+04</pdfrwt>
<totfact> 0.53903802E+00</totfact>
</mgrwt>
</event>
<event>
12    3  0.4688899E-008  0.1226166E+04  0.7818608E-02  0.9090257E-01
         -1   -1    0    0    0  501 -0.00000000000E+00  0.00000000000E+00  0.52121213879E+03  0.52121213879E+03  0.00000000000E+00 0.  1.
          1   -1    0    0  501    0  0.00000000000E+00 -0.00000000000E+00 -0.72114724274E+03  0.72114724274E+03  0.00000000000E+00 0. -1.
         23    2    1    2    0    0  0.11230834687E+03  0.23262401653E+03  0.25128730659E+02  0.27534007922E+03  0.91943505902E+02 0.  0.
        254    2    1    2    0    0 -0.11230834687E+03 -0.23262401653E+03 -0.22506383461E+03  0.96701930230E+03  0.90429281957E+03 0.  0.
         23    2    4    4    0    0  0.30924968429E+03  0.75102067329E+02 -0.27981526812E+03  0.43436597821E+03  0.95401944482E+02 0.  0.
         23    2    4    4    0    0 -0.42155803115E+03 -0.30772608386E+03  0.54751433504E+02  0.53265332409E+03  0.91188419623E+02 0.  0.
          3    1    3    3  502    0 -0.13106680254E+02  0.54713280158E+02  0.35187113516E+00  0.56262348922E+02  0.00000000000E+00 0. -1.
         -3    1    3    3    0  502  0.12541502712E+03  0.17791073638E+03  0.24776859524E+02  0.21907773030E+03  0.00000000000E+00 0.  1.
         13    1    5    5    0    0  0.23657298188E+02  0.19525883950E+02 -0.67634526885E+02  0.74265450437E+02  0.00000000000E+00 0. -1.
        -13    1    5    5    0    0  0.28559238610E+03  0.55576183379E+02 -0.21218074123E+03  0.36010052778E+03  0.00000000000E+00 0.  1.
          4    1    6    6  503    0 -0.14684858685E+03 -0.10354628311E+03  0.62623660556E+02  0.19028416399E+03  0.00000000000E+00 0. -1.
         -4    1    6    6    0  503 -0.27470944431E+03 -0.20417980076E+03 -0.78722270524E+01  0.34236916010E+03  0.00000000000E+00 0.  1.
<mgrwt>
<rscale>  0 0.12261659E+04</rscale>
<asrwt>0</asrwt>
<pdfrwt beam="1">  1        1 0.11094573E+00 0.12261659E+04</pdfrwt>
<pdfrwt beam="2">  1       -1 0.80186483E-01 0.12261659E+04</pdfrwt>
<totfact> 0.39931559E+01</totfact>
</mgrwt>
</event>
<event>
12    3  0.4688899E-008  0.1533754E+04  0.7818608E-02  0.8862312E-01
          1   -1    0    0  501    0  0.00000000000E+00  0.00000000000E+00  0.64693533485E+03  0.64693533485E+03  0.00000000000E+00 0. -1.
         -1   -1    0    0    0  501 -0.00000000000E+00 -0.00000000000E+00 -0.90905559714E+03  0.90905559714E+03  0.00000000000E+00 0.  1.
         23    2    1    2    0    0  0.10707630004E+03 -0.31814042429E+03  0.26208464430E+03  0.43452841933E+03  0.86301348954E+02 0.  0.
        254    2    1    2    0    0 -0.10707630004E+03  0.31814042429E+03 -0.52420490659E+03  0.11214625127E+04  0.93284978405E+03 0.  0.
         23    2    4    4    0    0  0.33473567928E+02  0.31494614065E+03 -0.76180589175E+03  0.83079336013E+03  0.97764202333E+02 0.  0.
         23    2    4    4    0    0 -0.14054986797E+03  0.31942836426E+01  0.23760098517E+03  0.29066915253E+03  0.90938766465E+02 0.  0.
          2    1    3    3  502    0  0.10051883849E+03 -0.17960437663E+03  0.13294274278E+03  0.24502151304E+03  0.00000000000E+00 0. -1.
         -2    1    3    3    0  502  0.65574615533E+01 -0.13853604766E+03  0.12914190152E+03  0.18950690629E+03  0.00000000000E+00 0.  1.
         13    1    5    5    0    0 -0.51573608603E+01  0.72130000058E+02 -0.90276767073E+02  0.11566862130E+03  0.00000000000E+00 0.  1.
        -13    1    5    5    0    0  0.38630928788E+02  0.24281614059E+03 -0.67152912468E+03  0.71512473883E+03  0.00000000000E+00 0. -1.
          2    1    6    6  503    0 -0.11553340629E+03  0.38578208433E+02  0.15252415516E+03  0.19519186469E+03  0.00000000000E+00 0. -1.
         -2    1    6    6    0  503 -0.25016461675E+02 -0.35383924791E+02  0.85076830008E+02  0.95477287836E+02  0.00000000000E+00 0.  1.
<mgrwt>
<rscale>  0 0.15337538E+04</rscale>
<asrwt>0</asrwt>
<pdfrwt beam="1">  1        1 0.99528513E-01 0.15337538E+04</pdfrwt>
<pdfrwt beam="2">  1       -1 0.13985471E+00 0.15337538E+04</pdfrwt>
<totfact> 0.12438082E+01</totfact>
</mgrwt>
</event>
<event>
12    3  0.4688899E-008  0.2122017E+04  0.7818608E-02  0.8551606E-01
         -1   -1    0    0    0  501 -0.00000000000E+00  0.00000000000E+00  0.80679556074E+03  0.80679556074E+03  0.00000000000E+00 0.  1.
          1   -1    0    0  501    0  0.00000000000E+00 -0.00000000000E+00 -0.13953213973E+04  0.13953213973E+04  0.00000000000E+00 0. -1.
         23    2    1    2    0    0 -0.17466424229E+03  0.11625616481E+03  0.63429886942E+03  0.67419321484E+03  0.90434184869E+02 0.  0.
        254    2    1    2    0    0  0.17466424229E+03 -0.11625616481E+03 -0.12228247060E+04  0.15279237433E+04  0.89175535331E+03 0.  0.
         23    2    4    4    0    0  0.18236466854E+03  0.12729178476E+03  0.31845866200E+02  0.24642510014E+03  0.10124771595E+03 0.  0.
         23    2    4    4    0    0 -0.77004262502E+01 -0.24354794957E+03 -0.12546705722E+04  0.12814986431E+04  0.93089350681E+02 0.  0.
          2    1    3    3  502    0 -0.73986389087E+02  0.84162527334E+02  0.22346981695E+03  0.24999215161E+03  0.00000000000E+00 0. -1.
         -2    1    3    3    0  502 -0.10067785320E+03  0.32093637479E+02  0.41082905247E+03  0.42420106323E+03  0.00000000000E+00 0.  1.
         13    1    5    5    0    0  0.55209339710E+02  0.77606983599E+02 -0.25120789699E+02  0.98498574455E+02  0.00000000000E+00 0. -1.
        -13    1    5    5    0    0  0.12715532883E+03  0.49684801159E+02  0.56966655898E+02  0.14792652568E+03  0.00000000000E+00 0.  1.
          4    1    6    6  503    0  0.38837430160E+02 -0.59867216355E+02 -0.34340817457E+03  0.35074435695E+03  0.00000000000E+00 0. -1.
         -4    1    6    6    0  503 -0.46537856411E+02 -0.18368073322E+03 -0.91126239765E+03  0.93075428616E+03  0.00000000000E+00 0.  1.
<mgrwt>
<rscale>  0 0.21220171E+04</rscale>
<asrwt>0</asrwt>
<pdfrwt beam="1">  1        1 0.21466483E+00 0.21220171E+04</pdfrwt>
<pdfrwt beam="2">  1       -1 0.12412240E+00 0.21220171E+04</pdfrwt>
<totfact> 0.40471826E+00</totfact>
</mgrwt>
</event>
<event>
12    3  0.4688899E-008  0.1794094E+04  0.7818608E-02  0.8709447E-01
         -1   -1    0    0    0  501 -0.00000000000E+00  0.00000000000E+00  0.48977480173E+03  0.48977480173E+03  0.00000000000E+00 0.  1.
          1   -1    0    0  501    0  0.00000000000E+00 -0.00000000000E+00 -0.16429863182E+04  0.16429863182E+04  0.00000000000E+00 0. -1.
         23    2    1    2    0    0 -0.41869432376E+03  0.48956193806E+03 -0.63545230114E+03  0.91040928621E+03  0.10034746361E+03 0.  0.
        254    2    1    2    0    0  0.41869432376E+03 -0.48956193806E+03 -0.51775921533E+03  0.12223518337E+04  0.90060733530E+03 0.  0.
         23    2    4    4    0    0  0.52880678736E+03 -0.28108260186E+03  0.42569460692E+02  0.60708863755E+03  0.90002263457E+02 0.  0.
         23    2    4    4    0    0 -0.11011246360E+03 -0.20847933620E+03 -0.56032867602E+03  0.61526319618E+03  0.94827143448E+02 0.  0.
          3    1    3    3  502    0 -0.38877367301E+03  0.45895636504E+03 -0.55091857785E+03  0.81565752203E+03  0.00000000000E+00 0. -1.
         -3    1    3    3    0  502 -0.29920650752E+02  0.30605573027E+02 -0.84533723294E+02  0.94751764183E+02  0.00000000000E+00 0.  1.
         13    1    5    5    0    0  0.74906640252E+02 -0.74200254768E+02  0.22800332579E+02  0.10787278492E+03  0.00000000000E+00 0. -1.
        -13    1    5    5    0    0  0.45390014711E+03 -0.20688234709E+03  0.19769128113E+02  0.49921585262E+03  0.00000000000E+00 0.  1.
          2    1    6    6  503    0 -0.11599644116E+03 -0.20614131137E+03 -0.56106700140E+03  0.60888881963E+03  0.00000000000E+00 0.  1.
         -2    1    6    6    0  503  0.58839775591E+01 -0.23380248318E+01  0.73832537237E+00  0.63743765488E+01  0.00000000000E+00 0. -1.
<mgrwt>
<rscale>  0 0.17940940E+04</rscale>
<asrwt>0</asrwt>
<pdfrwt beam="1">  1        1 0.25276712E+00 0.17940940E+04</pdfrwt>
<pdfrwt beam="2">  1       -1 0.75349970E-01 0.17940940E+04</pdfrwt>
<totfact> 0.87142983E+00</totfact>
</mgrwt>
</event>
<event>
12    3  0.4688899E-008  0.1242906E+04  0.7818608E-02  0.9076109E-01
          2   -1    0    0  501    0  0.00000000000E+00  0.00000000000E+00  0.28270139960E+04  0.28270139960E+04  0.00000000000E+00 0. -1.
         -2   -1    0    0    0  501 -0.00000000000E+00 -0.00000000000E+00 -0.13661185141E+03  0.13661185141E+03  0.00000000000E+00 0.  1.
         23    2    1    2    0    0  0.22139540811E+03 -0.79353104964E+02  0.28782678500E+03  0.38240481043E+03  0.89868453194E+02 0.  0.
        254    2    1    2    0    0 -0.22139540811E+03  0.79353104964E+02  0.24025753596E+04  0.25812210370E+04  0.91379474788E+03 0.  0.
         23    2    4    4    0    0 -0.45182046100E+03 -0.25395472416E+03  0.14298860669E+04  0.15236305742E+04  0.90781227087E+02 0.  0.
         23    2    4    4    0    0  0.23042505289E+03  0.33330782913E+03  0.97268929266E+03  0.10575904628E+04  0.90461666218E+02 0.  0.
          1    1    3    3  502    0  0.45808639507E+02 -0.36581492446E+02  0.12945400851E+03  0.14210903336E+03  0.00000000000E+00 0. -1.
         -1    1    3    3    0  502  0.17558676860E+03 -0.42771612517E+02  0.15837277648E+03  0.24029577707E+03  0.00000000000E+00 0.  1.
         13    1    5    5    0    0 -0.44958697793E+03 -0.24770250997E+03  0.14267683948E+04  0.15162958275E+04  0.00000000000E+00 0.  1.
        -13    1    5    5    0    0 -0.22334830715E+01 -0.62522141923E+01  0.31176721751E+01  0.73347466711E+01  0.00000000000E+00 0. -1.
          2    1    6    6  503    0  0.84088937257E+02  0.16411735217E+03  0.34432028424E+03  0.39059174696E+03  0.00000000000E+00 0. -1.
         -2    1    6    6    0  503  0.14633611563E+03  0.16919047696E+03  0.62836900841E+03  0.66699871586E+03  0.00000000000E+00 0.  1.
<mgrwt>
<rscale>  0 0.12429057E+04</rscale>
<asrwt>0</asrwt>
<pdfrwt beam="1">  1        2 0.43492519E+00 0.12429057E+04</pdfrwt>
<pdfrwt beam="2">  1       -2 0.21017210E-01 0.12429057E+04</pdfrwt>
<totfact> 0.43344853E+01</totfact>
</mgrwt>
</event>
<event>
12    3  0.4688899E-008  0.1472511E+04  0.7818608E-02  0.8902942E-01
          1   -1    0    0  501    0  0.00000000000E+00  0.00000000000E+00  0.31227065683E+03  0.31227065683E+03  0.00000000000E+00 0. -1.
         -1   -1    0    0    0  501 -0.00000000000E+00 -0.00000000000E+00 -0.17359039185E+04  0.17359039185E+04  0.00000000000E+00 0.  1.
         23    2    1    2    0    0 -0.11618976726E+03 -0.45839262600E+03 -0.35185957823E+03  0.59618376702E+03  0.89476587336E+02 0.  0.
        254    2    1    2    0    0  0.11618976726E+03  0.45839262600E+03 -0.10717736835E+04  0.14519908083E+04  0.85787797344E+03 0.  0.
         23    2    4    4    0    0  0.11193018131E+03 -0.79488861877E+02  0.78270947991E+02  0.17921003170E+03  0.84516563532E+02 0.  0.
         23    2    4    4    0    0  0.42595859562E+01  0.53788148788E+03 -0.11500446315E+04  0.12727807767E+04  0.89630418606E+02 0.  0.
          2    1    3    3  502    0 -0.12697786464E+03 -0.40222969966E+03 -0.28960186249E+03  0.51164572524E+03  0.00000000000E+00 0. -1.
         -2    1    3    3    0  502  0.10788097372E+02 -0.56162926343E+02 -0.62257715734E+02  0.84538041785E+02  0.00000000000E+00 0.  1.
         13    1    5    5    0    0  0.12701164089E+02  0.55420418492E+01 -0.13641943481E+02  0.19445730097E+02  0.00000000000E+00 0.  1.
        -13    1    5    5    0    0  0.99229017219E+02 -0.85030903726E+02  0.91912891473E+02  0.15976430160E+03  0.00000000000E+00 0. -1.
          1    1    6    6  503    0 -0.41910875666E+02  0.30006506148E+03 -0.62819712839E+03  0.69744332726E+03  0.00000000000E+00 0. -1.
         -1    1    6    6    0  503  0.46170461622E+02  0.23781642640E+03 -0.52184750309E+03  0.57533744939E+03  0.00000000000E+00 0.  1.
<mgrwt>
<rscale>  0 0.14725106E+04</rscale>
<asrwt>0</asrwt>
<pdfrwt beam="1">  1        1 0.48041638E-01 0.14725106E+04</pdfrwt>
<pdfrwt beam="2">  1       -1 0.26706215E+00 0.14725106E+04</pdfrwt>
<totfact> 0.43602523E+00</totfact>
</mgrwt>
</event>
<event>
12    3  0.4688899E-008  0.1268736E+04  0.7818608E-02  0.9054732E-01
         -2   -1    0    0    0  501 -0.00000000000E+00  0.00000000000E+00  0.36613453103E+03  0.36613453103E+03  0.00000000000E+00 0.  1.
          2   -1    0    0  501    0  0.00000000000E+00 -0.00000000000E+00 -0.10991116918E+04  0.10991116918E+04  0.00000000000E+00 0. -1.
         23    2    1    2    0    0 -0.23965409433E+03  0.13499309300E+03 -0.56797125033E+02  0.29536948529E+03  0.91433032019E+02 0.  0.
        254    2    1    2    0    0  0.23965409433E+03 -0.13499309300E+03 -0.67618003577E+03  0.11698767376E+04  0.91418538615E+03 0.  0.
         23    2    4    4    0    0  0.14232165470E+03  0.14672799490E+03  0.16066489865E+03  0.27678073363E+03  0.94920002988E+02 0.  0.
         23    2    4    4    0    0  0.97332439622E+02 -0.28172108790E+03 -0.83684493442E+03  0.89309600393E+03  0.92036149432E+02 0.  0.
          4    1    3    3  502    0 -0.18814283410E+03  0.10784999474E+03 -0.41966077470E+01  0.21690310948E+03  0.00000000000E+00 0.  1.
         -4    1    3    3    0  502 -0.51511260229E+02  0.27143098261E+02 -0.52600517286E+02  0.78466375808E+02  0.00000000000E+00 0. -1.
         13    1    5    5    0    0  0.98958186728E+02  0.13905483357E+03  0.88531654032E+02  0.19226758236E+03  0.00000000000E+00 0.  1.
        -13    1    5    5    0    0  0.43363467976E+02  0.76731613323E+01  0.72133244619E+02  0.84513151279E+02  0.00000000000E+00 0. -1.
          2    1    6    6  503    0 -0.14931480990E+02 -0.29230248818E+02 -0.57425892340E+02  0.66144460702E+02  0.00000000000E+00 0. -1.
         -2    1    6    6    0  503  0.11226392061E+03 -0.25249083908E+03 -0.77941904208E+03  0.82695154323E+03  0.00000000000E+00 0.  1.
<mgrwt>
<rscale>  0 0.12687360E+04</rscale>
<asrwt>0</asrwt>
<pdfrwt beam="1">  1        2 0.16909410E+00 0.12687360E+04</pdfrwt>
<pdfrwt beam="2">  1       -2 0.56328390E-01 0.12687360E+04</pdfrwt>
<totfact> 0.63377220E+01</totfact>
</mgrwt>
</event>
<event>
12    3  0.4688899E-008  0.1895789E+04  0.7818608E-02  0.8656955E-01
          2   -1    0    0  501    0  0.00000000000E+00  0.00000000000E+00  0.16248434429E+04  0.16248434429E+04  0.00000000000E+00 0. -1.
         -2   -1    0    0    0  501 -0.00000000000E+00 -0.00000000000E+00 -0.55297870453E+03  0.55297870453E+03  0.00000000000E+00 0.  1.
         23    2    1    2    0    0 -0.64932562979E+03 -0.23269606352E+03  0.14249252048E+03  0.70985853850E+03  0.88452217680E+02 0.  0.
        254    2    1    2    0    0  0.64932562979E+03  0.23269606352E+03  0.92937221789E+03  0.14679636089E+04  0.90300232906E+03 0.  0.
         23    2    4    4    0    0 -0.99764515105E+02  0.32416165898E+03  0.15792752277E+03  0.38497782645E+03  0.90736347650E+02 0.  0.
         23    2    4    4    0    0  0.74909014489E+03 -0.91465595460E+02  0.77144469512E+03  0.10829857825E+04  0.90715418220E+02 0.  0.
          4    1    3    3  502    0 -0.27440499954E+03 -0.70224617104E+02  0.23231174846E+02  0.28419938090E+03  0.00000000000E+00 0. -1.
         -4    1    3    3    0  502 -0.37492063024E+03 -0.16247144641E+03  0.11926134563E+03  0.42565915759E+03  0.00000000000E+00 0.  1.
         13    1    5    5    0    0 -0.80793006813E+02  0.31898111962E+03  0.15864030672E+03  0.36529879762E+03  0.00000000000E+00 0. -1.
        -13    1    5    5    0    0 -0.18971508292E+02  0.51805393591E+01 -0.71278394943E+00  0.19679028835E+02  0.00000000000E+00 0.  1.
          4    1    6    6  503    0  0.65578825819E+03 -0.96437597303E+02  0.70910528684E+03  0.97066408071E+03  0.00000000000E+00 0. -1.
         -4    1    6    6    0  503  0.93301886700E+02  0.49720018427E+01  0.62339408274E+02  0.11232170177E+03  0.00000000000E+00 0.  1.
<mgrwt>
<rscale>  0 0.18957888E+04</rscale>
<asrwt>0</asrwt>
<pdfrwt beam="1">  1        2 0.24997591E+00 0.18957888E+04</pdfrwt>
<pdfrwt beam="2">  1       -2 0.85073648E-01 0.18957888E+04</pdfrwt>
<totfact> 0.12168109E+01</totfact>
</mgrwt>
</event>
<event>
12    3  0.4688899E-008  0.2126364E+04  0.7818608E-02  0.8549718E-01
         -2   -1    0    0    0  501 -0.00000000000E+00  0.00000000000E+00  0.94988121311E+03  0.94988121311E+03  0.00000000000E+00 0.  1.
          2   -1    0    0  501    0  0.00000000000E+00 -0.00000000000E+00 -0.11899969126E+04  0.11899969126E+04  0.00000000000E+00 0. -1.
         23    2    1    2    0    0  0.64094480395E+03 -0.40772094665E+03 -0.52005319902E+03  0.92478029830E+03  0.87844511880E+02 0.  0.
        254    2    1    2    0    0 -0.64094480395E+03  0.40772094665E+03  0.27993749954E+03  0.12150978274E+04  0.90611870881E+03 0.  0.
         23    2    4    4    0    0  0.15062066131E+02  0.37597789087E+03  0.38200563482E+03  0.54410052792E+03  0.92362542130E+02 0.  0.
         23    2    4    4    0    0 -0.65600687008E+03  0.31743055782E+02 -0.10206813528E+03  0.67099729948E+03  0.92015414397E+02 0.  0.
          2    1    3    3  502    0  0.58978683199E+03 -0.38459332920E+03 -0.45261484867E+03  0.83703090581E+03  0.00000000000E+00 0. -1.
         -2    1    3    3    0  502  0.51157971962E+02 -0.23127617455E+02 -0.67438350347E+02  0.87749392488E+02  0.00000000000E+00 0.  1.
         13    1    5    5    0    0  0.18400797892E+02  0.38097862334E+03  0.37549454098E+03  0.53523775195E+03  0.00000000000E+00 0. -1.
        -13    1    5    5    0    0 -0.33387317619E+01 -0.50007324657E+01  0.65110938381E+01  0.88627759726E+01  0.00000000000E+00 0.  1.
          2    1    6    6  503    0 -0.44012157057E+03 -0.98891367360E+01 -0.98439994914E+02  0.45110444966E+03  0.00000000000E+00 0. -1.
         -2    1    6    6    0  503 -0.21588529952E+03  0.41632192518E+02 -0.36281403685E+01  0.21989284982E+03  0.00000000000E+00 0.  1.
<mgrwt>
<rscale>  0 0.21263638E+04</rscale>
<asrwt>0</asrwt>
<pdfrwt beam="1">  1        2 0.18307645E+00 0.21263638E+04</pdfrwt>
<pdfrwt beam="2">  1       -2 0.14613557E+00 0.21263638E+04</pdfrwt>
<totfact> 0.56695842E+00</totfact>
</mgrwt>
</event>
<event>
12    3  0.4688899E-008  0.1681767E+04  0.7818608E-02  0.8771832E-01
          1   -1    0    0  501    0  0.00000000000E+00  0.00000000000E+00  0.42790429350E+04  0.42790429350E+04  0.00000000000E+00 0. -1.
         -1   -1    0    0    0  501 -0.00000000000E+00 -0.00000000000E+00 -0.16524376897E+03  0.16524376897E+03  0.00000000000E+00 0.  1.
         23    2    1    2    0    0 -0.49307146287E+03 -0.31508748196E+03  0.16327770454E+04  0.17368819920E+04  0.91643795581E+02 0.  0.
        254    2    1    2    0    0  0.49307146287E+03  0.31508748196E+03  0.24810221207E+04  0.27074047120E+04  0.91223348040E+03 0.  0.
         23    2    4    4    0    0  0.63703141479E+03  0.13193513757E+03  0.23153590887E+04  0.24067084045E+04  0.90231538648E+02 0.  0.
         23    2    4    4    0    0 -0.14395995192E+03  0.18315234440E+03  0.16566303198E+03  0.30069630758E+03  0.93299411663E+02 0.  0.
          2    1    3    3  502    0 -0.46090436337E+02 -0.33222914012E+01  0.15878738398E+03  0.16537472374E+03  0.00000000000E+00 0. -1.
         -2    1    3    3    0  502 -0.44698102653E+03 -0.31176519056E+03  0.14739896614E+04  0.15715072682E+04  0.00000000000E+00 0.  1.
         13    1    5    5    0    0  0.28966277019E+03  0.62380217754E+02  0.12209359207E+04  0.12563758730E+04  0.00000000000E+00 0.  1.
        -13    1    5    5    0    0  0.34736864460E+03  0.69554919815E+02  0.10944231680E+04  0.11503325314E+04  0.00000000000E+00 0. -1.
          4    1    6    6  503    0  0.73709443335E-01  0.63751961754E+02  0.38338979867E+02  0.74392173229E+02  0.00000000000E+00 0.  1.
         -4    1    6    6    0  503 -0.14403366136E+03  0.11940038264E+03  0.12732405211E+03  0.22630413435E+03  0.00000000000E+00 0. -1.
<mgrwt>
<rscale>  0 0.16817671E+04</rscale>
<asrwt>0</asrwt>
<pdfrwt beam="1">  1        1 0.65831421E+00 0.16817671E+04</pdfrwt>
<pdfrwt beam="2">  1       -1 0.25422122E-01 0.16817671E+04</pdfrwt>
<totfact> 0.70407877E-01</totfact>
</mgrwt>
</event>
<event>
12    3  0.4688899E-008  0.1867231E+04  0.7818608E-02  0.8671342E-01
         -1   -1    0    0    0  501 -0.00000000000E+00  0.00000000000E+00  0.58812823314E+03  0.58812823314E+03  0.00000000000E+00 0.  1.
          1   -1    0    0  501    0  0.00000000000E+00 -0.00000000000E+00 -0.14820546761E+04  0.14820546761E+04  0.00000000000E+00 0. -1.
         23    2    1    2    0    0  0.12123367439E+03 -0.68967645951E+03 -0.22425026033E+03  0.74061783255E+03  0.88743292827E+02 0.  0.
        254    2    1    2    0    0 -0.12123367439E+03  0.68967645951E+03 -0.66967618260E+03  0.13295650767E+04  0.91045366765E+03 0.  0.
         23    2    4    4    0    0  0.34641540045E+03  0.68952757534E+02 -0.20183166564E+03  0.41706580300E+03  0.91922523548E+02 0.  0.
         23    2    4    4    0    0 -0.46764907483E+03  0.62072370198E+03 -0.46784451696E+03  0.91249927367E+03  0.98908346493E+02 0.  0.
          3    1    3    3  502    0 -0.12709699041E+02 -0.82533201216E+02 -0.36600000183E+02  0.91174699155E+02  0.00000000000E+00 0.  1.
         -3    1    3    3    0  502  0.13394337343E+03 -0.60714325830E+03 -0.18765026015E+03  0.64944313340E+03  0.00000000000E+00 0. -1.
         13    1    5    5    0    0  0.37390356205E+02  0.38138662635E+02 -0.19013461563E+02  0.56693104037E+02  0.00000000000E+00 0.  1.
        -13    1    5    5    0    0  0.30902504424E+03  0.30814094898E+02 -0.18281820408E+03  0.36037269896E+03  0.00000000000E+00 0. -1.
          2    1    6    6  503    0 -0.32030031888E+03  0.38045850009E+03 -0.34357212653E+03  0.60446899895E+03  0.00000000000E+00 0. -1.
         -2    1    6    6    0  503 -0.14734875595E+03  0.24026520189E+03 -0.12427239043E+03  0.30803027472E+03  0.00000000000E+00 0.  1.
<mgrwt>
<rscale>  0 0.18672313E+04</rscale>
<asrwt>0</asrwt>
<pdfrwt beam="1">  1        1 0.22800841E+00 0.18672313E+04</pdfrwt>
<pdfrwt beam="2">  1       -1 0.90481268E-01 0.18672313E+04</pdfrwt>
<totfact> 0.75399293E+00</totfact>
</mgrwt>
</event>
<event>
12    3  0.4688899E-008  0.1749787E+04  0.7818608E-02  0.8733467E-01
         -2   -1    0    0    0  501 -0.00000000000E+00  0.00000000000E+00  0.46229217713E+03  0.46229217713E+03  0.00000000000E+00 0. -1.
          2   -1    0    0  501    0  0.00000000000E+00 -0.00000000000E+00 -0.16557472402E+04  0.16557472402E+04  0.00000000000E+00 0.  1.
         23    2    1    2    0    0 -0.99104582603E+02  0.62888092143E+03 -0.35862851957E+03  0.73634882034E+03  0.91006804877E+02 0.  0.
        254    2    1    2    0    0  0.99104582603E+02 -0.62888092143E+03 -0.83482654345E+03  0.13816905969E+04  0.89823193909E+03 0.  0.
         23    2    4    4    0    0 -0.34900823286E+03 -0.36736921686E+03 -0.18941642782E+03  0.54867496794E+03  0.91644690030E+02 0.  0.
         23    2    4    4    0    0  0.44811281546E+03 -0.26151170457E+03 -0.64541011563E+03  0.83301562901E+03  0.90373413150E+02 0.  0.
          2    1    3    3  502    0 -0.67894565838E+02  0.53459917537E+03 -0.26780812582E+03  0.60177000808E+03  0.00000000000E+00 0. -1.
         -2    1    3    3    0  502 -0.31210016765E+02  0.94281746065E+02 -0.90820393751E+02  0.13457881226E+03  0.00000000000E+00 0.  1.
         13    1    5    5    0    0  0.13934553695E+01 -0.24712988751E+02 -0.11376899010E+02  0.27241647563E+02  0.00000000000E+00 0. -1.
        -13    1    5    5    0    0 -0.35040168823E+03 -0.34265622811E+03 -0.17803952881E+03  0.52143332038E+03  0.00000000000E+00 0.  1.
          2    1    6    6  503    0  0.67269005098E+02 -0.77104042460E+02 -0.14872150559E+03  0.18052212783E+03  0.00000000000E+00 0. -1.
         -2    1    6    6    0  503  0.38084381037E+03 -0.18440766211E+03 -0.49668861004E+03  0.65249350118E+03  0.00000000000E+00 0.  1.
<mgrwt>
<rscale>  0 0.17497874E+04</rscale>
<asrwt>0</asrwt>
<pdfrwt beam="1">  1        2 0.25473035E+00 0.17497874E+04</pdfrwt>
<pdfrwt beam="2">  1       -2 0.71121872E-01 0.17497874E+04</pdfrwt>
<totfact> 0.17661231E+01</totfact>
</mgrwt>
</event>
<event>
12    3  0.4688899E-008  0.1458041E+04  0.7818608E-02  0.8912845E-01
         -1   -1    0    0    0  501 -0.00000000000E+00  0.00000000000E+00  0.56912021075E+03  0.56912021075E+03  0.00000000000E+00 0.  1.
          1   -1    0    0  501    0  0.00000000000E+00 -0.00000000000E+00 -0.93384690699E+03  0.93384690699E+03  0.00000000000E+00 0. -1.
         23    2    1    2    0    0  0.38551703143E+03  0.19122602504E+03 -0.24906369861E+03  0.50587325113E+03  0.93189302297E+02 0.  0.
        254    2    1    2    0    0 -0.38551703143E+03 -0.19122602504E+03 -0.11566299763E+03  0.99709386662E+03  0.89197952648E+03 0.  0.
         23    2    4    4    0    0 -0.43961958712E+03 -0.39807172669E+03 -0.32639452855E+03  0.68303921085E+03  0.91009308972E+02 0.  0.
         23    2    4    4    0    0  0.54102555693E+02  0.20684570165E+03  0.21073153092E+03  0.31405465577E+03  0.92251384068E+02 0.  0.
          3    1    3    3  502    0  0.15377071496E+03  0.48274113927E+02 -0.50581403636E+02  0.16892099114E+03  0.00000000000E+00 0. -1.
         -3    1    3    3    0  502  0.23174631647E+03  0.14295191112E+03 -0.19848229497E+03  0.33695225998E+03  0.00000000000E+00 0.  1.
         13    1    5    5    0    0 -0.27343896289E+03 -0.18665666148E+03 -0.18319036232E+03  0.37837585091E+03  0.00000000000E+00 0.  1.
        -13    1    5    5    0    0 -0.16618062424E+03 -0.21141506521E+03 -0.14320416623E+03  0.30466335995E+03  0.00000000000E+00 0. -1.
          1    1    6    6  503    0  0.18693415403E+02  0.19247946202E+03  0.16303779289E+03  0.25294091996E+03  0.00000000000E+00 0. -1.
         -1    1    6    6    0  503  0.35409140290E+02  0.14366239627E+02  0.47693738035E+02  0.61113735811E+02  0.00000000000E+00 0.  1.
<mgrwt>
<rscale>  0 0.14580414E+04</rscale>
<asrwt>0</asrwt>
<pdfrwt beam="1">  1        1 0.14366875E+00 0.14580414E+04</pdfrwt>
<pdfrwt beam="2">  1       -1 0.87556956E-01 0.14580414E+04</pdfrwt>
<totfact> 0.21279466E+01</totfact>
</mgrwt>
</event>
<event>
12    3  0.4688899E-008  0.1286240E+04  0.7818608E-02  0.9040548E-01
         -2   -1    0    0    0  501 -0.00000000000E+00  0.00000000000E+00  0.19141781531E+03  0.19141781531E+03  0.00000000000E+00 0.  1.
          2   -1    0    0  501    0  0.00000000000E+00 -0.00000000000E+00 -0.21607369350E+04  0.21607369350E+04  0.00000000000E+00 0. -1.
         23    2    1    2    0    0 -0.19894844543E+03  0.18487298756E+03 -0.28673597967E+03  0.40570299598E+03  0.92837995648E+02 0.  0.
        254    2    1    2    0    0  0.19894844543E+03 -0.18487298756E+03 -0.16825831400E+04  0.19464517543E+04  0.94012228109E+03 0.  0.
         23    2    4    4    0    0 -0.16440202023E+03 -0.46584389681E+03 -0.99727900273E+03  0.11165332155E+04  0.89679716401E+02 0.  0.
         23    2    4    4    0    0  0.36335046566E+03  0.28097090925E+03 -0.68530413725E+03  0.82991853882E+03  0.90303974469E+02 0.  0.
          1    1    3    3  502    0  0.87816676274E+01 -0.18980021846E+00 -0.79252725276E+01  0.11830623613E+02  0.00000000000E+00 0. -1.
         -1    1    3    3    0  502 -0.20773011306E+03  0.18506278778E+03 -0.27881070714E+03  0.39387237236E+03  0.00000000000E+00 0.  1.
         13    1    5    5    0    0 -0.11335956423E+02 -0.14484205409E+03 -0.32471111610E+03  0.35573168746E+03  0.00000000000E+00 0. -1.
        -13    1    5    5    0    0 -0.15306606380E+03 -0.32100184272E+03 -0.67256788663E+03  0.76080152802E+03  0.00000000000E+00 0.  1.
          3    1    6    6  503    0  0.73465921950E+02  0.94562736519E+02 -0.13358866396E+03  0.17940257513E+03  0.00000000000E+00 0. -1.
         -3    1    6    6    0  503  0.28988454371E+03  0.18640817273E+03 -0.55171547330E+03  0.65051596369E+03  0.00000000000E+00 0.  1.
<mgrwt>
<rscale>  0 0.12862403E+04</rscale>
<asrwt>0</asrwt>
<pdfrwt beam="1">  1        2 0.33242104E+00 0.12862403E+04</pdfrwt>
<pdfrwt beam="2">  1       -2 0.29448897E-01 0.12862403E+04</pdfrwt>
<totfact> 0.56692272E+01</totfact>
</mgrwt>
</event>
<event>
12    3  0.4688899E-008  0.1061206E+04  0.7818608E-02  0.9243851E-01
          1   -1    0    0  501    0  0.00000000000E+00  0.00000000000E+00  0.16714519410E+04  0.16714519410E+04  0.00000000000E+00 0. -1.
         -1   -1    0    0    0  501 -0.00000000000E+00 -0.00000000000E+00 -0.16844004957E+03  0.16844004957E+03  0.00000000000E+00 0.  1.
         23    2    1    2    0    0 -0.80971837943E+02  0.10167268461E+03  0.13939578658E+03  0.21089352958E+03  0.90283565316E+02 0.  0.
        254    2    1    2    0    0  0.80971837943E+02 -0.10167268461E+03  0.13636161048E+04  0.16289984609E+04  0.88164240547E+03 0.  0.
         23    2    4    4    0    0 -0.69568633557E+02 -0.24628768638E+03  0.26095236240E+02  0.27231811850E+03  0.89324000552E+02 0.  0.
         23    2    4    4    0    0  0.15054047150E+03  0.14461500176E+03  0.13375208686E+04  0.13566803424E+04  0.89685815027E+02 0.  0.
          3    1    3    3  502    0 -0.25546781479E+02  0.89590640170E+02  0.11782041112E+03  0.15020243049E+03  0.00000000000E+00 0. -1.
         -3    1    3    3    0  502 -0.55425056465E+02  0.12082044441E+02  0.21575375463E+02  0.60691099087E+02  0.00000000000E+00 0.  1.
         13    1    5    5    0    0 -0.28938138993E+02 -0.21350411353E+03  0.37972326692E+02  0.21877687258E+03  0.00000000000E+00 0. -1.
        -13    1    5    5    0    0 -0.40630494564E+02 -0.32783572847E+02 -0.11877090452E+02  0.53541245921E+02  0.00000000000E+00 0.  1.
          1    1    6    6  503    0  0.43890924924E+02  0.10420250983E+03  0.68396114613E+03  0.69324413143E+03  0.00000000000E+00 0. -1.
         -1    1    6    6    0  503  0.10664954658E+03  0.40412491937E+02  0.65355972244E+03  0.66343621101E+03  0.00000000000E+00 0.  1.
<mgrwt>
<rscale>  0 0.10612058E+04</rscale>
<asrwt>0</asrwt>
<pdfrwt beam="1">  1        1 0.25714644E+00 0.10612058E+04</pdfrwt>
<pdfrwt beam="2">  1       -1 0.25913855E-01 0.10612058E+04</pdfrwt>
<totfact> 0.65616479E+01</totfact>
</mgrwt>
</event>
<event>
12    3  0.4688899E-008  0.2095016E+04  0.7818608E-02  0.8563442E-01
          1   -1    0    0  501    0  0.00000000000E+00  0.00000000000E+00  0.11146829613E+04  0.11146829613E+04  0.00000000000E+00 0. -1.
         -1   -1    0    0    0  501 -0.00000000000E+00 -0.00000000000E+00 -0.98438107195E+03  0.98438107195E+03  0.00000000000E+00 0.  1.
         23    2    1    2    0    0  0.76474618962E+03  0.32409837610E+03 -0.14644005771E+03  0.84834962107E+03  0.91519927540E+02 0.  0.
        254    2    1    2    0    0 -0.76474618962E+03 -0.32409837610E+03  0.27674194702E+03  0.12507144121E+04  0.89320991015E+03 0.  0.
         23    2    4    4    0    0 -0.24525121759E+03 -0.49383830419E+03 -0.11599089307E+03  0.57131899631E+03  0.94483214650E+02 0.  0.
         23    2    4    4    0    0 -0.51949497203E+03  0.16973992809E+03  0.39273284009E+03  0.67939541584E+03  0.93018160772E+02 0.  0.
          4    1    3    3  502    0  0.75880710706E+03  0.32320202712E+03 -0.13544203459E+03  0.83581835395E+03  0.00000000000E+00 0.  1.
         -4    1    3    3    0  502  0.59390825520E+01  0.89634898764E+00 -0.10998023119E+02  0.12531267119E+02  0.00000000000E+00 0. -1.
         13    1    5    5    0    0 -0.49182430223E+00 -0.29242413227E+02 -0.24776604931E+02  0.38330676675E+02  0.00000000000E+00 0. -1.
        -13    1    5    5    0    0 -0.24475939329E+03 -0.46459589096E+03 -0.91214288139E+02  0.53298831963E+03  0.00000000000E+00 0.  1.
          3    1    6    6  503    0 -0.20528675851E+03  0.82111403039E+02  0.10646647783E+03  0.24539773151E+03  0.00000000000E+00 0. -1.
         -3    1    6    6    0  503 -0.31420821351E+03  0.87628525047E+02  0.28626636226E+03  0.43399768433E+03  0.00000000000E+00 0.  1.
<mgrwt>
<rscale>  0 0.20950158E+04</rscale>
<asrwt>0</asrwt>
<pdfrwt beam="1">  1        1 0.17148969E+00 0.20950158E+04</pdfrwt>
<pdfrwt beam="2">  1       -1 0.15144324E+00 0.20950158E+04</pdfrwt>
<totfact> 0.38666756E+00</totfact>
</mgrwt>
</event>
<event>
12    3  0.4688899E-008  0.2369130E+04  0.7818608E-02  0.8451152E-01
         -1   -1    0    0    0  501 -0.00000000000E+00  0.00000000000E+00  0.10646857935E+04  0.10646857935E+04  0.00000000000E+00 0.  1.
          1   -1    0    0  501    0  0.00000000000E+00 -0.00000000000E+00 -0.13179424122E+04  0.13179424122E+04  0.00000000000E+00 0. -1.
         23    2    1    2    0    0  0.26462552549E+02  0.65512334296E+02  0.90338391762E+03  0.91067053061E+03  0.90698291416E+02 0.  0.
        254    2    1    2    0    0 -0.26462552549E+02 -0.65512334296E+02 -0.11566405363E+04  0.14719576750E+04  0.90766179513E+03 0.  0.
         23    2    4    4    0    0  0.36905627981E+03  0.18335196987E+03 -0.43260412726E+03  0.60552545279E+03  0.98459435972E+02 0.  0.
         23    2    4    4    0    0 -0.39551883236E+03 -0.24886430416E+03 -0.72403640902E+03  0.86643222226E+03  0.90041576783E+02 0.  0.
          4    1    3    3  502    0 -0.22093782268E+02  0.72306190425E+01  0.68291271022E+02  0.72139550625E+02  0.00000000000E+00 0. -1.
         -4    1    3    3    0  502  0.48556334817E+02  0.58281715253E+02  0.83509264660E+03  0.83853097999E+03  0.00000000000E+00 0.  1.
         13    1    5    5    0    0  0.19334653302E+03  0.50962289239E+02 -0.16606364053E+03  0.25991762053E+03  0.00000000000E+00 0. -1.
        -13    1    5    5    0    0  0.17570974679E+03  0.13238968063E+03 -0.26654048673E+03  0.34560783226E+03  0.00000000000E+00 0.  1.
          1    1    6    6  503    0 -0.38771403212E+02 -0.21904896323E+02 -0.12898576079E+03  0.13645648638E+03  0.00000000000E+00 0. -1.
         -1    1    6    6    0  503 -0.35674742915E+03 -0.22695940784E+03 -0.59505064823E+03  0.72997573588E+03  0.00000000000E+00 0.  1.
<mgrwt>
<rscale>  0 0.23691303E+04</rscale>
<asrwt>0</asrwt>
<pdfrwt beam="1">  1        1 0.20276037E+00 0.23691303E+04</pdfrwt>
<pdfrwt beam="2">  1       -1 0.16379782E+00 0.23691303E+04</pdfrwt>
<totfact> 0.21591376E+00</totfact>
</mgrwt>
</event>
<event>
12    3  0.4688899E-008  0.2011125E+04  0.7818608E-02  0.8601437E-01
         -2   -1    0    0    0  501 -0.00000000000E+00  0.00000000000E+00  0.81290907315E+03  0.81290907315E+03  0.00000000000E+00 0.  1.
          2   -1    0    0  501    0  0.00000000000E+00 -0.00000000000E+00 -0.12438738219E+04  0.12438738219E+04  0.00000000000E+00 0. -1.
         23    2    1    2    0    0  0.57827205037E+03 -0.55084653648E+03 -0.26433301535E+03  0.84658357102E+03  0.94875332547E+02 0.  0.
        254    2    1    2    0    0 -0.57827205037E+03  0.55084653648E+03 -0.16663173338E+03  0.12101993240E+04  0.89386005519E+03 0.  0.
         23    2    4    4    0    0 -0.34517974284E+03  0.71319608288E+03 -0.33760845927E+03  0.86635011531E+03  0.93730160746E+02 0.  0.
         23    2    4    4    0    0 -0.23309230753E+03 -0.16234954639E+03  0.17097672589E+03  0.34384920869E+03  0.91158315485E+02 0.  0.
          1    1    3    3  502    0  0.35227704903E+03 -0.33005310108E+03 -0.11071814678E+03  0.49527030684E+03  0.00000000000E+00 0. -1.
         -1    1    3    3    0  502  0.22599500134E+03 -0.22079343540E+03 -0.15361486857E+03  0.35131326419E+03  0.00000000000E+00 0.  1.
         13    1    5    5    0    0 -0.20146768494E+03  0.31702002253E+03 -0.17853571366E+03  0.41589172126E+03  0.00000000000E+00 0. -1.
        -13    1    5    5    0    0 -0.14371205790E+03  0.39617606034E+03 -0.15907274561E+03  0.45045839405E+03  0.00000000000E+00 0.  1.
          4    1    6    6  503    0 -0.90416383556E+02 -0.12584149580E+02  0.58073006814E+02  0.10819407265E+03  0.00000000000E+00 0.  1.
         -4    1    6    6    0  503 -0.14267592397E+03 -0.14976539681E+03  0.11290371907E+03  0.23565513604E+03  0.00000000000E+00 0. -1.
<mgrwt>
<rscale>  0 0.20111254E+04</rscale>
<asrwt>0</asrwt>
<pdfrwt beam="1">  1        2 0.19136520E+00 0.20111254E+04</pdfrwt>
<pdfrwt beam="2">  1       -2 0.12506293E+00 0.20111254E+04</pdfrwt>
<totfact> 0.79293890E+00</totfact>
</mgrwt>
</event>
<event>
12    3  0.4688899E-008  0.2479080E+04  0.7818608E-02  0.8410476E-01
         -1   -1    0    0    0  501 -0.00000000000E+00  0.00000000000E+00  0.72801875939E+03  0.72801875939E+03  0.00000000000E+00 0.  1.
          1   -1    0    0  501    0  0.00000000000E+00 -0.00000000000E+00 -0.21104669959E+04  0.21104669959E+04  0.00000000000E+00 0. -1.
         23    2    1    2    0    0 -0.29261075957E+03 -0.47461835367E+03 -0.16463819514E+04  0.17406506062E+04  0.91691682671E+02 0.  0.
        254    2    1    2    0    0  0.29261075957E+03  0.47461835367E+03  0.26393371492E+03  0.10978351491E+04  0.90812849885E+03 0.  0.
         23    2    4    4    0    0 -0.31351395635E+03  0.23707481852E+03  0.15256144436E+03  0.43100671923E+03  0.89422185788E+02 0.  0.
         23    2    4    4    0    0  0.60612471593E+03  0.23754353515E+03  0.11137227055E+03  0.66682842985E+03  0.91881825488E+02 0.  0.
          2    1    3    3  502    0 -0.20249570862E+03 -0.36217317834E+03 -0.13247575441E+04  0.13882206142E+04  0.00000000000E+00 0. -1.
         -2    1    3    3    0  502 -0.90115050954E+02 -0.11244517533E+03 -0.32162440734E+03  0.35242999200E+03  0.00000000000E+00 0.  1.
         13    1    5    5    0    0 -0.27546849153E+03  0.20988306687E+03  0.16351626253E+03  0.38297697019E+03  0.00000000000E+00 0.  1.
        -13    1    5    5    0    0 -0.38045464826E+02  0.27191751646E+02 -0.10954818172E+02  0.48029749038E+02  0.00000000000E+00 0. -1.
          1    1    6    6  503    0  0.18395719826E+03  0.10259109925E+03  0.68770346945E+02  0.22157288881E+03  0.00000000000E+00 0. -1.
         -1    1    6    6    0  503  0.42216751767E+03  0.13495243590E+03  0.42601923609E+02  0.44525554104E+03  0.00000000000E+00 0.  1.
<mgrwt>
<rscale>  0 0.24790801E+04</rscale>
<asrwt>0</asrwt>
<pdfrwt beam="1">  1        1 0.32468723E+00 0.24790801E+04</pdfrwt>
<pdfrwt beam="2">  1       -1 0.11200289E+00 0.24790801E+04</pdfrwt>
<totfact> 0.16310554E+00</totfact>
</mgrwt>
</event>
<event>
12    3  0.4688899E-008  0.2067083E+04  0.7818608E-02  0.8575884E-01
          2   -1    0    0  501    0  0.00000000000E+00  0.00000000000E+00  0.33812178685E+04  0.33812178685E+04  0.00000000000E+00 0.  1.
         -2   -1    0    0    0  501 -0.00000000000E+00 -0.00000000000E+00 -0.31592407566E+03  0.31592407566E+03  0.00000000000E+00 0. -1.
         23    2    1    2    0    0 -0.49323525026E+03  0.44029488753E+03  0.20694771325E+04  0.21747125913E+04  0.97461031624E+02 0.  0.
        254    2    1    2    0    0  0.49323525026E+03 -0.44029488753E+03  0.99581666039E+03  0.15224293529E+04  0.94286781334E+03 0.  0.
         23    2    4    4    0    0  0.44079406062E+03  0.19868741093E+03  0.54032839301E+03  0.73073367857E+03  0.90779103173E+02 0.  0.
         23    2    4    4    0    0  0.52441189643E+02 -0.63898229846E+03  0.45548826738E+03  0.79169567434E+03  0.90906671577E+02 0.  0.
          1    1    3    3  502    0 -0.17899672202E+03  0.18723482160E+03  0.67332244753E+03  0.72142901471E+03  0.00000000000E+00 0. -1.
         -1    1    3    3    0  502 -0.31423852824E+03  0.25306006593E+03  0.13961546849E+04  0.14532835765E+04  0.00000000000E+00 0.  1.
         13    1    5    5    0    0  0.23258551713E+02  0.41280017692E+01  0.43705826222E+01  0.24022960243E+02  0.00000000000E+00 0.  1.
        -13    1    5    5    0    0  0.41753550890E+03  0.19455940916E+03  0.53595781039E+03  0.70671071833E+03  0.00000000000E+00 0. -1.
          1    1    6    6  503    0  0.27944946456E+02 -0.22873598548E+03  0.11266558014E+03  0.25650458872E+03  0.00000000000E+00 0. -1.
         -1    1    6    6    0  503  0.24496243186E+02 -0.41024631297E+03  0.34282268724E+03  0.53519108562E+03  0.00000000000E+00 0.  1.
<mgrwt>
<rscale>  0 0.20670831E+04</rscale>
<asrwt>0</asrwt>
<pdfrwt beam="1">  1        2 0.52018734E+00 0.20670831E+04</pdfrwt>
<pdfrwt beam="2">  1       -2 0.48603706E-01 0.20670831E+04</pdfrwt>
<totfact> 0.36524103E+00</totfact>
</mgrwt>
</event>
<event>
12    3  0.4688899E-008  0.2476917E+04  0.7818608E-02  0.8411255E-01
         -2   -1    0    0    0  501 -0.00000000000E+00  0.00000000000E+00  0.67792056246E+03  0.67792056246E+03  0.00000000000E+00 0.  1.
          2   -1    0    0  501    0  0.00000000000E+00 -0.00000000000E+00 -0.22624764204E+04  0.22624764204E+04  0.00000000000E+00 0. -1.
         23    2    1    2    0    0 -0.66464086291E+03 -0.79377248817E+03 -0.36953273140E+03  0.11030529086E+04  0.91373081350E+02 0.  0.
        254    2    1    2    0    0  0.66464086291E+03  0.79377248817E+03 -0.12150231266E+04  0.18373440743E+04  0.90979657592E+03 0.  0.
         23    2    4    4    0    0  0.38801268043E+03  0.58681904156E+03 -0.12887021482E+04  0.14711221607E+04  0.92394573033E+02 0.  0.
         23    2    4    4    0    0  0.27662818247E+03  0.20695344660E+03  0.73679021653E+02  0.36622191358E+03  0.96628212021E+02 0.  0.
          3    1    3    3  502    0 -0.22791676015E+02 -0.13419856897E+02  0.19513788465E+01  0.26520952737E+02  0.00000000000E+00 0. -1.
         -3    1    3    3    0  502 -0.64184918689E+03 -0.78035263127E+03 -0.37148411025E+03  0.10765319559E+04  0.00000000000E+00 0.  1.
         13    1    5    5    0    0  0.17046227002E+03  0.23816961687E+03 -0.62972910361E+03  0.69450766435E+03  0.00000000000E+00 0.  1.
        -13    1    5    5    0    0  0.21755041041E+03  0.34864942469E+03 -0.65897304461E+03  0.77661449634E+03  0.00000000000E+00 0. -1.
          1    1    6    6  503    0  0.13062840298E+02  0.50007888734E+02  0.54646702563E+01  0.51973929554E+02  0.00000000000E+00 0. -1.
         -1    1    6    6    0  503  0.26356534217E+03  0.15694555787E+03  0.68214351397E+02  0.31424798403E+03  0.00000000000E+00 0.  1.
<mgrwt>
<rscale>  0 0.24769169E+04</rscale>
<asrwt>0</asrwt>
<pdfrwt beam="1">  1        2 0.34807329E+00 0.24769169E+04</pdfrwt>
<pdfrwt beam="2">  1       -2 0.10429547E+00 0.24769169E+04</pdfrwt>
<totfact> 0.31778670E+00</totfact>
</mgrwt>
</event>
<event>
12    3  0.4688899E-008  0.1477251E+04  0.7818608E-02  0.8899723E-01
          2   -1    0    0  501    0  0.00000000000E+00  0.00000000000E+00  0.20598089940E+04  0.20598089940E+04  0.00000000000E+00 0. -1.
         -2   -1    0    0    0  501 -0.00000000000E+00 -0.00000000000E+00 -0.26486334727E+03  0.26486334727E+03  0.00000000000E+00 0.  1.
         23    2    1    2    0    0  0.35489370642E+03  0.31648075422E+03  0.47491770598E+03  0.67809713507E+03  0.90328768867E+02 0.  0.
        254    2    1    2    0    0 -0.35489370642E+03 -0.31648075422E+03  0.13200279408E+04  0.16465752063E+04  0.86175781675E+03 0.  0.
         23    2    4    4    0    0 -0.23062188419E+03 -0.57518058721E+03  0.60355699907E+03  0.86951488296E+03  0.88067696713E+02 0.  0.
         23    2    4    4    0    0 -0.12427182223E+03  0.25869983299E+03  0.71647094173E+03  0.77706032329E+03  0.90127944057E+02 0.  0.
          1    1    3    3  502    0  0.65365654281E+02  0.48312455807E+02  0.39243220732E+02  0.90259584085E+02  0.00000000000E+00 0. -1.
         -1    1    3    3    0  502  0.28952805214E+03  0.26816829841E+03  0.43567448525E+03  0.58783755098E+03  0.00000000000E+00 0.  1.
         13    1    5    5    0    0 -0.13597033959E+03 -0.28555544610E+03  0.25278239335E+03  0.40488119793E+03  0.00000000000E+00 0. -1.
        -13    1    5    5    0    0 -0.94651544602E+02 -0.28962514111E+03  0.35077460571E+03  0.46463368504E+03  0.00000000000E+00 0.  1.
          3    1    6    6  503    0 -0.48534235551E+02  0.34794376824E+02  0.20674682047E+03  0.21519867206E+03  0.00000000000E+00 0. -1.
         -3    1    6    6    0  503 -0.75737586678E+02  0.22390545617E+03  0.50972412126E+03  0.56186165123E+03  0.00000000000E+00 0.  1.
<mgrwt>
<rscale>  0 0.14772514E+04</rscale>
<asrwt>0</asrwt>
<pdfrwt beam="1">  1        2 0.31689368E+00 0.14772514E+04</pdfrwt>
<pdfrwt beam="2">  1       -2 0.40748209E-01 0.14772514E+04</pdfrwt>
<totfact> 0.34173289E+01</totfact>
</mgrwt>
</event>
<event>
12    3  0.4688899E-008  0.2681746E+04  0.7818608E-02  0.8340952E-01
          2   -1    0    0  501    0  0.00000000000E+00  0.00000000000E+00  0.12332622946E+04  0.12332622946E+04  0.00000000000E+00 0.  1.
         -2   -1    0    0    0  501 -0.00000000000E+00 -0.00000000000E+00 -0.14578734868E+04  0.14578734868E+04  0.00000000000E+00 0. -1.
         23    2    1    2    0    0  0.91665352969E+03 -0.75671945188E+03 -0.16930747725E+03  0.12043368655E+04  0.94256253407E+02 0.  0.
        254    2    1    2    0    0 -0.91665352969E+03  0.75671945188E+03 -0.55303714922E+02  0.14867989159E+04  0.89142273535E+03 0.  0.
         23    2    4    4    0    0 -0.54747558153E+03 -0.85209891434E+02 -0.43835053623E+01  0.56151025308E+03  0.91018191692E+02 0.  0.
         23    2    4    4    0    0 -0.36917794816E+03  0.84192934332E+03 -0.50920209560E+02  0.92528866283E+03  0.91808851802E+02 0.  0.
          4    1    3    3  502    0  0.22467584501E+02 -0.41578150117E+02 -0.32659166532E+01  0.47373000032E+02  0.00000000000E+00 0. -1.
         -4    1    3    3    0  502  0.89418594519E+03 -0.71514130177E+03 -0.16604156060E+03  0.11569638654E+04  0.00000000000E+00 0.  1.
         13    1    5    5    0    0 -0.19506928626E+03  0.13131858686E+02  0.38100118215E+01  0.19554791829E+03  0.00000000000E+00 0. -1.
        -13    1    5    5    0    0 -0.35240629527E+03 -0.98341750120E+02 -0.81935171838E+01  0.36596233479E+03  0.00000000000E+00 0.  1.
          1    1    6    6  503    0 -0.44370813439E+02  0.60634451403E+02 -0.23494529558E+02  0.78722923608E+02  0.00000000000E+00 0. -1.
         -1    1    6    6    0  503 -0.32480713472E+03  0.78129489191E+03 -0.27425680002E+02  0.84656573922E+03  0.00000000000E+00 0.  1.
<mgrwt>
<rscale>  0 0.26817460E+04</rscale>
<asrwt>0</asrwt>
<pdfrwt beam="1">  1        2 0.18973266E+00 0.26817460E+04</pdfrwt>
<pdfrwt beam="2">  1       -2 0.22428823E+00 0.26817460E+04</pdfrwt>
<totfact> 0.14763358E+00</totfact>
</mgrwt>
</event>
<event>
12    3  0.4688899E-008  0.2967984E+04  0.7818608E-02  0.8252933E-01
         -2   -1    0    0    0  501 -0.00000000000E+00  0.00000000000E+00  0.10760388675E+04  0.10760388675E+04  0.00000000000E+00 0.  1.
          2   -1    0    0  501    0  0.00000000000E+00 -0.00000000000E+00 -0.20466108051E+04  0.20466108051E+04  0.00000000000E+00 0. -1.
         23    2    1    2    0    0  0.75345467077E+02 -0.13047185085E+04 -0.77987869817E+03  0.15246049484E+04  0.90786228009E+02 0.  0.
        254    2    1    2    0    0 -0.75345467077E+02  0.13047185085E+04 -0.19069323943E+03  0.15980447242E+04  0.89967533203E+03 0.  0.
         23    2    4    4    0    0 -0.21883655200E+03  0.48341674555E+03  0.30941507406E+03  0.62136151747E+03  0.93655010383E+02 0.  0.
         23    2    4    4    0    0  0.14349108492E+03  0.82130176292E+03 -0.50010831350E+03  0.97668320668E+03  0.93142276932E+02 0.  0.
          4    1    3    3  502    0  0.31956158249E+02 -0.11031360838E+04 -0.64629185335E+03  0.12789149992E+04  0.00000000000E+00 0. -1.
         -4    1    3    3    0  502  0.43389308828E+02 -0.20158242467E+03 -0.13358684482E+03  0.24568994925E+03  0.00000000000E+00 0.  1.
         13    1    5    5    0    0 -0.61998231231E+02  0.69270364320E+02  0.29790780800E+02  0.97619950161E+02  0.00000000000E+00 0.  1.
        -13    1    5    5    0    0 -0.15683832077E+03  0.41414638123E+03  0.27962429326E+03  0.52374156731E+03  0.00000000000E+00 0. -1.
          3    1    6    6  503    0  0.13339400402E+03  0.63732266552E+03 -0.35139233053E+03  0.73989912167E+03  0.00000000000E+00 0. -1.
         -3    1    6    6    0  503  0.10097080894E+02  0.18397909740E+03 -0.14871598297E+03  0.23678408501E+03  0.00000000000E+00 0.  1.
<mgrwt>
<rscale>  0 0.29679843E+04</rscale>
<asrwt>0</asrwt>
<pdfrwt beam="1">  1        2 0.31486320E+00 0.29679843E+04</pdfrwt>
<pdfrwt beam="2">  1       -2 0.16554444E+00 0.29679843E+04</pdfrwt>
<totfact> 0.12392980E+00</totfact>
</mgrwt>
</event>
<event>
12    3  0.4688899E-008  0.3646480E+04  0.7818608E-02  0.8079927E-01
          1   -1    0    0  501    0  0.00000000000E+00  0.00000000000E+00  0.26927275308E+04  0.26927275308E+04  0.00000000000E+00 0. -1.
         -1   -1    0    0    0  501 -0.00000000000E+00 -0.00000000000E+00 -0.12345116000E+04  0.12345116000E+04  0.00000000000E+00 0.  1.
         23    2    1    2    0    0  0.13150659316E+04  0.51680959702E+03 -0.36229815822E+03  0.14611170133E+04  0.84335087448E+02 0.  0.
        254    2    1    2    0    0 -0.13150659316E+04 -0.51680959702E+03  0.18205140890E+04  0.24661221175E+04  0.87806388505E+03 0.  0.
         23    2    4    4    0    0 -0.13841236626E+04 -0.59775491183E+03  0.15671741394E+04  0.21766511595E+04  0.93092634149E+02 0.  0.
         23    2    4    4    0    0  0.69057731046E+02  0.80945314811E+02  0.25333994956E+03  0.28947095806E+03  0.91055978990E+02 0.  0.
          2    1    3    3  502    0  0.12946654056E+04  0.49692655595E+03 -0.35875454445E+03  0.14324103245E+04  0.00000000000E+00 0.  1.
         -2    1    3    3    0  502  0.20400525984E+02  0.19883041070E+02 -0.35436137781E+01  0.28706688789E+02  0.00000000000E+00 0. -1.
         13    1    5    5    0    0 -0.13291327499E+04 -0.58806601539E+03  0.15250838497E+04  0.21067264307E+04  0.00000000000E+00 0.  1.
        -13    1    5    5    0    0 -0.54990912712E+02 -0.96888964377E+01  0.42090289767E+02  0.69924728729E+02  0.00000000000E+00 0. -1.
          1    1    6    6  503    0  0.19811050141E+02  0.61126955982E+02  0.56387669811E+02  0.85490068207E+02  0.00000000000E+00 0. -1.
         -1    1    6    6    0  503  0.49246680905E+02  0.19818358829E+02  0.19695227974E+03  0.20398088985E+03  0.00000000000E+00 0.  1.
<mgrwt>
<rscale>  0 0.36464796E+04</rscale>
<asrwt>0</asrwt>
<pdfrwt beam="1">  1        1 0.41426577E+00 0.36464796E+04</pdfrwt>
<pdfrwt beam="2">  1       -1 0.18992486E+00 0.36464796E+04</pdfrwt>
<totfact> 0.14154828E-01</totfact>
</mgrwt>
</event>
<event>
12    3  0.4688899E-008  0.2233622E+04  0.7818608E-02  0.8504563E-01
         -1   -1    0    0    0  501 -0.00000000000E+00  0.00000000000E+00  0.21452476125E+04  0.21452476125E+04  0.00000000000E+00 0.  1.
          1   -1    0    0  501    0  0.00000000000E+00 -0.00000000000E+00 -0.58140918915E+03  0.58140918915E+03  0.00000000000E+00 0. -1.
         23    2    1    2    0    0 -0.12020615349E+03 -0.54083296183E+03  0.15732052488E+04  0.16704457100E+04  0.92001649270E+02 0.  0.
        254    2    1    2    0    0  0.12020615349E+03  0.54083296183E+03 -0.93668253907E+01  0.10562110917E+04  0.89919092566E+03 0.  0.
         23    2    4    4    0    0  0.48837082104E+03  0.34605557318E+03  0.10178874843E+03  0.61465284909E+03  0.95794869487E+02 0.  0.
         23    2    4    4    0    0 -0.36816466754E+03  0.19477738865E+03 -0.11115557382E+03  0.44155824257E+03  0.95575448893E+02 0.  0.
          2    1    3    3  502    0  0.61860879171E+01 -0.10542503033E+03  0.23840319804E+03  0.26074660024E+03  0.00000000000E+00 0. -1.
         -2    1    3    3    0  502 -0.12639224141E+03 -0.43540793150E+03  0.13348020507E+04  0.14096991098E+04  0.00000000000E+00 0.  1.
         13    1    5    5    0    0  0.16766683785E+03  0.15477583770E+03  0.75350559715E+02  0.24030279920E+03  0.00000000000E+00 0. -1.
        -13    1    5    5    0    0  0.32070398318E+03  0.19127973548E+03  0.26438188716E+02  0.37435004990E+03  0.00000000000E+00 0.  1.
          2    1    6    6  503    0 -0.14760307348E+03  0.26716965398E+02 -0.42024611893E+02  0.15577718557E+03  0.00000000000E+00 0. -1.
         -2    1    6    6    0  503 -0.22056159407E+03  0.16806042325E+03 -0.69130961929E+02  0.28578105699E+03  0.00000000000E+00 0.  1.
<mgrwt>
<rscale>  0 0.22336219E+04</rscale>
<asrwt>0</asrwt>
<pdfrwt beam="1">  1        1 0.89447569E-01 0.22336219E+04</pdfrwt>
<pdfrwt beam="2">  1       -1 0.33003809E+00 0.22336219E+04</pdfrwt>
<totfact> 0.68589298E-01</totfact>
</mgrwt>
</event>
<event>
12    3  0.4688899E-008  0.1463583E+04  0.7818608E-02  0.8909038E-01
          2   -1    0    0  501    0  0.00000000000E+00  0.00000000000E+00  0.14488671302E+04  0.14488671302E+04  0.00000000000E+00 0.  1.
         -2   -1    0    0    0  501 -0.00000000000E+00 -0.00000000000E+00 -0.36961204323E+03  0.36961204323E+03  0.00000000000E+00 0. -1.
         23    2    1    2    0    0 -0.26694302648E+03 -0.14633766482E+03  0.75321122212E+03  0.81757963938E+03  0.91847863798E+02 0.  0.
        254    2    1    2    0    0  0.26694302648E+03  0.14633766482E+03  0.32604386481E+03  0.10008995340E+04  0.89600333919E+03 0.  0.
         23    2    4    4    0    0 -0.11497666877E+02 -0.18517108907E+02 -0.28663629640E+03  0.30191171014E+03  0.92278029014E+02 0.  0.
         23    2    4    4    0    0  0.27844069336E+03  0.16485477372E+03  0.61268016121E+03  0.69898782386E+03  0.92199142228E+02 0.  0.
          1    1    3    3  502    0 -0.78050286891E+02 -0.81312601785E+02  0.20249606040E+03  0.23175038505E+03  0.00000000000E+00 0. -1.
         -1    1    3    3    0  502 -0.18889273959E+03 -0.65025063031E+02  0.55071516171E+03  0.58582925433E+03  0.00000000000E+00 0.  1.
         13    1    5    5    0    0 -0.46159516523E+02 -0.24329427751E+02 -0.22488740346E+03  0.23086135721E+03  0.00000000000E+00 0.  1.
        -13    1    5    5    0    0  0.34661849646E+02  0.58123188438E+01 -0.61748892945E+02  0.71050352927E+02  0.00000000000E+00 0. -1.
          2    1    6    6  503    0 -0.46339570288E+00  0.18843100054E+02  0.17710198861E+02  0.25863648213E+02  0.00000000000E+00 0. -1.
         -2    1    6    6    0  503  0.27890408906E+03  0.14601167367E+03  0.59496996235E+03  0.67312417565E+03  0.00000000000E+00 0.  1.
<mgrwt>
<rscale>  0 0.14635829E+04</rscale>
<asrwt>0</asrwt>
<pdfrwt beam="1">  1        2 0.22290263E+00 0.14635829E+04</pdfrwt>
<pdfrwt beam="2">  1       -2 0.56863392E-01 0.14635829E+04</pdfrwt>
<totfact> 0.38120286E+01</totfact>
</mgrwt>
</event>
<event>
12    3  0.4688899E-008  0.1289001E+04  0.7818608E-02  0.9038333E-01
         -2   -1    0    0    0  501 -0.00000000000E+00  0.00000000000E+00  0.48266953169E+03  0.48266953169E+03  0.00000000000E+00 0.  1.
          2   -1    0    0  501    0  0.00000000000E+00 -0.00000000000E+00 -0.86059092221E+03  0.86059092221E+03  0.00000000000E+00 0. -1.
         23    2    1    2    0    0  0.23582127615E+03 -0.20924831326E+03 -0.83617733374E+02  0.33869676176E+03  0.91252617511E+02 0.  0.
        254    2    1    2    0    0 -0.23582127615E+03  0.20924831326E+03 -0.29430365714E+03  0.10045636921E+04  0.90726899985E+03 0.  0.
         23    2    4    4    0    0  0.22994498723E+01  0.51687632257E+03 -0.31982428542E+02  0.52635225558E+03  0.94113765788E+02 0.  0.
         23    2    4    4    0    0 -0.23812072602E+03 -0.30762800931E+03 -0.26232122860E+03  0.47821143657E+03  0.92397396150E+02 0.  0.
          3    1    3    3  502    0  0.13593401743E+02 -0.21955463783E+02 -0.35832669387E+02  0.44167897349E+02  0.00000000000E+00 0. -1.
         -3    1    3    3    0  502  0.22222787441E+03 -0.18729284948E+03 -0.47785063988E+02  0.29452886441E+03  0.00000000000E+00 0.  1.
         13    1    5    5    0    0 -0.32622161196E+02  0.17629895310E+03 -0.40801043085E+02  0.18387564108E+03  0.00000000000E+00 0. -1.
        -13    1    5    5    0    0  0.34921611068E+02  0.34057736948E+03  0.88186145431E+01  0.34247661450E+03  0.00000000000E+00 0.  1.
          3    1    6    6  503    0 -0.58807192212E+02 -0.91564075115E+02 -0.27655891280E+02  0.11228140554E+03  0.00000000000E+00 0. -1.
         -3    1    6    6    0  503 -0.17931353381E+03 -0.21606393420E+03 -0.23466533732E+03  0.36593003103E+03  0.00000000000E+00 0.  1.
<mgrwt>
<rscale>  0 0.12890012E+04</rscale>
<asrwt>0</asrwt>
<pdfrwt beam="1">  1        2 0.13239860E+00 0.12890012E+04</pdfrwt>
<pdfrwt beam="2">  1       -2 0.74256851E-01 0.12890012E+04</pdfrwt>
<totfact> 0.49986238E+01</totfact>
</mgrwt>
</event>
<event>
12    3  0.4688899E-008  0.1447576E+04  0.7818608E-02  0.8920082E-01
          2   -1    0    0  501    0  0.00000000000E+00  0.00000000000E+00  0.10161752778E+04  0.10161752778E+04  0.00000000000E+00 0. -1.
         -2   -1    0    0    0  501 -0.00000000000E+00 -0.00000000000E+00 -0.51553049047E+03  0.51553049047E+03  0.00000000000E+00 0.  1.
         23    2    1    2    0    0  0.83717084707E+02 -0.10056745105E+03 -0.28775442304E+03  0.33017678127E+03  0.95350597391E+02 0.  0.
        254    2    1    2    0    0 -0.83717084707E+02  0.10056745105E+03  0.78839921033E+03  0.12015289870E+04  0.89720467518E+03 0.  0.
         23    2    4    4    0    0 -0.24836983473E+03  0.40574189378E+03  0.66402179709E+03  0.82192705467E+03  0.91241860047E+02 0.  0.
         23    2    4    4    0    0  0.16465275003E+03 -0.30517444272E+03  0.12437741324E+03  0.37960193229E+03  0.91574655275E+02 0.  0.
          3    1    3    3  502    0  0.12205094619E+02  0.18502287471E+02 -0.28995301816E+02  0.36496938278E+02  0.00000000000E+00 0. -1.
         -3    1    3    3    0  502  0.71511990089E+02 -0.11906973853E+03 -0.25875912123E+03  0.29367984299E+03  0.00000000000E+00 0.  1.
         13    1    5    5    0    0 -0.51900123498E+02  0.35667460113E+02  0.61348653573E+02  0.87917278309E+02  0.00000000000E+00 0. -1.
        -13    1    5    5    0    0 -0.19646971124E+03  0.37007443366E+03  0.60267314351E+03  0.73400977636E+03  0.00000000000E+00 0.  1.
          4    1    6    6  503    0  0.22177756277E+02 -0.21512934249E+02 -0.13250124640E+02  0.33618819380E+02  0.00000000000E+00 0. -1.
         -4    1    6    6    0  503  0.14247499375E+03 -0.28366150847E+03  0.13762753788E+03  0.34598311291E+03  0.00000000000E+00 0.  1.
<mgrwt>
<rscale>  0 0.14475764E+04</rscale>
<asrwt>0</asrwt>
<pdfrwt beam="1">  1        2 0.15633466E+00 0.14475764E+04</pdfrwt>
<pdfrwt beam="2">  1       -2 0.79312383E-01 0.14475764E+04</pdfrwt>
<totfact> 0.33629251E+01</totfact>
</mgrwt>
</event>
<event>
12    3  0.4688899E-008  0.1473139E+04  0.7818608E-02  0.8902514E-01
          1   -1    0    0  501    0  0.00000000000E+00  0.00000000000E+00  0.14054295496E+04  0.14054295496E+04  0.00000000000E+00 0. -1.
         -1   -1    0    0    0  501 -0.00000000000E+00 -0.00000000000E+00 -0.38602776866E+03  0.38602776866E+03  0.00000000000E+00 0.  1.
         23    2    1    2    0    0  0.28579625615E+03 -0.24124893818E+03  0.64505738760E+03  0.75101681663E+03  0.89703262868E+02 0.  0.
        254    2    1    2    0    0 -0.28579625615E+03  0.24124893818E+03  0.37434439338E+03  0.10404405017E+04  0.89582485031E+03 0.  0.
         23    2    4    4    0    0  0.74719722200E+02  0.21418816267E+03  0.56932775813E+03  0.61953060766E+03  0.90688873287E+02 0.  0.
         23    2    4    4    0    0 -0.36051597835E+03  0.27060775511E+02 -0.19498336475E+03  0.42090989400E+03  0.91883459444E+02 0.  0.
          1    1    3    3  502    0  0.18108200013E+03 -0.11598781997E+03  0.43233172538E+03  0.48286083495E+03  0.00000000000E+00 0. -1.
         -1    1    3    3    0  502  0.10471425601E+03 -0.12526111822E+03  0.21272566221E+03  0.26815598168E+03  0.00000000000E+00 0.  1.
         13    1    5    5    0    0 -0.88356371785E+01  0.32530838519E+02  0.16565764144E+03  0.16905258976E+03  0.00000000000E+00 0.  1.
        -13    1    5    5    0    0  0.83555359378E+02  0.18165732415E+03  0.40367011670E+03  0.45047801790E+03  0.00000000000E+00 0. -1.
          3    1    6    6  503    0 -0.19568368481E+03 -0.26771614774E+02 -0.81413493178E+02  0.21362813656E+03  0.00000000000E+00 0. -1.
         -3    1    6    6    0  503 -0.16483229353E+03  0.53832390286E+02 -0.11356987158E+03  0.20728175743E+03  0.00000000000E+00 0.  1.
<mgrwt>
<rscale>  0 0.14731393E+04</rscale>
<asrwt>0</asrwt>
<pdfrwt beam="1">  1        1 0.21621993E+00 0.14731393E+04</pdfrwt>
<pdfrwt beam="2">  1       -1 0.59388888E-01 0.14731393E+04</pdfrwt>
<totfact> 0.21218701E+01</totfact>
</mgrwt>
</event>
<event>
12    3  0.4688899E-008  0.2123300E+04  0.7818608E-02  0.8551048E-01
         -2   -1    0    0    0  501 -0.00000000000E+00  0.00000000000E+00  0.91294412531E+03  0.91294412531E+03  0.00000000000E+00 0.  1.
          2   -1    0    0  501    0  0.00000000000E+00 -0.00000000000E+00 -0.12345780251E+04  0.12345780251E+04  0.00000000000E+00 0. -1.
         23    2    1    2    0    0  0.32916041868E+03 -0.13695229842E+03  0.67047401404E+03  0.76492585958E+03  0.92052451805E+02 0.  0.
        254    2    1    2    0    0 -0.32916041868E+03  0.13695229842E+03 -0.99210791379E+03  0.13825962908E+04  0.89453444730E+03 0.  0.
         23    2    4    4    0    0 -0.16613626299E+03  0.37410515024E+03 -0.86966464573E+02  0.42818682852E+03  0.90691084690E+02 0.  0.
         23    2    4    4    0    0 -0.16302415570E+03 -0.23715285182E+03 -0.90514144922E+03  0.95440946226E+03  0.93797804292E+02 0.  0.
          1    1    3    3  502    0  0.10865750981E+02  0.82386151889E+00  0.75165442429E+02  0.75951214788E+02  0.00000000000E+00 0. -1.
         -1    1    3    3    0  502  0.31829466770E+03 -0.13777615994E+03  0.59530857161E+03  0.68897464479E+03  0.00000000000E+00 0.  1.
         13    1    5    5    0    0 -0.88668061267E+02  0.21797877048E+03 -0.94850896873E+02  0.25371925845E+03  0.00000000000E+00 0.  1.
        -13    1    5    5    0    0 -0.77468201721E+02  0.15612637976E+03  0.78844323003E+01  0.17446757008E+03  0.00000000000E+00 0. -1.
          3    1    6    6  503    0 -0.65117815478E+02 -0.73478910524E+02 -0.45603070958E+03  0.46647989052E+03  0.00000000000E+00 0. -1.
         -3    1    6    6    0  503 -0.97906340218E+02 -0.16367394129E+03 -0.44911073964E+03  0.48792957173E+03  0.00000000000E+00 0.  1.
<mgrwt>
<rscale>  0 0.21233000E+04</rscale>
<asrwt>0</asrwt>
<pdfrwt beam="1">  1        2 0.18993508E+00 0.21233000E+04</pdfrwt>
<pdfrwt beam="2">  1       -2 0.14045294E+00 0.21233000E+04</pdfrwt>
<totfact> 0.59181452E+00</totfact>
</mgrwt>
</event>
<event>
12    3  0.4688899E-008  0.1457389E+04  0.7818608E-02  0.8913294E-01
          2   -1    0    0  501    0  0.00000000000E+00  0.00000000000E+00  0.10528837288E+04  0.10528837288E+04  0.00000000000E+00 0.  1.
         -2   -1    0    0    0  501 -0.00000000000E+00 -0.00000000000E+00 -0.50432497138E+03  0.50432497138E+03  0.00000000000E+00 0. -1.
         23    2    1    2    0    0  0.26537849163E+03  0.21531476300E+02  0.56954057583E+03  0.63494617823E+03  0.88830363269E+02 0.  0.
        254    2    1    2    0    0 -0.26537849163E+03 -0.21531476300E+02 -0.20981818434E+02  0.92226252192E+03  0.88274490899E+03 0.  0.
         23    2    4    4    0    0 -0.32940738543E+03 -0.23318719537E+03 -0.33117901181E+03  0.53051717033E+03  0.94251984027E+02 0.  0.
         23    2    4    4    0    0  0.64028893801E+02  0.21165571907E+03  0.31019719337E+03  0.39174535159E+03  0.91347025451E+02 0.  0.
          2    1    3    3  502    0  0.17070580650E+03  0.47178781065E+02  0.30343170401E+03  0.35133617627E+03  0.00000000000E+00 0. -1.
         -2    1    3    3    0  502  0.94672685135E+02 -0.25647304765E+02  0.26610887182E+03  0.28361000197E+03  0.00000000000E+00 0.  1.
         13    1    5    5    0    0 -0.22380792860E+03 -0.10600456313E+03 -0.17627166899E+03  0.30397147498E+03  0.00000000000E+00 0. -1.
        -13    1    5    5    0    0 -0.10559945683E+03 -0.12718263224E+03 -0.15490734281E+03  0.22654569535E+03  0.00000000000E+00 0.  1.
          2    1    6    6  503    0 -0.42678451199E+01  0.15739560331E+02  0.80839062422E+02  0.82467583175E+02  0.00000000000E+00 0. -1.
         -2    1    6    6    0  503  0.68296738921E+02  0.19591615874E+03  0.22935813095E+03  0.30927776841E+03  0.00000000000E+00 0.  1.
<mgrwt>
<rscale>  0 0.14573888E+04</rscale>
<asrwt>0</asrwt>
<pdfrwt beam="1">  1        2 0.16198211E+00 0.14573888E+04</pdfrwt>
<pdfrwt beam="2">  1       -2 0.77588457E-01 0.14573888E+04</pdfrwt>
<totfact> 0.33458924E+01</totfact>
</mgrwt>
</event>
<event>
12    3  0.4688899E-008  0.1260601E+04  0.7818608E-02  0.9061406E-01
         -2   -1    0    0    0  501 -0.00000000000E+00  0.00000000000E+00  0.21074991077E+03  0.21074991077E+03  0.00000000000E+00 0.  1.
          2   -1    0    0  501    0  0.00000000000E+00 -0.00000000000E+00 -0.18850727152E+04  0.18850727152E+04  0.00000000000E+00 0. -1.
         23    2    1    2    0    0 -0.18215296505E+03 -0.22946641110E+03 -0.45148693016E+03  0.54660651070E+03  0.95413274428E+02 0.  0.
        254    2    1    2    0    0  0.18215296505E+03  0.22946641110E+03 -0.12228358743E+04  0.15492161153E+04  0.90493561091E+03 0.  0.
         23    2    4    4    0    0  0.44896909985E+03  0.52502034563E+02 -0.25799120106E+03  0.52838304762E+03  0.91101421121E+02 0.  0.
         23    2    4    4    0    0 -0.26681613480E+03  0.17696437654E+03 -0.96484467321E+03  0.10208330677E+04  0.93100312718E+02 0.  0.
          1    1    3    3  502    0 -0.21869124246E+02  0.13971280924E+00 -0.70299309163E+02  0.73622489660E+02  0.00000000000E+00 0. -1.
         -1    1    3    3    0  502 -0.16028384080E+03 -0.22960612391E+03 -0.38118762100E+03  0.47298402104E+03  0.00000000000E+00 0.  1.
         13    1    5    5    0    0  0.12571070254E+03  0.55035266075E+02 -0.89543751605E+02  0.16386013760E+03  0.00000000000E+00 0. -1.
        -13    1    5    5    0    0  0.32325839731E+03 -0.25332315121E+01 -0.16844744946E+03  0.36452291001E+03  0.00000000000E+00 0.  1.
          2    1    6    6  503    0 -0.40274383688E+02  0.45142950029E+02 -0.97434621875E+02  0.11468834927E+03  0.00000000000E+00 0. -1.
         -2    1    6    6    0  503 -0.22654175112E+03  0.13182142651E+03 -0.86741005134E+03  0.90614471838E+03  0.00000000000E+00 0.  1.
<mgrwt>
<rscale>  0 0.12606013E+04</rscale>
<asrwt>0</asrwt>
<pdfrwt beam="1">  1        2 0.29001119E+00 0.12606013E+04</pdfrwt>
<pdfrwt beam="2">  1       -2 0.32423062E-01 0.12606013E+04</pdfrwt>
<totfact> 0.67435779E+01</totfact>
</mgrwt>
</event>
<event>
12    3  0.4688899E-008  0.1729556E+04  0.7818608E-02  0.8744685E-01
          2   -1    0    0  501    0  0.00000000000E+00  0.00000000000E+00  0.13830274423E+04  0.13830274423E+04  0.00000000000E+00 0. -1.
         -2   -1    0    0    0  501 -0.00000000000E+00 -0.00000000000E+00 -0.54072770302E+03  0.54072770302E+03  0.00000000000E+00 0.  1.
         23    2    1    2    0    0 -0.27174179764E+03  0.56304950496E+03  0.17990195408E+03  0.65696514106E+03  0.91488435747E+02 0.  0.
        254    2    1    2    0    0  0.27174179764E+03 -0.56304950496E+03  0.66239778520E+03  0.12667900042E+04  0.88040771203E+03 0.  0.
         23    2    4    4    0    0 -0.61405833168E+02 -0.66051381362E+03  0.60907285024E+03  0.90459415259E+03  0.85274085622E+02 0.  0.
         23    2    4    4    0    0  0.33314763081E+03  0.97464308661E+02  0.53324934959E+02  0.36219585165E+03  0.88632109810E+02 0.  0.
          2    1    3    3  502    0 -0.78490636129E+02  0.19687366130E+03  0.10376391501E+03  0.23598086476E+03  0.00000000000E+00 0. -1.
         -2    1    3    3    0  502 -0.19325116151E+03  0.36617584365E+03  0.76138039065E+02  0.42098427630E+03  0.00000000000E+00 0.  1.
         13    1    5    5    0    0  0.19560428126E+02 -0.20143172828E+03  0.17257770933E+03  0.26597070753E+03  0.00000000000E+00 0.  1.
        -13    1    5    5    0    0 -0.80966261293E+02 -0.45908208534E+03  0.43649514091E+03  0.63862344506E+03  0.00000000000E+00 0. -1.
          4    1    6    6  503    0  0.97365192603E+02  0.46060529929E+02  0.54845940324E+02  0.12087030371E+03  0.00000000000E+00 0.  1.
         -4    1    6    6    0  503  0.23578243821E+03  0.51403778732E+02 -0.15210053650E+01  0.24132554795E+03  0.00000000000E+00 0. -1.
<mgrwt>
<rscale>  0 0.17295563E+04</rscale>
<asrwt>0</asrwt>
<pdfrwt beam="1">  1        2 0.21277345E+00 0.17295563E+04</pdfrwt>
<pdfrwt beam="2">  1       -2 0.83188878E-01 0.17295563E+04</pdfrwt>
<totfact> 0.17778760E+01</totfact>
</mgrwt>
</event>
<event>
12    3  0.4688899E-008  0.9881362E+03  0.7818608E-02  0.9321653E-01
          3   -1    0    0  501    0  0.00000000000E+00  0.00000000000E+00  0.48791598471E+03  0.48791598471E+03  0.00000000000E+00 0. -1.
         -3   -1    0    0    0  501 -0.00000000000E+00 -0.00000000000E+00 -0.50029777451E+03  0.50029777451E+03  0.00000000000E+00 0.  1.
         23    2    1    2    0    0 -0.22141119490E+02  0.19172318125E+02  0.50540193233E+02  0.99798994102E+02  0.80917990195E+02 0.  0.
        254    2    1    2    0    0  0.22141119490E+02 -0.19172318125E+02 -0.62921983029E+02  0.88841476512E+03  0.88569961724E+03 0.  0.
         23    2    4    4    0    0  0.42774515869E+03  0.68403319867E+02  0.58238648097E+02  0.44668745468E+03  0.92157512379E+02 0.  0.
         23    2    4    4    0    0 -0.40560403920E+03 -0.87575637993E+02 -0.12116063113E+03  0.44172731044E+03  0.90878981420E+02 0.  0.
          3    1    3    3  502    0 -0.22585063941E+02  0.46882453259E+02  0.49870586036E+02  0.72077214765E+02  0.00000000000E+00 0. -1.
         -3    1    3    3    0  502  0.44394445108E+00 -0.27710135133E+02  0.66960719733E+00  0.27721779337E+02  0.00000000000E+00 0.  1.
         13    1    5    5    0    0  0.42597273884E+03  0.64739068669E+02  0.67920536918E+02  0.43618473217E+03  0.00000000000E+00 0.  1.
        -13    1    5    5    0    0  0.17724198511E+01  0.36642511980E+01 -0.96818888214E+01  0.10502722510E+02  0.00000000000E+00 0. -1.
          2    1    6    6  503    0 -0.10446342717E+02  0.46742356136E+01 -0.20764286737E+02  0.23709284224E+02  0.00000000000E+00 0. -1.
         -2    1    6    6    0  503 -0.39515769648E+03 -0.92249873606E+02 -0.10039634439E+03  0.41801802621E+03  0.00000000000E+00 0.  1.
<mgrwt>
<rscale>  0 0.98813619E+03</rscale>
<asrwt>0</asrwt>
<pdfrwt beam="1">  1        3 0.75063998E-01 0.98813619E+03</pdfrwt>
<pdfrwt beam="2">  1       -3 0.76968888E-01 0.98813619E+03</pdfrwt>
<totfact> 0.69507997E+00</totfact>
</mgrwt>
</event>
<event>
12    3  0.4688899E-008  0.1401953E+04  0.7818608E-02  0.8952406E-01
          1   -1    0    0  501    0  0.00000000000E+00  0.00000000000E+00  0.63384785676E+03  0.63384785676E+03  0.00000000000E+00 0. -1.
         -1   -1    0    0    0  501 -0.00000000000E+00 -0.00000000000E+00 -0.77521417281E+03  0.77521417281E+03  0.00000000000E+00 0.  1.
         23    2    1    2    0    0  0.12372541092E+03  0.42623499262E+02 -0.43853174078E+03  0.46660359818E+03  0.91016977356E+02 0.  0.
        254    2    1    2    0    0 -0.12372541092E+03 -0.42623499262E+02  0.29716542473E+03  0.94245843139E+03  0.88475751776E+03 0.  0.
         23    2    4    4    0    0 -0.34274130160E+03  0.28240130050E+03  0.29222460162E+03  0.53949902992E+03  0.91879764595E+02 0.  0.
         23    2    4    4    0    0  0.21901589069E+03 -0.32502479977E+03  0.49408231146E+01  0.40295940146E+03  0.93502869795E+02 0.  0.
          4    1    3    3  502    0 -0.38480963083E+01  0.14258726556E+02 -0.13926059860E+03  0.14004154188E+03  0.00000000000E+00 0. -1.
         -4    1    3    3    0  502  0.12757350723E+03  0.28364772706E+02 -0.29927114218E+03  0.32656205631E+03  0.00000000000E+00 0.  1.
         13    1    5    5    0    0 -0.14837541134E+02  0.24299686514E+02  0.48502330914E+02  0.56241474871E+02  0.00000000000E+00 0. -1.
        -13    1    5    5    0    0 -0.32790376047E+03  0.25810161399E+03  0.24372227070E+03  0.48325755505E+03  0.00000000000E+00 0.  1.
          1    1    6    6  503    0  0.32544039768E+01 -0.12145459760E+02 -0.18282872335E+02  0.22189338855E+02  0.00000000000E+00 0. -1.
         -1    1    6    6    0  503  0.21576148671E+03 -0.31287934001E+03  0.23223695449E+02  0.38077006261E+03  0.00000000000E+00 0.  1.
<mgrwt>
<rscale>  0 0.14019527E+04</rscale>
<asrwt>0</asrwt>
<pdfrwt beam="1">  1        1 0.97515055E-01 0.14019527E+04</pdfrwt>
<pdfrwt beam="2">  1       -1 0.11926372E+00 0.14019527E+04</pdfrwt>
<totfact> 0.19375794E+01</totfact>
</mgrwt>
</event>
<event>
12    3  0.4688899E-008  0.1852976E+04  0.7818608E-02  0.8678624E-01
         -2   -1    0    0    0  501 -0.00000000000E+00  0.00000000000E+00  0.79546306868E+03  0.79546306868E+03  0.00000000000E+00 0.  1.
          2   -1    0    0  501    0  0.00000000000E+00 -0.00000000000E+00 -0.10790944977E+04  0.10790944977E+04  0.00000000000E+00 0. -1.
         23    2    1    2    0    0  0.24009482845E+02  0.69393534056E+03 -0.24962412472E+03  0.74371392619E+03  0.93142300964E+02 0.  0.
        254    2    1    2    0    0 -0.24009482845E+02 -0.69393534056E+03 -0.34007304341E+02  0.11308436402E+04  0.89192383630E+03 0.  0.
         23    2    4    4    0    0 -0.16418261206E+03 -0.41730820904E+03  0.38757060887E+03  0.59945946942E+03  0.89658280040E+02 0.  0.
         23    2    4    4    0    0  0.14017312922E+03 -0.27662713152E+03 -0.42157791321E+03  0.53138417082E+03  0.92033276814E+02 0.  0.
          3    1    3    3  502    0 -0.94221927687E+01  0.36742869876E+03 -0.88355365248E+02  0.37802023353E+03  0.00000000000E+00 0. -1.
         -3    1    3    3    0  502  0.33431675614E+02  0.32650664180E+03 -0.16126875947E+03  0.36569369267E+03  0.00000000000E+00 0.  1.
         13    1    5    5    0    0 -0.12590350466E+03 -0.39019690159E+03  0.35517688666E+03  0.54245362504E+03  0.00000000000E+00 0. -1.
        -13    1    5    5    0    0 -0.38279107402E+02 -0.27111307449E+02  0.32393722204E+02  0.57005844378E+02  0.00000000000E+00 0.  1.
          3    1    6    6  503    0  0.45132664598E+02 -0.17292396889E+03 -0.27714320609E+03  0.32976963643E+03  0.00000000000E+00 0. -1.
         -3    1    6    6    0  503  0.95040464620E+02 -0.10370316263E+03 -0.14443470712E+03  0.20161453438E+03  0.00000000000E+00 0.  1.
<mgrwt>
<rscale>  0 0.18529758E+04</rscale>
<asrwt>0</asrwt>
<pdfrwt beam="1">  1        2 0.16601454E+00 0.18529758E+04</pdfrwt>
<pdfrwt beam="2">  1       -2 0.12237893E+00 0.18529758E+04</pdfrwt>
<totfact> 0.10670767E+01</totfact>
</mgrwt>
</event>
<event>
12    3  0.4688899E-008  0.2357898E+04  0.7818608E-02  0.8455436E-01
         -2   -1    0    0    0  501 -0.00000000000E+00  0.00000000000E+00  0.59255035361E+03  0.59255035361E+03  0.00000000000E+00 0.  1.
          2   -1    0    0  501    0  0.00000000000E+00 -0.00000000000E+00 -0.23456584080E+04  0.23456584080E+04  0.00000000000E+00 0. -1.
         23    2    1    2    0    0  0.64138811474E+03 -0.12402734881E+03 -0.17065402682E+04  0.18294820798E+04  0.89238424050E+02 0.  0.
        254    2    1    2    0    0 -0.64138811474E+03  0.12402734881E+03 -0.46567786185E+02  0.11087266818E+04  0.89461991887E+03 0.  0.
         23    2    4    4    0    0 -0.55907973996E+03  0.45005871916E+03 -0.16529147856E+03  0.74188066382E+03  0.89121490847E+02 0.  0.
         23    2    4    4    0    0 -0.82308374785E+02 -0.32603137035E+03  0.11872369238E+03  0.36684601799E+03  0.86078817182E+02 0.  0.
          4    1    3    3  502    0  0.53422662542E+03 -0.68624218594E+02 -0.14054436957E+04  0.15051177204E+04  0.00000000000E+00 0. -1.
         -4    1    3    3    0  502  0.10716148932E+03 -0.55403130219E+02 -0.30109657249E+03  0.32436435932E+03  0.00000000000E+00 0.  1.
         13    1    5    5    0    0 -0.46634380326E+02  0.67746987722E+02 -0.32017559534E+01  0.82308389700E+02  0.00000000000E+00 0.  1.
        -13    1    5    5    0    0 -0.51244535963E+03  0.38231173144E+03 -0.16208972261E+03  0.65957227412E+03  0.00000000000E+00 0. -1.
          4    1    6    6  503    0 -0.21921338820E+02 -0.12390391310E+02 -0.22986531020E+01  0.25285385078E+02  0.00000000000E+00 0.  1.
         -4    1    6    6    0  503 -0.60387035964E+02 -0.31364097904E+03  0.12102234548E+03  0.34156063291E+03  0.00000000000E+00 0. -1.
<mgrwt>
<rscale>  0 0.23578980E+04</rscale>
<asrwt>0</asrwt>
<pdfrwt beam="1">  1        2 0.36087052E+00 0.23578980E+04</pdfrwt>
<pdfrwt beam="2">  1       -2 0.91161594E-01 0.23578980E+04</pdfrwt>
<totfact> 0.39526565E+00</totfact>
</mgrwt>
</event>
<event>
12    3  0.4688899E-008  0.1567410E+04  0.7818608E-02  0.8840824E-01
         -1   -1    0    0    0  501 -0.00000000000E+00  0.00000000000E+00  0.24070434233E+03  0.24070434233E+03  0.00000000000E+00 0.  1.
          1   -1    0    0  501    0  0.00000000000E+00 -0.00000000000E+00 -0.25516495987E+04  0.25516495987E+04  0.00000000000E+00 0. -1.
         23    2    1    2    0    0  0.18229376912E+03  0.39970183676E+03 -0.12898750291E+04  0.13662173230E+04  0.98891892655E+02 0.  0.
        254    2    1    2    0    0 -0.18229376912E+03 -0.39970183676E+03 -0.10210702273E+04  0.14261366181E+04  0.89347001501E+03 0.  0.
         23    2    4    4    0    0 -0.29101090811E+03 -0.24835414607E+03 -0.11266099982E+04  0.11935453387E+04  0.94515908945E+02 0.  0.
         23    2    4    4    0    0  0.10871713899E+03 -0.15134769068E+03  0.10553977090E+03  0.23259127933E+03  0.90744257078E+02 0.  0.
          3    1    3    3  502    0  0.17044394351E+03  0.38584256372E+03 -0.12740904603E+04  0.13420998931E+04  0.00000000000E+00 0. -1.
         -3    1    3    3    0  502  0.11849825604E+02  0.13859273032E+02 -0.15784568763E+02  0.24117429939E+02  0.00000000000E+00 0.  1.
         13    1    5    5    0    0  0.26549649832E+01  0.25081965926E+01 -0.43128619597E+02  0.43282995709E+02  0.00000000000E+00 0.  1.
        -13    1    5    5    0    0 -0.29366587309E+03 -0.25086234267E+03 -0.10834813786E+04  0.11502623430E+04  0.00000000000E+00 0. -1.
          1    1    6    6  503    0  0.50986442156E+02 -0.12334083452E+03  0.10262749218E+03  0.16835967717E+03  0.00000000000E+00 0. -1.
         -1    1    6    6    0  503  0.57730696834E+02 -0.28006856157E+02  0.29122787232E+01  0.64231602161E+02  0.00000000000E+00 0.  1.
<mgrwt>
<rscale>  0 0.15674095E+04</rscale>
<asrwt>0</asrwt>
<pdfrwt beam="1">  1        1 0.39256145E+00 0.15674095E+04</pdfrwt>
<pdfrwt beam="2">  1       -1 0.37031440E-01 0.15674095E+04</pdfrwt>
<totfact> 0.84310865E+00</totfact>
</mgrwt>
</event>
<event>
12    3  0.4688899E-008  0.2866656E+04  0.7818608E-02  0.8282868E-01
         -1   -1    0    0    0  501 -0.00000000000E+00  0.00000000000E+00  0.96843519611E+03  0.96843519611E+03  0.00000000000E+00 0.  1.
          1   -1    0    0  501    0  0.00000000000E+00 -0.00000000000E+00 -0.21213909554E+04  0.21213909554E+04  0.00000000000E+00 0. -1.
         23    2    1    2    0    0  0.89094478499E+03 -0.85361041840E+03 -0.87663172183E+03  0.15162789116E+04  0.90472127557E+02 0.  0.
        254    2    1    2    0    0 -0.89094478499E+03  0.85361041840E+03 -0.27632403749E+03  0.15735472399E+04  0.93662296906E+03 0.  0.
         23    2    4    4    0    0 -0.45807257542E+03  0.96933984623E+03 -0.29497907820E+03  0.11158484835E+04  0.93032035934E+02 0.  0.
         23    2    4    4    0    0 -0.43287220958E+03 -0.11572942783E+03  0.18655040712E+02  0.45769875640E+03  0.91479455472E+02 0.  0.
          4    1    3    3  502    0  0.47740630319E+03 -0.43490648121E+03 -0.40689152989E+03  0.76329623530E+03  0.00000000000E+00 0. -1.
         -4    1    3    3    0  502  0.41353848180E+03 -0.41870393719E+03 -0.46974019194E+03  0.75298267634E+03  0.00000000000E+00 0.  1.
         13    1    5    5    0    0 -0.32956800221E+03  0.76863814603E+03 -0.20465599216E+03  0.86098997831E+03  0.00000000000E+00 0. -1.
        -13    1    5    5    0    0 -0.12850457320E+03  0.20070170020E+03 -0.90323086035E+02  0.25485850519E+03  0.00000000000E+00 0.  1.
          4    1    6    6  503    0 -0.18095472754E+03 -0.77975857850E+02  0.43418305376E+02  0.20176718531E+03  0.00000000000E+00 0. -1.
         -4    1    6    6    0  503 -0.25191748203E+03 -0.37753569981E+02 -0.24763264663E+02  0.25593157108E+03  0.00000000000E+00 0.  1.
<mgrwt>
<rscale>  0 0.28666564E+04</rscale>
<asrwt>0</asrwt>
<pdfrwt beam="1">  1        1 0.32636784E+00 0.28666564E+04</pdfrwt>
<pdfrwt beam="2">  1       -1 0.14899003E+00 0.28666564E+04</pdfrwt>
<totfact> 0.75366481E-01</totfact>
</mgrwt>
</event>
<event>
12    3  0.4688899E-008  0.1516743E+04  0.7818608E-02  0.8873395E-01
         -2   -1    0    0    0  501 -0.00000000000E+00  0.00000000000E+00  0.36040653939E+03  0.36040653939E+03  0.00000000000E+00 0.  1.
          2   -1    0    0  501    0  0.00000000000E+00 -0.00000000000E+00 -0.15957730939E+04  0.15957730939E+04  0.00000000000E+00 0. -1.
         23    2    1    2    0    0  0.43841153172E+02  0.33779045126E+03  0.42291374955E+02  0.35522357044E+03  0.91492015635E+02 0.  0.
        254    2    1    2    0    0 -0.43841153172E+02 -0.33779045126E+03 -0.12776579295E+04  0.16009560629E+04  0.90256639358E+03 0.  0.
         23    2    4    4    0    0 -0.29269390299E+03  0.19860265704E+03 -0.44153266860E+03  0.57281166770E+03  0.89718297899E+02 0.  0.
         23    2    4    4    0    0  0.24885274982E+03 -0.53639310830E+03 -0.83612526090E+03  0.10281443952E+04  0.91269862107E+02 0.  0.
          4    1    3    3  502    0  0.55474830402E+02  0.21783067199E+03 -0.72878618097E+01  0.22490169274E+03  0.00000000000E+00 0. -1.
         -4    1    3    3    0  502 -0.11633677229E+02  0.11995977927E+03  0.49579236765E+02  0.13032187770E+03  0.00000000000E+00 0.  1.
         13    1    5    5    0    0 -0.12788797879E+03  0.87098300828E+02 -0.12492073382E+03  0.19886336733E+03  0.00000000000E+00 0. -1.
        -13    1    5    5    0    0 -0.16480592420E+03  0.11150435621E+03 -0.31661193478E+03  0.37394830037E+03  0.00000000000E+00 0.  1.
          3    1    6    6  503    0  0.23503965473E+03 -0.47788586827E+03 -0.70187291584E+03  0.88104717942E+03  0.00000000000E+00 0. -1.
         -3    1    6    6    0  503  0.13813095086E+02 -0.58507240034E+02 -0.13425234506E+03  0.14709721577E+03  0.00000000000E+00 0.  1.
<mgrwt>
<rscale>  0 0.15167426E+04</rscale>
<asrwt>0</asrwt>
<pdfrwt beam="1">  1        2 0.24550356E+00 0.15167426E+04</pdfrwt>
<pdfrwt beam="2">  1       -2 0.55447159E-01 0.15167426E+04</pdfrwt>
<totfact> 0.33071759E+01</totfact>
</mgrwt>
</event>
<event>
12    3  0.4688899E-008  0.3747518E+04  0.7818608E-02  0.8057512E-01
          1   -1    0    0  501    0  0.00000000000E+00  0.00000000000E+00  0.19131774282E+04  0.19131774282E+04  0.00000000000E+00 0. -1.
         -1   -1    0    0    0  501 -0.00000000000E+00 -0.00000000000E+00 -0.18351524158E+04  0.18351524158E+04  0.00000000000E+00 0.  1.
         23    2    1    2    0    0  0.16658476219E+04  0.49339105035E+03  0.35452635330E+03  0.17752518103E+04  0.85714799604E+02 0.  0.
        254    2    1    2    0    0 -0.16658476219E+04 -0.49339105035E+03 -0.27650134092E+03  0.19730780338E+04  0.89336493551E+03 0.  0.
         23    2    4    4    0    0 -0.45116361073E+03  0.16849872368E+03  0.16637716668E+03  0.51772137410E+03  0.91725874621E+02 0.  0.
         23    2    4    4    0    0 -0.12146840111E+04 -0.66188977402E+03 -0.44287850761E+03  0.14553566597E+04  0.91467559896E+02 0.  0.
          2    1    3    3  502    0  0.86880003789E+03  0.23612460371E+03  0.22212959085E+03  0.92731326392E+03  0.00000000000E+00 0. -1.
         -2    1    3    3    0  502  0.79704758398E+03  0.25726644664E+03  0.13239676244E+03  0.84793854636E+03  0.00000000000E+00 0.  1.
         13    1    5    5    0    0 -0.10440255941E+03  0.38162204618E+02  0.81064181678E+02  0.13757779554E+03  0.00000000000E+00 0. -1.
        -13    1    5    5    0    0 -0.34676105131E+03  0.13033651906E+03  0.85312985005E+02  0.38014357856E+03  0.00000000000E+00 0.  1.
          2    1    6    6  503    0 -0.83034607702E+03 -0.41346882295E+03 -0.26910680677E+03  0.96584136825E+03  0.00000000000E+00 0. -1.
         -2    1    6    6    0  503 -0.38433793412E+03 -0.24842095108E+03 -0.17377170084E+03  0.48951529143E+03  0.00000000000E+00 0.  1.
<mgrwt>
<rscale>  0 0.37475177E+04</rscale>
<asrwt>0</asrwt>
<pdfrwt beam="1">  1        1 0.29433499E+00 0.37475177E+04</pdfrwt>
<pdfrwt beam="2">  1       -1 0.28233114E+00 0.37475177E+04</pdfrwt>
<totfact> 0.11725169E-01</totfact>
</mgrwt>
</event>
<event>
12    3  0.4688899E-008  0.1518869E+04  0.7818608E-02  0.8872002E-01
          1   -1    0    0  501    0  0.00000000000E+00  0.00000000000E+00  0.49930386189E+03  0.49930386189E+03  0.00000000000E+00 0. -1.
         -1   -1    0    0    0  501 -0.00000000000E+00 -0.00000000000E+00 -0.11550893020E+04  0.11550893020E+04  0.00000000000E+00 0.  1.
         23    2    1    2    0    0 -0.36183138520E+03 -0.30694363825E+03 -0.30946401431E+03  0.57375758953E+03  0.91068364534E+02 0.  0.
        254    2    1    2    0    0  0.36183138520E+03  0.30694363825E+03 -0.34632142583E+03  0.10806355744E+04  0.90702721362E+03 0.  0.
         23    2    4    4    0    0 -0.26311009500E+02 -0.27830997828E+03 -0.20361182662E+03  0.35817042375E+03  0.93164173766E+02 0.  0.
         23    2    4    4    0    0  0.38814239470E+03  0.58525361653E+03 -0.14270959921E+03  0.72246515063E+03  0.91725405113E+02 0.  0.
          3    1    3    3  502    0 -0.12252978064E+03 -0.14796547435E+03 -0.89573281968E+02  0.21196863350E+03  0.00000000000E+00 0. -1.
         -3    1    3    3    0  502 -0.23930160457E+03 -0.15897816390E+03 -0.21989073234E+03  0.36178895604E+03  0.00000000000E+00 0.  1.
         13    1    5    5    0    0 -0.53391580127E+02 -0.24804194035E+03 -0.16950910689E+03  0.30513734992E+03  0.00000000000E+00 0. -1.
        -13    1    5    5    0    0  0.27080570627E+02 -0.30268037935E+02 -0.34102719732E+02  0.53033073822E+02  0.00000000000E+00 0.  1.
          1    1    6    6  503    0  0.37271278653E+03  0.51678126874E+03 -0.13917691352E+03  0.65218702396E+03  0.00000000000E+00 0. -1.
         -1    1    6    6    0  503  0.15429608174E+02  0.68472347793E+02 -0.35326856829E+01  0.70278126674E+02  0.00000000000E+00 0.  1.
<mgrwt>
<rscale>  0 0.15188687E+04</rscale>
<asrwt>0</asrwt>
<pdfrwt beam="1">  1        1 0.76815979E-01 0.15188687E+04</pdfrwt>
<pdfrwt beam="2">  1       -1 0.17770605E+00 0.15188687E+04</pdfrwt>
<totfact> 0.92716209E+00</totfact>
</mgrwt>
</event>
<event>
12    3  0.4688899E-008  0.1930895E+04  0.7818608E-02  0.8639629E-01
          2   -1    0    0  501    0  0.00000000000E+00  0.00000000000E+00  0.14164576770E+04  0.14164576770E+04  0.00000000000E+00 0. -1.
         -2   -1    0    0    0  501 -0.00000000000E+00 -0.00000000000E+00 -0.65804227442E+03  0.65804227442E+03  0.00000000000E+00 0.  1.
         23    2    1    2    0    0  0.12890672678E+03 -0.72711629424E+03  0.44127973497E+03  0.86511427665E+03  0.91541562184E+02 0.  0.
        254    2    1    2    0    0 -0.12890672678E+03  0.72711629424E+03  0.31713566759E+03  0.12093856748E+04  0.90372762993E+03 0.  0.
         23    2    4    4    0    0 -0.24994572610E+03  0.89108223941E+03  0.18099670448E+03  0.94790210874E+03  0.96219422805E+02 0.  0.
         23    2    4    4    0    0  0.12103899931E+03 -0.16396594517E+03  0.13613896311E+03  0.26148356602E+03  0.91129399704E+02 0.  0.
          4    1    3    3  502    0  0.12425371986E+03 -0.57682037912E+03  0.31566932288E+03  0.66918447238E+03  0.00000000000E+00 0. -1.
         -4    1    3    3    0  502  0.46530069220E+01 -0.15029591512E+03  0.12561041209E+03  0.19592980427E+03  0.00000000000E+00 0.  1.
         13    1    5    5    0    0 -0.34070620045E+02  0.50193587820E+02  0.26074786521E+02  0.66031037404E+02  0.00000000000E+00 0. -1.
        -13    1    5    5    0    0 -0.21587510605E+03  0.84088865159E+03  0.15492191796E+03  0.88187107133E+03  0.00000000000E+00 0.  1.
          4    1    6    6  503    0 -0.11111478560E+02 -0.43500910619E+00  0.21713756763E+00  0.11122110296E+02  0.00000000000E+00 0. -1.
         -4    1    6    6    0  503  0.13215047787E+03 -0.16353093607E+03  0.13592182554E+03  0.25036145572E+03  0.00000000000E+00 0.  1.
<mgrwt>
<rscale>  0 0.19308952E+04</rscale>
<asrwt>0</asrwt>
<pdfrwt beam="1">  1        2 0.21791656E+00 0.19308952E+04</pdfrwt>
<pdfrwt beam="2">  1       -2 0.10123727E+00 0.19308952E+04</pdfrwt>
<totfact> 0.10613613E+01</totfact>
</mgrwt>
</event>
<event>
12    3  0.4688899E-008  0.1619249E+04  0.7818608E-02  0.8808809E-01
          2   -1    0    0  501    0  0.00000000000E+00  0.00000000000E+00  0.23882211789E+04  0.23882211789E+04  0.00000000000E+00 0. -1.
         -2   -1    0    0    0  501 -0.00000000000E+00 -0.00000000000E+00 -0.27446854759E+03  0.27446854759E+03  0.00000000000E+00 0.  1.
         23    2    1    2    0    0 -0.52261388847E+02 -0.69766786741E+02  0.16419056183E+04  0.16467989096E+04  0.92162530118E+02 0.  0.
        254    2    1    2    0    0  0.52261388847E+02  0.69766786741E+02  0.47184701299E+03  0.10158908169E+04  0.89543056172E+03 0.  0.
         23    2    4    4    0    0 -0.20275389276E+03  0.40869165488E+03  0.27054112051E+03  0.53777376194E+03  0.88713648089E+02 0.  0.
         23    2    4    4    0    0  0.25501528161E+03 -0.33892486813E+03  0.20130589249E+03  0.47811705494E+03  0.90382497091E+02 0.  0.
          1    1    3    3  502    0 -0.47436177542E+02 -0.47747207790E+02  0.15700147901E+04  0.15714567853E+04  0.00000000000E+00 0. -1.
         -1    1    3    3    0  502 -0.48252113054E+01 -0.22019578951E+02  0.71890828175E+02  0.75342124320E+02  0.00000000000E+00 0.  1.
         13    1    5    5    0    0 -0.92203733488E+02  0.27388800791E+03  0.14805416285E+03  0.32470941546E+03  0.00000000000E+00 0. -1.
        -13    1    5    5    0    0 -0.11055015927E+03  0.13480364696E+03  0.12248695765E+03  0.21306434649E+03  0.00000000000E+00 0.  1.
          4    1    6    6  503    0  0.14977823035E+03 -0.25835149784E+03  0.16267399199E+03  0.34006152736E+03  0.00000000000E+00 0. -1.
         -4    1    6    6    0  503  0.10523705126E+03 -0.80573370297E+02  0.38631900492E+02  0.13805552757E+03  0.00000000000E+00 0.  1.
<mgrwt>
<rscale>  0 0.16192487E+04</rscale>
<asrwt>0</asrwt>
<pdfrwt beam="1">  1        2 0.36741863E+00 0.16192487E+04</pdfrwt>
<pdfrwt beam="2">  1       -2 0.42225932E-01 0.16192487E+04</pdfrwt>
<totfact> 0.20582381E+01</totfact>
</mgrwt>
</event>
<event>
12    3  0.4688899E-008  0.1373425E+04  0.7818608E-02  0.8973283E-01
         -1   -1    0    0    0  501 -0.00000000000E+00  0.00000000000E+00  0.40175945782E+03  0.40175945782E+03  0.00000000000E+00 0.  1.
          1   -1    0    0  501    0  0.00000000000E+00 -0.00000000000E+00 -0.11737719572E+04  0.11737719572E+04  0.00000000000E+00 0. -1.
         23    2    1    2    0    0 -0.17435453105E+03 -0.32276358441E+03 -0.10645591039E+03  0.39317803664E+03  0.93167986583E+02 0.  0.
        254    2    1    2    0    0  0.17435453105E+03  0.32276358441E+03 -0.66555658898E+03  0.11823533784E+04  0.90576934387E+03 0.  0.
         23    2    4    4    0    0  0.30469913020E+03  0.53014223221E+03 -0.20223562489E+03  0.65040775553E+03  0.90767032399E+02 0.  0.
         23    2    4    4    0    0 -0.13034459915E+03 -0.20737864781E+03 -0.46332096409E+03  0.53194562283E+03  0.91127448092E+02 0.  0.
          1    1    3    3  502    0  0.94793503112E+01 -0.12798720085E+02 -0.13811012461E+02  0.21081019504E+02  0.00000000000E+00 0. -1.
         -1    1    3    3    0  502 -0.18383388136E+03 -0.30996486432E+03 -0.92644897924E+02  0.37209701714E+03  0.00000000000E+00 0.  1.
         13    1    5    5    0    0  0.11099548073E+03  0.16232312120E+03 -0.24001353755E+02  0.19810314839E+03  0.00000000000E+00 0.  1.
        -13    1    5    5    0    0  0.19370364946E+03  0.36781911101E+03 -0.17823427113E+03  0.45230460714E+03  0.00000000000E+00 0. -1.
          1    1    6    6  503    0 -0.55562751304E+02 -0.11254467886E+03 -0.14665880082E+03  0.19303452523E+03  0.00000000000E+00 0. -1.
         -1    1    6    6    0  503 -0.74781847841E+02 -0.94833968941E+02 -0.31666216327E+03  0.33891109761E+03  0.00000000000E+00 0.  1.
<mgrwt>
<rscale>  0 0.13734249E+04</rscale>
<asrwt>0</asrwt>
<pdfrwt beam="1">  1        1 0.18058030E+00 0.13734249E+04</pdfrwt>
<pdfrwt beam="2">  1       -1 0.61809149E-01 0.13734249E+04</pdfrwt>
<totfact> 0.28976461E+01</totfact>
</mgrwt>
</event>
<event>
12    3  0.4688899E-008  0.2019823E+04  0.7818608E-02  0.8597408E-01
          1   -1    0    0  501    0  0.00000000000E+00  0.00000000000E+00  0.40815002434E+03  0.40815002434E+03  0.00000000000E+00 0. -1.
         -1   -1    0    0    0  501 -0.00000000000E+00 -0.00000000000E+00 -0.24988883209E+04  0.24988883209E+04  0.00000000000E+00 0.  1.
         23    2    1    2    0    0  0.61487770267E+03 -0.25034988124E+03 -0.15278496927E+04  0.16683229963E+04  0.90704377885E+02 0.  0.
        254    2    1    2    0    0 -0.61487770267E+03  0.25034988124E+03 -0.56288860391E+03  0.12387153490E+04  0.88137533616E+03 0.  0.
         23    2    4    4    0    0 -0.50337785035E+02 -0.10720586570E+03  0.18166861673E+03  0.23407089213E+03  0.88083517152E+02 0.  0.
         23    2    4    4    0    0 -0.56453991763E+03  0.35755574694E+03 -0.74455722065E+03  0.10046444569E+04  0.91616587775E+02 0.  0.
          2    1    3    3  502    0  0.14028024479E+03 -0.89914991454E+02 -0.32232148954E+03  0.36284210806E+03  0.00000000000E+00 0. -1.
         -2    1    3    3    0  502  0.47459745788E+03 -0.16043488978E+03 -0.12055282031E+04  0.13054808882E+04  0.00000000000E+00 0.  1.
         13    1    5    5    0    0 -0.58697527679E+02 -0.68307165586E+02  0.17037113399E+03  0.19271116191E+03  0.00000000000E+00 0. -1.
        -13    1    5    5    0    0  0.83597426439E+01 -0.38898700117E+02  0.11297482741E+02  0.41359730223E+02  0.00000000000E+00 0.  1.
          2    1    6    6  503    0 -0.55572442073E+03  0.33189459918E+03 -0.71744422854E+03  0.96628664371E+03  0.00000000000E+00 0. -1.
         -2    1    6    6    0  503 -0.88154969065E+01  0.25661147757E+02 -0.27112992112E+02  0.38357813169E+02  0.00000000000E+00 0.  1.
<mgrwt>
<rscale>  0 0.20198231E+04</rscale>
<asrwt>0</asrwt>
<pdfrwt beam="1">  1        1 0.62792309E-01 0.20198231E+04</pdfrwt>
<pdfrwt beam="2">  1       -1 0.38444437E+00 0.20198231E+04</pdfrwt>
<totfact> 0.49461211E-01</totfact>
</mgrwt>
</event>
<event>
12    3  0.4688899E-008  0.1940033E+04  0.7818608E-02  0.8635182E-01
         -1   -1    0    0    0  501 -0.00000000000E+00  0.00000000000E+00  0.51621255180E+03  0.51621255180E+03  0.00000000000E+00 0.  1.
          1   -1    0    0  501    0  0.00000000000E+00 -0.00000000000E+00 -0.18227615696E+04  0.18227615696E+04  0.00000000000E+00 0. -1.
         23    2    1    2    0    0 -0.24956596605E+03  0.41383731440E+03  0.17995351329E+03  0.52382065802E+03  0.91980001216E+02 0.  0.
        254    2    1    2    0    0  0.24956596605E+03 -0.41383731440E+03 -0.14865025311E+04  0.18151534634E+04  0.92279349074E+03 0.  0.
         23    2    4    4    0    0 -0.13994351900E+03 -0.43292619951E+03 -0.12852873505E+04  0.13665012859E+04  0.91394247500E+02 0.  0.
         23    2    4    4    0    0  0.38950948505E+03  0.19088885112E+02 -0.20121518064E+03  0.44865217748E+03  0.93376672436E+02 0.  0.
          1    1    3    3  502    0 -0.13527519316E+03  0.25696301007E+03  0.62787559337E+02  0.29710544262E+03  0.00000000000E+00 0. -1.
         -1    1    3    3    0  502 -0.11429077289E+03  0.15687430432E+03  0.11716595395E+03  0.22671521539E+03  0.00000000000E+00 0.  1.
         13    1    5    5    0    0 -0.49372091148E+02 -0.11449358724E+03 -0.47736383130E+03  0.49337877167E+03  0.00000000000E+00 0. -1.
        -13    1    5    5    0    0 -0.90571427851E+02 -0.31843261227E+03 -0.80792351915E+03  0.87312251425E+03  0.00000000000E+00 0.  1.
          3    1    6    6  503    0  0.29630922187E+03 -0.14998013068E+02 -0.11855897148E+03  0.31950011749E+03  0.00000000000E+00 0. -1.
         -3    1    6    6    0  503  0.93200263179E+02  0.34086898180E+02 -0.82656209164E+02  0.12915205998E+03  0.00000000000E+00 0.  1.
<mgrwt>
<rscale>  0 0.19400334E+04</rscale>
<asrwt>0</asrwt>
<pdfrwt beam="1">  1        1 0.28042486E+00 0.19400334E+04</pdfrwt>
<pdfrwt beam="2">  1       -1 0.79417316E-01 0.19400334E+04</pdfrwt>
<totfact> 0.58074449E+00</totfact>
</mgrwt>
</event>
<event>
12    3  0.4688899E-008  0.1879315E+04  0.7818608E-02  0.8665222E-01
          2   -1    0    0  501    0  0.00000000000E+00  0.00000000000E+00  0.40386021138E+03  0.40386021138E+03  0.00000000000E+00 0. -1.
         -2   -1    0    0    0  501 -0.00000000000E+00 -0.00000000000E+00 -0.21862922956E+04  0.21862922956E+04  0.00000000000E+00 0.  1.
         23    2    1    2    0    0 -0.72113061309E+02 -0.66532922079E+03 -0.10381323043E+04  0.12393054888E+04  0.10146993489E+03 0.  0.
        254    2    1    2    0    0  0.72113061309E+02  0.66532922079E+03 -0.74429977986E+03  0.13508470181E+04  0.90716163853E+03 0.  0.
         23    2    4    4    0    0  0.10770617316E+03  0.72191606559E+03 -0.89704562760E+03  0.11598503884E+04  0.88309908362E+02 0.  0.
         23    2    4    4    0    0 -0.35593111847E+02 -0.56586844798E+02  0.15274584774E+03  0.19099662975E+03  0.93163715893E+02 0.  0.
          1    1    3    3  502    0 -0.72044973323E+02 -0.60312328144E+03 -0.98630982043E+03  0.11583415872E+04  0.00000000000E+00 0. -1.
         -1    1    3    3    0  502 -0.68087986475E-01 -0.62205939355E+02 -0.51822483915E+02  0.80963901624E+02  0.00000000000E+00 0.  1.
         13    1    5    5    0    0  0.12035694281E+03  0.62308833198E+03 -0.75381320832E+03  0.98537262808E+03  0.00000000000E+00 0.  1.
        -13    1    5    5    0    0 -0.12650769654E+02  0.98827733611E+02 -0.14323241928E+03  0.17447776029E+03  0.00000000000E+00 0. -1.
          2    1    6    6  503    0 -0.42524449341E+02 -0.29875820422E+02  0.20442730000E+02  0.55846205310E+02  0.00000000000E+00 0. -1.
         -2    1    6    6    0  503  0.69313374935E+01 -0.26711024376E+02  0.13230311774E+03  0.13515042444E+03  0.00000000000E+00 0.  1.
<mgrwt>
<rscale>  0 0.18793153E+04</rscale>
<asrwt>0</asrwt>
<pdfrwt beam="1">  1        2 0.62132341E-01 0.18793153E+04</pdfrwt>
<pdfrwt beam="2">  1       -2 0.33635266E+00 0.18793153E+04</pdfrwt>
<totfact> 0.14021431E+00</totfact>
</mgrwt>
</event>
<event>
12    3  0.4688899E-008  0.1401737E+04  0.7818608E-02  0.8952562E-01
         -2   -1    0    0    0  501 -0.00000000000E+00  0.00000000000E+00  0.17774468115E+03  0.17774468115E+03  0.00000000000E+00 0.  1.
          2   -1    0    0  501    0  0.00000000000E+00 -0.00000000000E+00 -0.27636078713E+04  0.27636078713E+04  0.00000000000E+00 0. -1.
         23    2    1    2    0    0 -0.22964244395E+03  0.14639797689E+03 -0.14285122754E+04  0.14570253682E+04  0.90042115974E+02 0.  0.
        254    2    1    2    0    0  0.22964244395E+03 -0.14639797689E+03 -0.11573509147E+04  0.14843271843E+04  0.88859328749E+03 0.  0.
         23    2    4    4    0    0  0.18962780690E+03  0.31476754694E+03 -0.82353063743E+03  0.90663770373E+03  0.93551596867E+02 0.  0.
         23    2    4    4    0    0  0.40014637047E+02 -0.46116552383E+03 -0.33382027730E+03  0.57768948059E+03  0.89522884781E+02 0.  0.
          3    1    3    3  502    0 -0.15604182957E+03  0.89423085508E+02 -0.11334788067E+04  0.11476583752E+04  0.00000000000E+00 0. -1.
         -3    1    3    3    0  502 -0.73600614383E+02  0.56974891380E+02 -0.29503346872E+03  0.30936699299E+03  0.00000000000E+00 0.  1.
         13    1    5    5    0    0  0.13191194215E+03  0.22254243908E+03 -0.67215554113E+03  0.72022147228E+03  0.00000000000E+00 0.  1.
        -13    1    5    5    0    0  0.57715864754E+02  0.92225107863E+02 -0.15137509630E+03  0.18641623144E+03  0.00000000000E+00 0. -1.
          1    1    6    6  503    0  0.53066857227E+01 -0.26151815942E+02 -0.51298499074E+02  0.57823994999E+02  0.00000000000E+00 0. -1.
         -1    1    6    6    0  503  0.34707951324E+02 -0.43501370789E+03 -0.28252177823E+03  0.51986548559E+03  0.00000000000E+00 0.  1.
<mgrwt>
<rscale>  0 0.14017369E+04</rscale>
<asrwt>0</asrwt>
<pdfrwt beam="1">  1        2 0.42517044E+00 0.14017369E+04</pdfrwt>
<pdfrwt beam="2">  1       -2 0.27345336E-01 0.14017369E+04</pdfrwt>
<totfact> 0.29005893E+01</totfact>
</mgrwt>
</event>
<event>
12    3  0.4688899E-008  0.1102357E+04  0.7818608E-02  0.9202898E-01
          1   -1    0    0  501    0  0.00000000000E+00  0.00000000000E+00  0.19996673845E+04  0.19996673845E+04  0.00000000000E+00 0. -1.
         -1   -1    0    0    0  501 -0.00000000000E+00 -0.00000000000E+00 -0.15192403030E+03  0.15192403030E+03  0.00000000000E+00 0.  1.
         23    2    1    2    0    0 -0.91216896713E+02  0.11517225457E+03  0.53358908806E+03  0.56086319203E+03  0.90912236846E+02 0.  0.
        254    2    1    2    0    0  0.91216896713E+02 -0.11517225457E+03  0.13141542661E+04  0.15907282228E+04  0.88421132827E+03 0.  0.
         23    2    4    4    0    0 -0.24343530834E+03 -0.54000689293E+02  0.39975805044E+02  0.26892854965E+03  0.92453642644E+02 0.  0.
         23    2    4    4    0    0  0.33465220505E+03 -0.61171565280E+02  0.12741784611E+04  0.13217996731E+04  0.88823231162E+02 0.  0.
          2    1    3    3  502    0 -0.18705833973E+02  0.95815906857E+02  0.31096011273E+03  0.32592451264E+03  0.00000000000E+00 0. -1.
         -2    1    3    3    0  502 -0.72511062740E+02  0.19356347716E+02  0.22262897533E+03  0.23493867939E+03  0.00000000000E+00 0.  1.
         13    1    5    5    0    0 -0.19494597066E+03 -0.64182713336E+02  0.62439087171E+02  0.21452736835E+03  0.00000000000E+00 0. -1.
        -13    1    5    5    0    0 -0.48489337686E+02  0.10182024043E+02 -0.22463282127E+02  0.54401181299E+02  0.00000000000E+00 0.  1.
          4    1    6    6  503    0  0.75209610366E+02  0.42030232760E+01  0.17492922295E+03  0.19045835224E+03  0.00000000000E+00 0. -1.
         -4    1    6    6    0  503  0.25944259469E+03 -0.65374588556E+02  0.10992492381E+04  0.11313413209E+04  0.00000000000E+00 0.  1.
<mgrwt>
<rscale>  0 0.11023566E+04</rscale>
<asrwt>0</asrwt>
<pdfrwt beam="1">  1        1 0.30764112E+00 0.11023566E+04</pdfrwt>
<pdfrwt beam="2">  1       -1 0.23372929E-01 0.11023566E+04</pdfrwt>
<totfact> 0.46824752E+01</totfact>
</mgrwt>
</event>
<event>
12    3  0.4688899E-008  0.2215950E+04  0.7818608E-02  0.8511818E-01
          1   -1    0    0  501    0  0.00000000000E+00  0.00000000000E+00  0.11996170420E+04  0.11996170420E+04  0.00000000000E+00 0. -1.
         -1   -1    0    0    0  501 -0.00000000000E+00 -0.00000000000E+00 -0.10233339811E+04  0.10233339811E+04  0.00000000000E+00 0.  1.
         23    2    1    2    0    0 -0.55362258303E+03  0.59741577215E+03 -0.35858671377E+03  0.89460932597E+03  0.91311804025E+02 0.  0.
        254    2    1    2    0    0  0.55362258303E+03 -0.59741577215E+03  0.53486977468E+03  0.13283416972E+04  0.90277484426E+03 0.  0.
         23    2    4    4    0    0  0.78598019223E+03 -0.35269978199E+03  0.38122356347E+03  0.94645170358E+03  0.90980344387E+02 0.  0.
         23    2    4    4    0    0 -0.23235760920E+03 -0.24471599016E+03  0.15364621121E+03  0.38188999364E+03  0.91415724177E+02 0.  0.
          1    1    3    3  502    0 -0.18177014205E+03  0.15584363642E+03 -0.13977615720E+03  0.27724537449E+03  0.00000000000E+00 0. -1.
         -1    1    3    3    0  502 -0.37185244098E+03  0.44157213573E+03 -0.21881055657E+03  0.61736395148E+03  0.00000000000E+00 0.  1.
         13    1    5    5    0    0  0.50868869708E+03 -0.27393130965E+03  0.26522828430E+03  0.63572682478E+03  0.00000000000E+00 0. -1.
        -13    1    5    5    0    0  0.27729149515E+03 -0.78768472337E+02  0.11599527917E+03  0.31072487880E+03  0.00000000000E+00 0.  1.
          1    1    6    6  503    0 -0.12274824518E+03 -0.64761651032E+02  0.56017410792E+02  0.14966346732E+03  0.00000000000E+00 0. -1.
         -1    1    6    6    0  503 -0.10960936402E+03 -0.17995433913E+03  0.97628800415E+02  0.23222652631E+03  0.00000000000E+00 0.  1.
<mgrwt>
<rscale>  0 0.22159503E+04</rscale>
<asrwt>0</asrwt>
<pdfrwt beam="1">  1        1 0.18455647E+00 0.22159503E+04</pdfrwt>
<pdfrwt beam="2">  1       -1 0.15743600E+00 0.22159503E+04</pdfrwt>
<totfact> 0.29760497E+00</totfact>
</mgrwt>
</event>
<event>
12    3  0.4688899E-008  0.1621038E+04  0.7818608E-02  0.8807727E-01
          1   -1    0    0  501    0  0.00000000000E+00  0.00000000000E+00  0.33732607179E+03  0.33732607179E+03  0.00000000000E+00 0. -1.
         -1   -1    0    0    0  501 -0.00000000000E+00 -0.00000000000E+00 -0.19474965998E+04  0.19474965998E+04  0.00000000000E+00 0.  1.
         23    2    1    2    0    0  0.47626907792E+03 -0.29641091888E+03 -0.65709612983E+03  0.86852351997E+03  0.88691112792E+02 0.  0.
        254    2    1    2    0    0 -0.47626907792E+03  0.29641091888E+03 -0.95307439816E+03  0.14162991516E+04  0.88479421958E+03 0.  0.
         23    2    4    4    0    0 -0.58303515745E+03  0.47732027530E+03 -0.50004546755E+03  0.90857828503E+03  0.87774656727E+02 0.  0.
         23    2    4    4    0    0  0.10676607953E+03 -0.18090935642E+03 -0.45302893060E+03  0.50772086658E+03  0.91750070395E+02 0.  0.
          1    1    3    3  502    0  0.22225772873E+02 -0.14694434491E+02 -0.68822579258E+02  0.73800127375E+02  0.00000000000E+00 0. -1.
         -1    1    3    3    0  502  0.45404330505E+03 -0.28171648439E+03 -0.58827355057E+03  0.79472339260E+03  0.00000000000E+00 0.  1.
         13    1    5    5    0    0 -0.18752401475E+03  0.20166616532E+03 -0.15822441365E+03  0.31759953309E+03  0.00000000000E+00 0.  1.
        -13    1    5    5    0    0 -0.39551114270E+03  0.27565410998E+03 -0.34182105391E+03  0.59097875194E+03  0.00000000000E+00 0. -1.
          4    1    6    6  503    0  0.45626833597E+02 -0.15631297694E+03 -0.30706023794E+03  0.34756516573E+03  0.00000000000E+00 0. -1.
         -4    1    6    6    0  503  0.61139245935E+02 -0.24596379477E+02 -0.14596869266E+03  0.16015570084E+03  0.00000000000E+00 0.  1.
<mgrwt>
<rscale>  0 0.16210384E+04</rscale>
<asrwt>0</asrwt>
<pdfrwt beam="1">  1        1 0.51896320E-01 0.16210384E+04</pdfrwt>
<pdfrwt beam="2">  1       -1 0.29961486E+00 0.16210384E+04</pdfrwt>
<totfact> 0.23965149E+00</totfact>
</mgrwt>
</event>
<event>
12    3  0.4688899E-008  0.1568908E+04  0.7818608E-02  0.8839880E-01
          2   -1    0    0  501    0  0.00000000000E+00  0.00000000000E+00  0.16633538650E+04  0.16633538650E+04  0.00000000000E+00 0. -1.
         -2   -1    0    0    0  501 -0.00000000000E+00 -0.00000000000E+00 -0.36995602197E+03  0.36995602197E+03  0.00000000000E+00 0.  1.
         23    2    1    2    0    0 -0.20340212695E+03  0.34759955722E+03  0.18153594998E+02  0.41331227565E+03  0.91102177611E+02 0.  0.
        254    2    1    2    0    0  0.20340212695E+03 -0.34759955722E+03  0.12752442481E+04  0.16199976113E+04  0.91430109433E+03 0.  0.
         23    2    4    4    0    0  0.23018240504E+03 -0.61042453380E+03  0.60788560199E+03  0.89638050464E+03  0.91493458390E+02 0.  0.
         23    2    4    4    0    0 -0.26780278087E+02  0.26282497658E+03  0.66735864606E+03  0.72361710669E+03  0.91978274712E+02 0.  0.
          2    1    3    3  502    0 -0.93036156743E+02  0.20576396262E+03 -0.28574374609E+02  0.22762036301E+03  0.00000000000E+00 0. -1.
         -2    1    3    3    0  502 -0.11036597021E+03  0.14183559460E+03  0.46727969606E+02  0.18569191264E+03  0.00000000000E+00 0.  1.
         13    1    5    5    0    0  0.10243624800E+03 -0.36576946269E+03  0.39330355001E+03  0.54677981600E+03  0.00000000000E+00 0. -1.
        -13    1    5    5    0    0  0.12774615704E+03 -0.24465507112E+03  0.21458205198E+03  0.34960068864E+03  0.00000000000E+00 0.  1.
          4    1    6    6  503    0  0.31733893550E+02  0.78214871526E+02  0.24048238303E+03  0.25486542071E+03  0.00000000000E+00 0. -1.
         -4    1    6    6    0  503 -0.58514171636E+02  0.18461010505E+03  0.42687626304E+03  0.46875168598E+03  0.00000000000E+00 0.  1.
<mgrwt>
<rscale>  0 0.15689076E+04</rscale>
<asrwt>0</asrwt>
<pdfrwt beam="1">  1        2 0.25590059E+00 0.15689076E+04</pdfrwt>
<pdfrwt beam="2">  1       -2 0.56916312E-01 0.15689076E+04</pdfrwt>
<totfact> 0.28592770E+01</totfact>
</mgrwt>
</event>
<event>
12    3  0.4688899E-008  0.2133959E+04  0.7818608E-02  0.8546430E-01
          1   -1    0    0  501    0  0.00000000000E+00  0.00000000000E+00  0.20137620539E+04  0.20137620539E+04  0.00000000000E+00 0. -1.
         -1   -1    0    0    0  501 -0.00000000000E+00 -0.00000000000E+00 -0.56533235100E+03  0.56533235100E+03  0.00000000000E+00 0.  1.
         23    2    1    2    0    0 -0.84543096585E+03  0.40327291255E+02  0.32734764923E+03  0.91175366033E+03  0.88082036865E+02 0.  0.
        254    2    1    2    0    0  0.84543096585E+03 -0.40327291255E+02  0.11210820537E+04  0.16673407446E+04  0.89823180697E+03 0.  0.
         23    2    4    4    0    0  0.32538381479E+03  0.26590650053E+03  0.47650840223E+02  0.43241286777E+03  0.90163139309E+02 0.  0.
         23    2    4    4    0    0  0.52004715106E+03 -0.30623379179E+03  0.10734312135E+04  0.12349278768E+04  0.92542511067E+02 0.  0.
          2    1    3    3  502    0 -0.73884085132E+02  0.52896617677E+01  0.56989278405E+02  0.93459169751E+02  0.00000000000E+00 0. -1.
         -2    1    3    3    0  502 -0.77154688072E+03  0.35037629487E+02  0.27035837082E+03  0.81829449058E+03  0.00000000000E+00 0.  1.
         13    1    5    5    0    0  0.24701493336E+03  0.15992851810E+03  0.65283481692E+01  0.29434015617E+03  0.00000000000E+00 0. -1.
        -13    1    5    5    0    0  0.78368881428E+02  0.10597798243E+03  0.41122492054E+02  0.13807271160E+03  0.00000000000E+00 0.  1.
          1    1    6    6  503    0  0.31743348012E+03 -0.23597319543E+03  0.66998607479E+03  0.77802872934E+03  0.00000000000E+00 0. -1.
         -1    1    6    6    0  503  0.20261367094E+03 -0.70260596361E+02  0.40344513868E+03  0.45689914749E+03  0.00000000000E+00 0.  1.
<mgrwt>
<rscale>  0 0.21339586E+04</rscale>
<asrwt>0</asrwt>
<pdfrwt beam="1">  1        1 0.30980954E+00 0.21339586E+04</pdfrwt>
<pdfrwt beam="2">  1       -1 0.86974209E-01 0.21339586E+04</pdfrwt>
<totfact> 0.34823119E+00</totfact>
</mgrwt>
</event>
<event>
12    3  0.4688899E-008  0.1775239E+04  0.7818608E-02  0.8719579E-01
          2   -1    0    0  501    0  0.00000000000E+00  0.00000000000E+00  0.14441991377E+04  0.14441991377E+04  0.00000000000E+00 0.  1.
         -2   -1    0    0    0  501 -0.00000000000E+00 -0.00000000000E+00 -0.54553986986E+03  0.54553986986E+03  0.00000000000E+00 0. -1.
         23    2    1    2    0    0  0.54755137981E+03  0.30555324115E+03  0.58800666236E+03  0.86452084159E+03  0.92028005799E+02 0.  0.
        254    2    1    2    0    0 -0.54755137981E+03 -0.30555324115E+03  0.31065260546E+03  0.11252181660E+04  0.88115582221E+03 0.  0.
         23    2    4    4    0    0 -0.69708873181E+03 -0.12504988068E+03 -0.14314247731E+02  0.71407437819E+03  0.90150691790E+02 0.  0.
         23    2    4    4    0    0  0.14953735200E+03 -0.18050336047E+03  0.32496685319E+03  0.41114378776E+03  0.92156799886E+02 0.  0.
          3    1    3    3  502    0  0.24870059257E+03  0.11514952344E+03  0.20153894460E+03  0.34019015812E+03  0.00000000000E+00 0. -1.
         -3    1    3    3    0  502  0.29885078724E+03  0.19040371771E+03  0.38646771777E+03  0.52433068347E+03  0.00000000000E+00 0.  1.
         13    1    5    5    0    0 -0.44351476574E+03 -0.42536333225E+02  0.15030538152E+02  0.44580332452E+03  0.00000000000E+00 0.  1.
        -13    1    5    5    0    0 -0.25357396607E+03 -0.82513547455E+02 -0.29344785883E+02  0.26827105367E+03  0.00000000000E+00 0. -1.
          1    1    6    6  503    0  0.31701556922E+01 -0.15764416742E+02  0.80179476999E+02  0.81776006592E+02  0.00000000000E+00 0. -1.
         -1    1    6    6    0  503  0.14636719630E+03 -0.16473894373E+03  0.24478737619E+03  0.32936778117E+03  0.00000000000E+00 0.  1.
<mgrwt>
<rscale>  0 0.17752388E+04</rscale>
<asrwt>0</asrwt>
<pdfrwt beam="1">  1        2 0.22218448E+00 0.17752388E+04</pdfrwt>
<pdfrwt beam="2">  1       -2 0.83929211E-01 0.17752388E+04</pdfrwt>
<totfact> 0.16017842E+01</totfact>
</mgrwt>
</event>
<event>
12    3  0.4688899E-008  0.2018913E+04  0.7818608E-02  0.8597829E-01
         -2   -1    0    0    0  501 -0.00000000000E+00  0.00000000000E+00  0.36096923439E+03  0.36096923439E+03  0.00000000000E+00 0.  1.
          2   -1    0    0  501    0  0.00000000000E+00 -0.00000000000E+00 -0.28229626640E+04  0.28229626640E+04  0.00000000000E+00 0. -1.
         23    2    1    2    0    0  0.13902468078E+03 -0.97000702115E+02  0.25551080702E+03  0.31735360088E+03  0.81795705343E+02 0.  0.
        254    2    1    2    0    0 -0.13902468078E+03  0.97000702115E+02 -0.27175042367E+04  0.28665782975E+04  0.89649587927E+03 0.  0.
         23    2    4    4    0    0 -0.19416019271E+03 -0.35914539822E+03 -0.16195126885E+04  0.16727962447E+04  0.93500430564E+02 0.  0.
         23    2    4    4    0    0  0.55135511934E+02  0.45614610034E+03 -0.10979915482E+04  0.11937820529E+04  0.91765790713E+02 0.  0.
          2    1    3    3  502    0 -0.42420909550E+01  0.69885078128E+01  0.24793961736E+01  0.85429492861E+01  0.00000000000E+00 0. -1.
         -2    1    3    3    0  502  0.14326677173E+03 -0.10398920993E+03  0.25303141085E+03  0.30881065160E+03  0.00000000000E+00 0.  1.
         13    1    5    5    0    0 -0.96141215187E+01 -0.14068515665E+01 -0.10982707496E+02  0.14663915843E+02  0.00000000000E+00 0.  1.
        -13    1    5    5    0    0 -0.18454607119E+03 -0.35773854666E+03 -0.16085299810E+04  0.16581323289E+04  0.00000000000E+00 0. -1.
          2    1    6    6  503    0  0.51567709425E+02  0.46018541673E+03 -0.10827247827E+04  0.11775919503E+04  0.00000000000E+00 0. -1.
         -2    1    6    6    0  503  0.35678025096E+01 -0.40393163947E+01 -0.15266765503E+02  0.16190102550E+02  0.00000000000E+00 0.  1.
<mgrwt>
<rscale>  0 0.20189132E+04</rscale>
<asrwt>0</asrwt>
<pdfrwt beam="1">  1        2 0.43430194E+00 0.20189132E+04</pdfrwt>
<pdfrwt beam="2">  1       -2 0.55533729E-01 0.20189132E+04</pdfrwt>
<totfact> 0.63393437E+00</totfact>
</mgrwt>
</event>
<event>
12    3  0.4688899E-008  0.1942974E+04  0.7818608E-02  0.8633756E-01
          2   -1    0    0  501    0  0.00000000000E+00  0.00000000000E+00  0.49608349232E+04  0.49608349232E+04  0.00000000000E+00 0. -1.
         -2   -1    0    0    0  501 -0.00000000000E+00 -0.00000000000E+00 -0.19024756297E+03  0.19024756297E+03  0.00000000000E+00 0.  1.
         23    2    1    2    0    0  0.39857672126E+03  0.25336535610E+03  0.29707292261E+03  0.56541192235E+03  0.91547333015E+02 0.  0.
        254    2    1    2    0    0 -0.39857672126E+03 -0.25336535610E+03  0.44735144376E+04  0.45856705638E+04  0.89049743955E+03 0.  0.
         23    2    4    4    0    0 -0.39503297164E+03  0.25621462098E+03  0.24852653448E+04  0.25311413543E+04  0.91846286548E+02 0.  0.
         23    2    4    4    0    0 -0.35437496264E+01 -0.50957997708E+03  0.19882490927E+04  0.20545292095E+04  0.90947824227E+02 0.  0.
          3    1    3    3  502    0  0.23638257969E+03  0.16867119672E+03  0.23032105418E+03  0.37064064076E+03  0.00000000000E+00 0. -1.
         -3    1    3    3    0  502  0.16219414157E+03  0.84694159385E+02  0.66751868430E+02  0.19477128159E+03  0.00000000000E+00 0.  1.
         13    1    5    5    0    0 -0.96166418611E+02  0.64451509282E+02  0.84392582614E+03  0.85182907742E+03  0.00000000000E+00 0.  1.
        -13    1    5    5    0    0 -0.29886655303E+03  0.19176311169E+03  0.16413395187E+04  0.16793122769E+04  0.00000000000E+00 0. -1.
          3    1    6    6  503    0  0.26470923896E+02 -0.40615451680E+03  0.14765766634E+04  0.15316464488E+04  0.00000000000E+00 0. -1.
         -3    1    6    6    0  503 -0.30014673522E+02 -0.10342546028E+03  0.51167242938E+03  0.52288276071E+03  0.00000000000E+00 0.  1.
<mgrwt>
<rscale>  0 0.19429738E+04</rscale>
<asrwt>0</asrwt>
<pdfrwt beam="1">  1        2 0.76320527E+00 0.19429738E+04</pdfrwt>
<pdfrwt beam="2">  1       -2 0.29268860E-01 0.19429738E+04</pdfrwt>
<totfact> 0.39552383E-01</totfact>
</mgrwt>
</event>
<event>
12    3  0.4688899E-008  0.1308687E+04  0.7818608E-02  0.9022704E-01
         -1   -1    0    0    0  501 -0.00000000000E+00  0.00000000000E+00  0.18682223610E+03  0.18682223610E+03  0.00000000000E+00 0.  1.
          1   -1    0    0  501    0  0.00000000000E+00 -0.00000000000E+00 -0.22918335082E+04  0.22918335082E+04  0.00000000000E+00 0. -1.
         23    2    1    2    0    0  0.19783791962E+01 -0.11699559079E+03 -0.11597503192E+04  0.11692754353E+04  0.92153993692E+02 0.  0.
        254    2    1    2    0    0 -0.19783791962E+01  0.11699559079E+03 -0.94526095292E+03  0.13093803090E+04  0.89848018465E+03 0.  0.
         23    2    4    4    0    0  0.40191304814E+03 -0.11676794324E+03 -0.40627298057E+03  0.59056446741E+03  0.92411063136E+02 0.  0.
         23    2    4    4    0    0 -0.40389142734E+03  0.23376353403E+03 -0.53898797236E+03  0.71881584158E+03  0.91730610194E+02 0.  0.
          4    1    3    3  502    0  0.17589473929E+02 -0.10733049037E+03 -0.11223880320E+04  0.11276453867E+04  0.00000000000E+00 0. -1.
         -4    1    3    3    0  502 -0.15611094732E+02 -0.96651004248E+01 -0.37362287152E+02  0.41630048597E+02  0.00000000000E+00 0.  1.
         13    1    5    5    0    0  0.35065122473E+03 -0.74796280697E+02 -0.36919928476E+03  0.51464441790E+03  0.00000000000E+00 0.  1.
        -13    1    5    5    0    0  0.51261823420E+02 -0.41971662538E+02 -0.37073695802E+02  0.75920049506E+02  0.00000000000E+00 0. -1.
          2    1    6    6  503    0 -0.27798441259E+03  0.16847817706E+03 -0.43460834263E+03  0.54271967098E+03  0.00000000000E+00 0. -1.
         -2    1    6    6    0  503 -0.12590701475E+03  0.65285356970E+02 -0.10437962972E+03  0.17609617060E+03  0.00000000000E+00 0.  1.
<mgrwt>
<rscale>  0 0.13086871E+04</rscale>
<asrwt>0</asrwt>
<pdfrwt beam="1">  1        1 0.35258977E+00 0.13086871E+04</pdfrwt>
<pdfrwt beam="2">  1       -1 0.28741883E-01 0.13086871E+04</pdfrwt>
<totfact> 0.20422095E+01</totfact>
</mgrwt>
</event>
<event>
12    3  0.4688899E-008  0.1571559E+04  0.7818608E-02  0.8838213E-01
         -2   -1    0    0    0  501 -0.00000000000E+00  0.00000000000E+00  0.29631671005E+03  0.29631671005E+03  0.00000000000E+00 0.  1.
          2   -1    0    0  501    0  0.00000000000E+00 -0.00000000000E+00 -0.20837485585E+04  0.20837485585E+04  0.00000000000E+00 0. -1.
         23    2    1    2    0    0  0.51673431627E+03  0.54201529156E+02 -0.72076299624E+03  0.89363461596E+03  0.95558205852E+02 0.  0.
        254    2    1    2    0    0 -0.51673431627E+03 -0.54201529156E+02 -0.10666688522E+04  0.14864306526E+04  0.89540018166E+03 0.  0.
         23    2    4    4    0    0 -0.51778243461E+03  0.10068879574E+03 -0.15500032369E+03  0.55719528014E+03  0.90579228791E+02 0.  0.
         23    2    4    4    0    0  0.10481183402E+01 -0.15489032489E+03 -0.91166852852E+03  0.92923537245E+03  0.91360605420E+02 0.  0.
          4    1    3    3  502    0  0.11513487579E+03  0.38438658419E+02 -0.22275364965E+03  0.25367845497E+03  0.00000000000E+00 0.  1.
         -4    1    3    3    0  502  0.40159944048E+03  0.15762870737E+02 -0.49800934660E+03  0.63995616099E+03  0.00000000000E+00 0. -1.
         13    1    5    5    0    0 -0.31267395474E+02 -0.13878575738E+02 -0.11433680158E+01  0.34228236511E+02  0.00000000000E+00 0. -1.
        -13    1    5    5    0    0 -0.48651503914E+03  0.11456737148E+03 -0.15385695567E+03  0.52296704363E+03  0.00000000000E+00 0.  1.
          2    1    6    6  503    0 -0.20648471421E+02 -0.14545676585E+02 -0.50804497369E+02  0.56736522913E+02  0.00000000000E+00 0. -1.
         -2    1    6    6    0  503  0.21696589761E+02 -0.14034464831E+03 -0.86086403115E+03  0.87249884954E+03  0.00000000000E+00 0.  1.
<mgrwt>
<rscale>  0 0.15715591E+04</rscale>
<asrwt>0</asrwt>
<pdfrwt beam="1">  1        2 0.32057668E+00 0.15715591E+04</pdfrwt>
<pdfrwt beam="2">  1       -2 0.45587189E-01 0.15715591E+04</pdfrwt>
<totfact> 0.26323196E+01</totfact>
</mgrwt>
</event>
<event>
12    3  0.4688899E-008  0.2102986E+04  0.7818608E-02  0.8559929E-01
         -2   -1    0    0    0  501 -0.00000000000E+00  0.00000000000E+00  0.10232627804E+04  0.10232627804E+04  0.00000000000E+00 0.  1.
          2   -1    0    0  501    0  0.00000000000E+00 -0.00000000000E+00 -0.10805017626E+04  0.10805017626E+04  0.00000000000E+00 0. -1.
         23    2    1    2    0    0  0.59808358457E+03  0.58614572776E+03  0.13181455976E+03  0.85261094130E+03  0.91101870274E+02 0.  0.
        254    2    1    2    0    0 -0.59808358457E+03 -0.58614572776E+03 -0.18905354195E+03  0.12511536017E+04  0.91015015518E+03 0.  0.
         23    2    4    4    0    0 -0.23701718534E+03 -0.69450452940E+03  0.12781719020E+03  0.75022000240E+03  0.89325978223E+02 0.  0.
         23    2    4    4    0    0 -0.36106639922E+03  0.10835880164E+03 -0.31687073215E+03  0.50093359928E+03  0.91743312842E+02 0.  0.
          4    1    3    3  502    0  0.65592946202E+02  0.85080861768E+02 -0.97119186543E+01  0.10786801655E+03  0.00000000000E+00 0. -1.
         -4    1    3    3    0  502  0.53249063836E+03  0.50106486599E+03  0.14152647842E+03  0.74474292475E+03  0.00000000000E+00 0.  1.
         13    1    5    5    0    0 -0.24278428569E+03 -0.64106662057E+03  0.11796406369E+03  0.69557612215E+03  0.00000000000E+00 0.  1.
        -13    1    5    5    0    0  0.57671003447E+01 -0.53437908835E+02  0.98531265056E+01  0.54643880251E+02  0.00000000000E+00 0. -1.
          4    1    6    6  503    0 -0.20784778819E+03  0.21145887057E+02 -0.14196087259E+03  0.25258808551E+03  0.00000000000E+00 0. -1.
         -4    1    6    6    0  503 -0.15321861103E+03  0.87212914587E+02 -0.17490985956E+03  0.24834551376E+03  0.00000000000E+00 0.  1.
<mgrwt>
<rscale>  0 0.21029857E+04</rscale>
<asrwt>0</asrwt>
<pdfrwt beam="1">  1        2 0.16623104E+00 0.21029857E+04</pdfrwt>
<pdfrwt beam="2">  1       -2 0.15742504E+00 0.21029857E+04</pdfrwt>
<totfact> 0.54328845E+00</totfact>
</mgrwt>
</event>
<event>
12    3  0.4688899E-008  0.1174681E+04  0.7818608E-02  0.9135312E-01
         -2   -1    0    0    0  501 -0.00000000000E+00  0.00000000000E+00  0.18857962085E+03  0.18857962085E+03  0.00000000000E+00 0.  1.
          2   -1    0    0  501    0  0.00000000000E+00 -0.00000000000E+00 -0.18292997210E+04  0.18292997210E+04  0.00000000000E+00 0. -1.
         23    2    1    2    0    0  0.18769198377E+03  0.47226311714E+02 -0.13056626994E+03  0.25051123218E+03  0.90827976487E+02 0.  0.
        254    2    1    2    0    0 -0.18769198377E+03 -0.47226311714E+02 -0.15101538302E+04  0.17673681096E+04  0.89753375360E+03 0.  0.
         23    2    4    4    0    0 -0.50137472773E+03 -0.18246912888E+03 -0.11011072878E+04  0.12271462013E+04  0.93695995514E+02 0.  0.
         23    2    4    4    0    0  0.31368274397E+03  0.13524281717E+03 -0.40904654236E+03  0.54022190830E+03  0.88505101121E+02 0.  0.
          2    1    3    3  502    0  0.29538209554E+02  0.35523939215E+02 -0.63016665971E+02  0.78138059044E+02  0.00000000000E+00 0. -1.
         -2    1    3    3    0  502  0.15815377421E+03  0.11702372498E+02 -0.67549603967E+02  0.17237317313E+03  0.00000000000E+00 0.  1.
         13    1    5    5    0    0 -0.77287031274E+02 -0.44567344683E+02 -0.26396828420E+03  0.27863737811E+03  0.00000000000E+00 0.  1.
        -13    1    5    5    0    0 -0.42408769646E+03 -0.13790178420E+03 -0.83713900363E+03  0.94850882324E+03  0.00000000000E+00 0. -1.
          4    1    6    6  503    0  0.29392573292E+03  0.11863576982E+03 -0.40469594038E+03  0.51404823364E+03  0.00000000000E+00 0. -1.
         -4    1    6    6    0  503  0.19757011046E+02  0.16607047351E+02 -0.43506019866E+01  0.26173674653E+02  0.00000000000E+00 0.  1.
<mgrwt>
<rscale>  0 0.11746806E+04</rscale>
<asrwt>0</asrwt>
<pdfrwt beam="1">  1        2 0.28143073E+00 0.11746806E+04</pdfrwt>
<pdfrwt beam="2">  1       -2 0.29012248E-01 0.11746806E+04</pdfrwt>
<totfact> 0.89699206E+01</totfact>
</mgrwt>
</event>
<event>
12    3  0.4688899E-008  0.3376168E+04  0.7818608E-02  0.8143780E-01
         -2   -1    0    0    0  501 -0.00000000000E+00  0.00000000000E+00  0.14316462881E+04  0.14316462881E+04  0.00000000000E+00 0.  1.
          2   -1    0    0  501    0  0.00000000000E+00 -0.00000000000E+00 -0.19904551472E+04  0.19904551472E+04  0.00000000000E+00 0. -1.
         23    2    1    2    0    0  0.62140039636E+03  0.97020041841E+03  0.81650227671E+03  0.14149881967E+04  0.89935111710E+02 0.  0.
        254    2    1    2    0    0 -0.62140039636E+03 -0.97020041841E+03 -0.13753111358E+04  0.20071132387E+04  0.89977526529E+03 0.  0.
         23    2    4    4    0    0  0.72986523776E+01 -0.48131756566E+03 -0.99031494021E+02  0.49990678242E+03  0.91540619170E+02 0.  0.
         23    2    4    4    0    0 -0.62869904874E+03 -0.48888285275E+03 -0.12762796418E+04  0.15072064562E+04  0.92263969627E+02 0.  0.
          3    1    3    3  502    0  0.15269349492E+03  0.17601995501E+03  0.18071946093E+03  0.29488616704E+03  0.00000000000E+00 0. -1.
         -3    1    3    3    0  502  0.46870690144E+03  0.79418046340E+03  0.63578281578E+03  0.11201020296E+04  0.00000000000E+00 0.  1.
         13    1    5    5    0    0  0.17742999260E+02 -0.19577576343E+03 -0.84016933904E+02  0.21377981372E+03  0.00000000000E+00 0. -1.
        -13    1    5    5    0    0 -0.10444346882E+02 -0.28554180223E+03 -0.15014560117E+02  0.28612696870E+03  0.00000000000E+00 0.  1.
          2    1    6    6  503    0 -0.29447399180E+03 -0.17479630153E+03 -0.57562305994E+03  0.66978398459E+03  0.00000000000E+00 0. -1.
         -2    1    6    6    0  503 -0.33422505694E+03 -0.31408655121E+03 -0.70065658184E+03  0.83742247164E+03  0.00000000000E+00 0.  1.
<mgrwt>
<rscale>  0 0.33761681E+04</rscale>
<asrwt>0</asrwt>
<pdfrwt beam="1">  1        2 0.30622387E+00 0.33761681E+04</pdfrwt>
<pdfrwt beam="2">  1       -2 0.22025328E+00 0.33761681E+04</pdfrwt>
<totfact> 0.55284931E-01</totfact>
</mgrwt>
</event>
<event>
12    3  0.4688899E-008  0.1832571E+04  0.7818608E-02  0.8689168E-01
          1   -1    0    0  501    0  0.00000000000E+00  0.00000000000E+00  0.13249295497E+04  0.13249295497E+04  0.00000000000E+00 0.  1.
         -1   -1    0    0    0  501 -0.00000000000E+00 -0.00000000000E+00 -0.63367837392E+03  0.63367837392E+03  0.00000000000E+00 0. -1.
         23    2    1    2    0    0  0.61652924413E+03 -0.30847102563E+03  0.18864559798E+03  0.72023864262E+03  0.88847386947E+02 0.  0.
        254    2    1    2    0    0 -0.61652924413E+03  0.30847102563E+03  0.50260557780E+03  0.12383692810E+04  0.89759870031E+03 0.  0.
         23    2    4    4    0    0 -0.78880722121E+03  0.41563808574E+03  0.47566886133E+03  0.10146104980E+04  0.90563493971E+02 0.  0.
         23    2    4    4    0    0  0.17227797708E+03 -0.10716706011E+03  0.26936716470E+02  0.22375878302E+03  0.90431886654E+02 0.  0.
          4    1    3    3  502    0  0.24056673989E+02 -0.22014883882E+02  0.27623005014E+02  0.42736507599E+02  0.00000000000E+00 0. -1.
         -4    1    3    3    0  502  0.59247257014E+03 -0.28645614175E+03  0.16102259296E+03  0.67750213502E+03  0.00000000000E+00 0.  1.
         13    1    5    5    0    0 -0.74687727953E+03  0.40240970073E+03  0.42969921262E+03  0.95099981664E+03  0.00000000000E+00 0. -1.
        -13    1    5    5    0    0 -0.41929941677E+02  0.13228385005E+02  0.45969648710E+02  0.63610681347E+02  0.00000000000E+00 0.  1.
          1    1    6    6  503    0  0.17234549119E+03 -0.11040245842E+03  0.41500699797E+02  0.20883960171E+03  0.00000000000E+00 0. -1.
         -1    1    6    6    0  503 -0.67514109621E-01  0.32353983162E+01 -0.14563983328E+02  0.14919181304E+02  0.00000000000E+00 0.  1.
<mgrwt>
<rscale>  0 0.18325711E+04</rscale>
<asrwt>0</asrwt>
<pdfrwt beam="1">  1        1 0.20383532E+00 0.18325711E+04</pdfrwt>
<pdfrwt beam="2">  1       -1 0.97488981E-01 0.18325711E+04</pdfrwt>
<totfact> 0.82520272E+00</totfact>
</mgrwt>
</event>
<event>
12    3  0.4688899E-008  0.1200441E+04  0.7818608E-02  0.9112470E-01
          2   -1    0    0  501    0  0.00000000000E+00  0.00000000000E+00  0.15378915181E+04  0.15378915181E+04  0.00000000000E+00 0. -1.
         -2   -1    0    0    0  501 -0.00000000000E+00 -0.00000000000E+00 -0.23425895290E+03  0.23425895290E+03  0.00000000000E+00 0.  1.
         23    2    1    2    0    0  0.12512655988E+03 -0.14187567804E+03  0.51817376524E+02  0.21662058165E+03  0.91946026984E+02 0.  0.
        254    2    1    2    0    0 -0.12512655988E+03  0.14187567804E+03  0.12518151887E+04  0.15555298893E+04  0.90379566610E+03 0.  0.
         23    2    4    4    0    0 -0.47224711065E+03 -0.54195336919E+02  0.48034715361E+03  0.68173226189E+03  0.89838860506E+02 0.  0.
         23    2    4    4    0    0  0.34712055078E+03  0.19607101496E+03  0.77146803504E+03  0.87379762744E+03  0.97071339481E+02 0.  0.
          3    1    3    3  502    0 -0.30124309924E+01 -0.20472501550E+02  0.33204653355E+02  0.39124762806E+02  0.00000000000E+00 0. -1.
         -3    1    3    3    0  502  0.12813899087E+03 -0.12140317649E+03  0.18612723169E+02  0.17749581884E+03  0.00000000000E+00 0.  1.
         13    1    5    5    0    0 -0.42272869077E+03 -0.76256093784E+02  0.42647906895E+03  0.60530895755E+03  0.00000000000E+00 0.  1.
        -13    1    5    5    0    0 -0.49518419882E+02  0.22060756865E+02  0.53868084659E+02  0.76423304338E+02  0.00000000000E+00 0. -1.
          1    1    6    6  503    0 -0.15047241769E+01  0.16345078830E+02  0.49716407842E+02  0.52355964374E+02  0.00000000000E+00 0. -1.
         -1    1    6    6    0  503  0.34862527495E+03  0.17972593613E+03  0.72175162720E+03  0.82144166307E+03  0.00000000000E+00 0.  1.
<mgrwt>
<rscale>  0 0.12004413E+04</rscale>
<asrwt>0</asrwt>
<pdfrwt beam="1">  1        2 0.23659869E+00 0.12004413E+04</pdfrwt>
<pdfrwt beam="2">  1       -2 0.36039840E-01 0.12004413E+04</pdfrwt>
<totfact> 0.86305627E+01</totfact>
</mgrwt>
</event>
<event>
12    3  0.4688899E-008  0.1517219E+04  0.7818608E-02  0.8873083E-01
          1   -1    0    0  501    0  0.00000000000E+00  0.00000000000E+00  0.91495139956E+03  0.91495139956E+03  0.00000000000E+00 0. -1.
         -1   -1    0    0    0  501 -0.00000000000E+00 -0.00000000000E+00 -0.62898220436E+03  0.62898220436E+03  0.00000000000E+00 0.  1.
         23    2    1    2    0    0  0.35616693607E+00 -0.31870666293E+02  0.58509167730E+03  0.59296316146E+03  0.90868992399E+02 0.  0.
        254    2    1    2    0    0 -0.35616693607E+00  0.31870666293E+02 -0.29912248209E+03  0.95097044246E+03  0.90213893438E+03 0.  0.
         23    2    4    4    0    0 -0.24525188871E+03 -0.13129474744E+03  0.20671061371E+03  0.35837347898E+03  0.91189215347E+02 0.  0.
         23    2    4    4    0    0  0.24489572177E+03  0.16316541373E+03 -0.50583309580E+03  0.59259696348E+03  0.93312236854E+02 0.  0.
          3    1    3    3  502    0 -0.34354970578E+02 -0.39028999803E+02  0.46057896884E+03  0.46350459908E+03  0.00000000000E+00 0. -1.
         -3    1    3    3    0  502  0.34711137514E+02  0.71583335108E+01  0.12451270845E+03  0.12945856238E+03  0.00000000000E+00 0.  1.
         13    1    5    5    0    0 -0.20498855084E+03 -0.14351205459E+03  0.16981706818E+03  0.30241338005E+03  0.00000000000E+00 0. -1.
        -13    1    5    5    0    0 -0.40263337867E+02  0.12217307153E+02  0.36893545525E+02  0.55960098925E+02  0.00000000000E+00 0.  1.
          2    1    6    6  503    0  0.20036071689E+03  0.16702389854E+03 -0.45839298203E+03  0.52741399823E+03  0.00000000000E+00 0. -1.
         -2    1    6    6    0  503  0.44535004881E+02 -0.38584848102E+01 -0.47440113768E+02  0.65182965253E+02  0.00000000000E+00 0.  1.
<mgrwt>
<rscale>  0 0.15172187E+04</rscale>
<asrwt>0</asrwt>
<pdfrwt beam="1">  1        1 0.14076175E+00 0.15172187E+04</pdfrwt>
<pdfrwt beam="2">  1       -1 0.96766493E-01 0.15172187E+04</pdfrwt>
<totfact> 0.17559347E+01</totfact>
</mgrwt>
</event>
<event>
12    3  0.4688899E-008  0.2133482E+04  0.7818608E-02  0.8546636E-01
         -2   -1    0    0    0  501 -0.00000000000E+00  0.00000000000E+00  0.35536578789E+03  0.35536578789E+03  0.00000000000E+00 0. -1.
          2   -1    0    0  501    0  0.00000000000E+00 -0.00000000000E+00 -0.32021563660E+04  0.32021563660E+04  0.00000000000E+00 0.  1.
         23    2    1    2    0    0  0.32312233749E+03 -0.44137007679E+03 -0.42747354925E+02  0.55771653494E+03  0.10002403376E+03 0.  0.
        254    2    1    2    0    0 -0.32312233749E+03  0.44137007679E+03 -0.28040432232E+04  0.29998056189E+04  0.91485505096E+03 0.  0.
         23    2    4    4    0    0 -0.52488744309E+03  0.82947896738E+02 -0.89529739448E+03  0.10451114206E+04  0.91177165318E+02 0.  0.
         23    2    4    4    0    0  0.20176510560E+03  0.35842218005E+03 -0.19087458287E+04  0.19546941983E+04  0.91340863401E+02 0.  0.
          3    1    3    3  502    0  0.26308019007E+03 -0.38755465950E+03 -0.44009142847E+01  0.46843267238E+03  0.00000000000E+00 0. -1.
         -3    1    3    3    0  502  0.60042147417E+02 -0.53815417289E+02 -0.38346440640E+02  0.89283862564E+02  0.00000000000E+00 0.  1.
         13    1    5    5    0    0 -0.19220454535E+03  0.68542687162E+02 -0.38587808509E+03  0.43651183692E+03  0.00000000000E+00 0. -1.
        -13    1    5    5    0    0 -0.33268289774E+03  0.14405209575E+02 -0.50941930939E+03  0.60859958371E+03  0.00000000000E+00 0.  1.
          3    1    6    6  503    0  0.16516479434E+02  0.77437624106E+02 -0.25343383609E+03  0.26551476229E+03  0.00000000000E+00 0. -1.
         -3    1    6    6    0  503  0.18524862617E+03  0.28098455594E+03 -0.16553119926E+04  0.16891794360E+04  0.00000000000E+00 0.  1.
<mgrwt>
<rscale>  0 0.21334824E+04</rscale>
<asrwt>0</asrwt>
<pdfrwt beam="1">  1        2 0.49263947E+00 0.21334824E+04</pdfrwt>
<pdfrwt beam="2">  1       -2 0.54671657E-01 0.21334824E+04</pdfrwt>
<totfact> 0.37487841E+00</totfact>
</mgrwt>
</event>
<event>
12    3  0.4688899E-008  0.1418498E+04  0.7818608E-02  0.8940537E-01
         -2   -1    0    0    0  501 -0.00000000000E+00  0.00000000000E+00  0.47595441535E+03  0.47595441535E+03  0.00000000000E+00 0.  1.
          2   -1    0    0  501    0  0.00000000000E+00 -0.00000000000E+00 -0.10568953996E+04  0.10568953996E+04  0.00000000000E+00 0. -1.
         23    2    1    2    0    0 -0.31339277844E+03  0.96442769108E+02 -0.45092224469E+03  0.56526240818E+03  0.93136878064E+02 0.  0.
        254    2    1    2    0    0  0.31339277844E+03 -0.96442769108E+02 -0.13001873951E+03  0.96758740672E+03  0.90100181783E+03 0.  0.
         23    2    4    4    0    0  0.52123008939E+03 -0.32486735117E+03 -0.17286644750E+03  0.64448485003E+03  0.90875251330E+02 0.  0.
         23    2    4    4    0    0 -0.20783731095E+03  0.22842458206E+03  0.42847707985E+02  0.32310255669E+03  0.84765550481E+02 0.  0.
          4    1    3    3  502    0 -0.13889867336E+03  0.44569466580E+02 -0.12571378956E+03  0.19257007997E+03  0.00000000000E+00 0. -1.
         -4    1    3    3    0  502 -0.17449410508E+03  0.51873302528E+02 -0.32520845513E+03  0.37269232822E+03  0.00000000000E+00 0.  1.
         13    1    5    5    0    0  0.51937066624E+03 -0.31398521686E+03 -0.17777148136E+03  0.63240438403E+03  0.00000000000E+00 0.  1.
        -13    1    5    5    0    0  0.18594231535E+01 -0.10882134315E+02  0.49050338588E+01  0.12080466003E+02  0.00000000000E+00 0. -1.
          2    1    6    6  503    0 -0.10176876633E+03  0.17262780765E+03  0.25777530336E+02  0.20204386366E+03  0.00000000000E+00 0. -1.
         -2    1    6    6    0  503 -0.10606854462E+03  0.55796774415E+02  0.17070177649E+02  0.12105869303E+03  0.00000000000E+00 0.  1.
<mgrwt>
<rscale>  0 0.14184978E+04</rscale>
<asrwt>0</asrwt>
<pdfrwt beam="1">  1        2 0.16259929E+00 0.14184978E+04</pdfrwt>
<pdfrwt beam="2">  1       -2 0.73223756E-01 0.14184978E+04</pdfrwt>
<totfact> 0.37939255E+01</totfact>
</mgrwt>
</event>
<event>
12    3  0.4688899E-008  0.1606361E+04  0.7818608E-02  0.8816650E-01
          2   -1    0    0  501    0  0.00000000000E+00  0.00000000000E+00  0.50711788228E+03  0.50711788228E+03  0.00000000000E+00 0. -1.
         -2   -1    0    0    0  501 -0.00000000000E+00 -0.00000000000E+00 -0.12720886059E+04  0.12720886059E+04  0.00000000000E+00 0.  1.
         23    2    1    2    0    0  0.20445397202E+03  0.27639385012E+01 -0.83892557537E+03  0.86813759216E+03  0.89764647183E+02 0.  0.
        254    2    1    2    0    0 -0.20445397202E+03 -0.27639385012E+01  0.73954851721E+02  0.91106889605E+03  0.88474185344E+03 0.  0.
         23    2    4    4    0    0  0.19020678164E+03  0.31214059487E+03 -0.59954570168E+02  0.38206731832E+03  0.93651025078E+02 0.  0.
         23    2    4    4    0    0 -0.39466075366E+03 -0.31490453337E+03  0.13390942189E+03  0.52900157773E+03  0.83600002128E+02 0.  0.
          2    1    3    3  502    0  0.30570339933E+02  0.34533040381E+02 -0.15278825704E+03  0.15959739362E+03  0.00000000000E+00 0. -1.
         -2    1    3    3    0  502  0.17388363208E+03 -0.31769101880E+02 -0.68613731833E+03  0.70854019854E+03  0.00000000000E+00 0.  1.
         13    1    5    5    0    0  0.19021926399E+03  0.26669668233E+03 -0.33024361619E+02  0.32924321894E+03  0.00000000000E+00 0.  1.
        -13    1    5    5    0    0 -0.12482351148E-01  0.45443912542E+02 -0.26930208549E+02  0.52824099381E+02  0.00000000000E+00 0. -1.
          3    1    6    6  503    0 -0.11058394199E+03 -0.98091072979E+02  0.12911517189E+01  0.14782534931E+03  0.00000000000E+00 0. -1.
         -3    1    6    6    0  503 -0.28407681167E+03 -0.21681346039E+03  0.13261827017E+03  0.38117622842E+03  0.00000000000E+00 0.  1.
<mgrwt>
<rscale>  0 0.16063610E+04</rscale>
<asrwt>0</asrwt>
<pdfrwt beam="1">  1        2 0.78018136E-01 0.16063610E+04</pdfrwt>
<pdfrwt beam="2">  1       -2 0.19570594E+00 0.16063610E+04</pdfrwt>
<totfact> 0.82343770E+00</totfact>
</mgrwt>
</event>
<event>
12    3  0.4688899E-008  0.1515848E+04  0.7818608E-02  0.8873982E-01
          2   -1    0    0  501    0  0.00000000000E+00  0.00000000000E+00  0.12465255249E+04  0.12465255249E+04  0.00000000000E+00 0. -1.
         -2   -1    0    0    0  501 -0.00000000000E+00 -0.00000000000E+00 -0.46084023881E+03  0.46084023881E+03  0.00000000000E+00 0.  1.
         23    2    1    2    0    0  0.98847282230E+02 -0.47074146545E+03  0.22529399129E+03  0.53932569855E+03  0.93522799944E+02 0.  0.
        254    2    1    2    0    0 -0.98847282230E+02  0.47074146545E+03  0.56039129483E+03  0.11680400652E+04  0.90493694702E+03 0.  0.
         23    2    4    4    0    0 -0.31715827876E+03 -0.13557949127E+03  0.30439166356E+03  0.46840333965E+03  0.88182943439E+02 0.  0.
         23    2    4    4    0    0  0.21831099653E+03  0.60632095672E+03  0.25599963127E+03  0.69963672554E+03  0.93117897049E+02 0.  0.
          4    1    3    3  502    0  0.68926674551E+02 -0.29938653120E+03  0.19182417754E+03  0.36218737777E+03  0.00000000000E+00 0. -1.
         -4    1    3    3    0  502  0.29920607679E+02 -0.17135493426E+03  0.33469813746E+02  0.17713832078E+03  0.00000000000E+00 0.  1.
         13    1    5    5    0    0 -0.81776088124E+00 -0.13530638089E+02  0.27428849984E+02  0.30595566858E+02  0.00000000000E+00 0. -1.
        -13    1    5    5    0    0 -0.31634051788E+03 -0.12204885318E+03  0.27696281358E+03  0.43780777280E+03  0.00000000000E+00 0.  1.
          3    1    6    6  503    0 -0.30888404184E+01  0.39252461983E+02  0.34246051161E+00  0.39375296647E+02  0.00000000000E+00 0. -1.
         -3    1    6    6    0  503  0.22139983695E+03  0.56706849474E+03  0.25565717075E+03  0.66026142889E+03  0.00000000000E+00 0.  1.
<mgrwt>
<rscale>  0 0.15158484E+04</rscale>
<asrwt>0</asrwt>
<pdfrwt beam="1">  1        2 0.19177316E+00 0.15158484E+04</pdfrwt>
<pdfrwt beam="2">  1       -2 0.70898499E-01 0.15158484E+04</pdfrwt>
<totfact> 0.31005001E+01</totfact>
</mgrwt>
</event>
<event>
12    3  0.4688899E-008  0.1450960E+04  0.7818608E-02  0.8917735E-01
          1   -1    0    0  501    0  0.00000000000E+00  0.00000000000E+00  0.10759741456E+04  0.10759741456E+04  0.00000000000E+00 0. -1.
         -1   -1    0    0    0  501 -0.00000000000E+00 -0.00000000000E+00 -0.48915780677E+03  0.48915780677E+03  0.00000000000E+00 0.  1.
         23    2    1    2    0    0  0.82253312863E+02 -0.25342720229E+02  0.66578337924E+03  0.67744919588E+03  0.90895786357E+02 0.  0.
        254    2    1    2    0    0 -0.82253312863E+02  0.25342720229E+02 -0.78967040394E+02  0.88768275652E+03  0.87996421621E+03 0.  0.
         23    2    4    4    0    0  0.45487134378E+02  0.42998282985E+03  0.19488084235E+02  0.44210239063E+03  0.90113400894E+02 0.  0.
         23    2    4    4    0    0 -0.12774044724E+03 -0.40464010962E+03 -0.98455124630E+02  0.44558036588E+03  0.93793447110E+02 0.  0.
          3    1    3    3  502    0  0.90144128392E+02 -0.89852757757E+01  0.63703980985E+03  0.64344884676E+03  0.00000000000E+00 0. -1.
         -3    1    3    3    0  502 -0.78908155288E+01 -0.16357444454E+02  0.28743569389E+02  0.34000349116E+02  0.00000000000E+00 0.  1.
         13    1    5    5    0    0 -0.99733228218E+01  0.15655195126E+02 -0.13239880485E+02  0.22800147758E+02  0.00000000000E+00 0. -1.
        -13    1    5    5    0    0  0.55460457200E+02  0.41432763472E+03  0.32727964721E+02  0.41930224288E+03  0.00000000000E+00 0.  1.
          3    1    6    6  503    0 -0.15591829545E+01  0.48048680216E+01  0.21338860982E+01  0.54837284825E+01  0.00000000000E+00 0. -1.
         -3    1    6    6    0  503 -0.12618126429E+03 -0.40944497764E+03 -0.10058901073E+03  0.44009663740E+03  0.00000000000E+00 0.  1.
<mgrwt>
<rscale>  0 0.14509599E+04</rscale>
<asrwt>0</asrwt>
<pdfrwt beam="1">  1        1 0.16553448E+00 0.14509599E+04</pdfrwt>
<pdfrwt beam="2">  1       -1 0.75255047E-01 0.14509599E+04</pdfrwt>
<totfact> 0.22797136E+01</totfact>
</mgrwt>
</event>
<event>
12    3  0.4688899E-008  0.1380326E+04  0.7818608E-02  0.8968184E-01
          1   -1    0    0  501    0  0.00000000000E+00  0.00000000000E+00  0.16079262393E+04  0.16079262393E+04  0.00000000000E+00 0. -1.
         -1   -1    0    0    0  501 -0.00000000000E+00 -0.00000000000E+00 -0.29623572908E+03  0.29623572908E+03  0.00000000000E+00 0.  1.
         23    2    1    2    0    0  0.34129602893E+03 -0.71058161399E+02  0.14052885033E+03  0.38682413916E+03  0.91391001724E+02 0.  0.
        254    2    1    2    0    0 -0.34129602893E+03  0.71058161399E+02  0.11711616599E+04  0.15173378292E+04  0.89953444219E+03 0.  0.
         23    2    4    4    0    0  0.10775990783E+03  0.29707932148E+02 -0.93271161842E+02  0.17175399574E+03  0.91132685986E+02 0.  0.
         23    2    4    4    0    0 -0.44905593676E+03  0.41350229251E+02  0.12644328217E+04  0.13455838335E+04  0.91893505835E+02 0.  0.
          2    1    3    3  502    0  0.17626110886E+03 -0.15481320999E+02  0.11448088549E+03  0.21074516113E+03  0.00000000000E+00 0. -1.
         -2    1    3    3    0  502  0.16503492007E+03 -0.55576840400E+02  0.26047964834E+02  0.17607897803E+03  0.00000000000E+00 0.  1.
         13    1    5    5    0    0  0.10198328140E+02  0.24769119573E+02 -0.64621044708E+02  0.69952802663E+02  0.00000000000E+00 0. -1.
        -13    1    5    5    0    0  0.97561579688E+02  0.49388125754E+01 -0.28650117133E+02  0.10180119308E+03  0.00000000000E+00 0.  1.
          4    1    6    6  503    0 -0.41301039593E+03  0.61855342324E+02  0.11748906770E+04  0.12469048775E+04  0.00000000000E+00 0. -1.
         -4    1    6    6    0  503 -0.36045540831E+02 -0.20505113074E+02  0.89542144681E+02  0.98678955964E+02  0.00000000000E+00 0.  1.
<mgrwt>
<rscale>  0 0.13803263E+04</rscale>
<asrwt>0</asrwt>
<pdfrwt beam="1">  1        1 0.24737326E+00 0.13803263E+04</pdfrwt>
<pdfrwt beam="2">  1       -1 0.45574728E-01 0.13803263E+04</pdfrwt>
<totfact> 0.25736147E+01</totfact>
</mgrwt>
</event>
<event>
12    3  0.4688899E-008  0.2950577E+04  0.7818608E-02  0.8257986E-01
         -2   -1    0    0    0  501 -0.00000000000E+00  0.00000000000E+00  0.28638214438E+04  0.28638214438E+04  0.00000000000E+00 0.  1.
          2   -1    0    0  501    0  0.00000000000E+00 -0.00000000000E+00 -0.75999004489E+03  0.75999004489E+03  0.00000000000E+00 0. -1.
         23    2    1    2    0    0 -0.56149150734E+03  0.12108823793E+04  0.10251289776E+04  0.16855364434E+04  0.92923797954E+02 0.  0.
        254    2    1    2    0    0  0.56149150734E+03 -0.12108823793E+04  0.10787024213E+04  0.19382750452E+04  0.90100077027E+03 0.  0.
         23    2    4    4    0    0  0.73426154045E+03 -0.77237997931E+03  0.48540217777E+03  0.11745948606E+04  0.91361754392E+02 0.  0.
         23    2    4    4    0    0 -0.17277003311E+03 -0.43850239995E+03  0.59330024349E+03  0.76368018460E+03  0.95228180276E+02 0.  0.
          3    1    3    3  502    0 -0.24287913156E+03  0.52582647457E+03  0.50319406104E+03  0.76726007127E+03  0.00000000000E+00 0. -1.
         -3    1    3    3    0  502 -0.31861237578E+03  0.68505590468E+03  0.52193491657E+03  0.91827637216E+03  0.00000000000E+00 0.  1.
         13    1    5    5    0    0  0.23039427728E+03 -0.19039892530E+03  0.11401827686E+03  0.31989598500E+03  0.00000000000E+00 0.  1.
        -13    1    5    5    0    0  0.50386726317E+03 -0.58198105401E+03  0.37138390091E+03  0.85469887561E+03  0.00000000000E+00 0. -1.
          1    1    6    6  503    0 -0.14782998073E+03 -0.25833509496E+03  0.34055723424E+03  0.45229410153E+03  0.00000000000E+00 0. -1.
         -1    1    6    6    0  503 -0.24940052383E+02 -0.18016730499E+03  0.25274300925E+03  0.31138608306E+03  0.00000000000E+00 0.  1.
<mgrwt>
<rscale>  0 0.29505767E+04</rscale>
<asrwt>0</asrwt>
<pdfrwt beam="1">  1        2 0.11692155E+00 0.29505767E+04</pdfrwt>
<pdfrwt beam="2">  1       -2 0.44058791E+00 0.29505767E+04</pdfrwt>
<totfact> 0.12675404E-01</totfact>
</mgrwt>
</event>
<event>
12    3  0.4688899E-008  0.1867978E+04  0.7818608E-02  0.8670962E-01
         -1   -1    0    0    0  501 -0.00000000000E+00  0.00000000000E+00  0.13260425920E+04  0.13260425920E+04  0.00000000000E+00 0.  1.
          1   -1    0    0  501    0  0.00000000000E+00 -0.00000000000E+00 -0.65784842794E+03  0.65784842794E+03  0.00000000000E+00 0. -1.
         23    2    1    2    0    0 -0.25265326458E+03 -0.53631864761E+03  0.69509631455E+03  0.91843125627E+03  0.94264108267E+02 0.  0.
        254    2    1    2    0    0  0.25265326458E+03  0.53631864761E+03 -0.26902150447E+02  0.10654597637E+04  0.88487819416E+03 0.  0.
         23    2    4    4    0    0  0.49716276066E+03  0.12263468347E+03 -0.18315785694E+03  0.55117141322E+03  0.89627283880E+02 0.  0.
         23    2    4    4    0    0 -0.24450949608E+03  0.41368396414E+03  0.15625570649E+03  0.51428835049E+03  0.95694021609E+02 0.  0.
          1    1    3    3  502    0  0.63209772834E+01 -0.46457124735E+01  0.38918627050E+01  0.87569397347E+01  0.00000000000E+00 0. -1.
         -1    1    3    3    0  502 -0.25897424186E+03 -0.53167293514E+03  0.69120445185E+03  0.90967431653E+03  0.00000000000E+00 0.  1.
         13    1    5    5    0    0  0.47892430107E+03  0.10831365381E+03 -0.19075271325E+03  0.52677028330E+03  0.00000000000E+00 0.  1.
        -13    1    5    5    0    0  0.18238459592E+02  0.14321029659E+02  0.75948563177E+01  0.24401129918E+02  0.00000000000E+00 0. -1.
          1    1    6    6  503    0 -0.59281650477E+02  0.85910193232E+02  0.76584009678E+02  0.12946036429E+03  0.00000000000E+00 0. -1.
         -1    1    6    6    0  503 -0.18522784561E+03  0.32777377091E+03  0.79671696812E+02  0.38482798620E+03  0.00000000000E+00 0.  1.
<mgrwt>
<rscale>  0 0.18679776E+04</rscale>
<asrwt>0</asrwt>
<pdfrwt beam="1">  1        1 0.10120745E+00 0.18679776E+04</pdfrwt>
<pdfrwt beam="2">  1       -1 0.20400655E+00 0.18679776E+04</pdfrwt>
<totfact> 0.39638200E+00</totfact>
</mgrwt>
</event>
<event>
12    3  0.4688899E-008  0.2363896E+04  0.7818608E-02  0.8453145E-01
         -2   -1    0    0    0  501 -0.00000000000E+00  0.00000000000E+00  0.41257094928E+04  0.41257094928E+04  0.00000000000E+00 0.  1.
          2   -1    0    0  501    0  0.00000000000E+00 -0.00000000000E+00 -0.33860882529E+03  0.33860882529E+03  0.00000000000E+00 0. -1.
         23    2    1    2    0    0  0.55018859219E+03  0.20210780027E+03  0.31762026309E+04  0.32310894387E+04  0.90115248674E+02 0.  0.
        254    2    1    2    0    0 -0.55018859219E+03 -0.20210780027E+03  0.61089803657E+03  0.12332288794E+04  0.89671735124E+03 0.  0.
         23    2    4    4    0    0 -0.36512668651E+03 -0.54933468582E+03  0.35222730260E+03  0.75347301177E+03  0.92581923301E+02 0.  0.
         23    2    4    4    0    0 -0.18506190569E+03  0.34722688555E+03  0.25867073398E+03  0.47975586764E+03  0.91873417991E+02 0.  0.
          1    1    3    3  502    0  0.24091531689E+01  0.10165171209E+02  0.10505602166E+03  0.10557415598E+03  0.00000000000E+00 0. -1.
         -1    1    3    3    0  502  0.54777943902E+03  0.19194262906E+03  0.30711466093E+04  0.31255152827E+04  0.00000000000E+00 0.  1.
         13    1    5    5    0    0 -0.32004649005E+03 -0.41406008091E+03  0.27005594793E+03  0.58890213228E+03  0.00000000000E+00 0.  1.
        -13    1    5    5    0    0 -0.45080196462E+02 -0.13527460492E+03  0.82171354664E+02  0.16457087949E+03  0.00000000000E+00 0. -1.
          1    1    6    6  503    0 -0.23308388498E+01  0.83826381787E+01 -0.76940023752E+01  0.11614607403E+02  0.00000000000E+00 0. -1.
         -1    1    6    6    0  503 -0.18273106684E+03  0.33884424738E+03  0.26636473635E+03  0.46814126024E+03  0.00000000000E+00 0.  1.
<mgrwt>
<rscale>  0 0.23638965E+04</rscale>
<asrwt>0</asrwt>
<pdfrwt beam="1">  1        2 0.52093668E-01 0.23638965E+04</pdfrwt>
<pdfrwt beam="2">  1       -2 0.63472450E+00 0.23638965E+04</pdfrwt>
<totfact> 0.32144525E-02</totfact>
</mgrwt>
</event>
<event>
12    3  0.4688899E-008  0.1495206E+04  0.7818608E-02  0.8887647E-01
         -2   -1    0    0    0  501 -0.00000000000E+00  0.00000000000E+00  0.16153041038E+03  0.16153041038E+03  0.00000000000E+00 0.  1.
          2   -1    0    0  501    0  0.00000000000E+00 -0.00000000000E+00 -0.34600913029E+04  0.34600913029E+04  0.00000000000E+00 0. -1.
         23    2    1    2    0    0  0.44198303474E+03  0.11675542343E+03 -0.85212005335E+03  0.97140923168E+03  0.92447164230E+02 0.  0.
        254    2    1    2    0    0 -0.44198303474E+03 -0.11675542343E+03 -0.24464408392E+04  0.26502124816E+04  0.91080875392E+03 0.  0.
         23    2    4    4    0    0 -0.54042247123E+03 -0.16449263229E+03 -0.72872813096E+03  0.92656249496E+03  0.91428085039E+02 0.  0.
         23    2    4    4    0    0  0.98439436483E+02  0.47737208856E+02 -0.17177127082E+04  0.17236499867E+04  0.91995460464E+02 0.  0.
          2    1    3    3  502    0  0.23880834264E+03  0.45581074684E+02 -0.54045950430E+03  0.59262427783E+03  0.00000000000E+00 0. -1.
         -2    1    3    3    0  502  0.20317469211E+03  0.71174348745E+02 -0.31166054904E+03  0.37878495385E+03  0.00000000000E+00 0.  1.
         13    1    5    5    0    0 -0.15999237948E+03 -0.25467776684E+02 -0.15456674767E+03  0.22391303809E+03  0.00000000000E+00 0. -1.
        -13    1    5    5    0    0 -0.38043009174E+03 -0.13902485560E+03 -0.57416138329E+03  0.70264945687E+03  0.00000000000E+00 0.  1.
          1    1    6    6  503    0 -0.66181998361E+01  0.62457918654E+01 -0.17824083884E+02  0.20012707248E+02  0.00000000000E+00 0. -1.
         -1    1    6    6    0  503  0.10505763632E+03  0.41491416991E+02 -0.16998886244E+04  0.17036372794E+04  0.00000000000E+00 0.  1.
<mgrwt>
<rscale>  0 0.14952056E+04</rscale>
<asrwt>0</asrwt>
<pdfrwt beam="1">  1        2 0.53232171E+00 0.14952056E+04</pdfrwt>
<pdfrwt beam="2">  1       -2 0.24850834E-01 0.14952056E+04</pdfrwt>
<totfact> 0.12317474E+01</totfact>
</mgrwt>
</event>
<event>
12    3  0.4688899E-008  0.2438042E+04  0.7818608E-02  0.8425397E-01
         -2   -1    0    0    0  501 -0.00000000000E+00  0.00000000000E+00  0.16018790364E+04  0.16018790364E+04  0.00000000000E+00 0.  1.
          2   -1    0    0  501    0  0.00000000000E+00 -0.00000000000E+00 -0.92766848459E+03  0.92766848459E+03  0.00000000000E+00 0. -1.
         23    2    1    2    0    0 -0.11596972056E+03  0.87779532680E+03  0.81194537882E+03  0.12049334604E+04  0.92928650015E+02 0.  0.
        254    2    1    2    0    0  0.11596972056E+03 -0.87779532680E+03 -0.13773482705E+03  0.13246140605E+04  0.97552955616E+03 0.  0.
         23    2    4    4    0    0 -0.10303507497E+03 -0.19958382821E+03 -0.47204800254E+03  0.53218616581E+03  0.99713926930E+02 0.  0.
         23    2    4    4    0    0  0.21900479553E+03 -0.67821149859E+03  0.33431317548E+03  0.79242789473E+03  0.90789491404E+02 0.  0.
          4    1    3    3  502    0  0.90708643391E+01  0.24581046767E+03  0.23124934216E+03  0.33761120367E+03  0.00000000000E+00 0. -1.
         -4    1    3    3    0  502 -0.12504058490E+03  0.63198485913E+03  0.58069603666E+03  0.86732225674E+03  0.00000000000E+00 0.  1.
         13    1    5    5    0    0 -0.69385759811E+02 -0.14215395419E+03 -0.21662131680E+03  0.26822924011E+03  0.00000000000E+00 0.  1.
        -13    1    5    5    0    0 -0.33649315155E+02 -0.57429874020E+02 -0.25542668573E+03  0.26395692570E+03  0.00000000000E+00 0. -1.
          4    1    6    6  503    0  0.22348808476E+03 -0.66498583851E+03  0.33687923075E+03  0.77822921146E+03  0.00000000000E+00 0. -1.
         -4    1    6    6    0  503 -0.44832892347E+01 -0.13225660083E+02 -0.25660552677E+01  0.14198683271E+02  0.00000000000E+00 0.  1.
<mgrwt>
<rscale>  0 0.24380424E+04</rscale>
<asrwt>0</asrwt>
<pdfrwt beam="1">  1        2 0.14271823E+00 0.24380424E+04</pdfrwt>
<pdfrwt beam="2">  1       -2 0.24644293E+00 0.24380424E+04</pdfrwt>
<totfact> 0.17017720E+00</totfact>
</mgrwt>
</event>
<event>
12    3  0.4688899E-008  0.1763636E+04  0.7818608E-02  0.8725880E-01
         -2   -1    0    0    0  501 -0.00000000000E+00  0.00000000000E+00  0.10378024320E+04  0.10378024320E+04  0.00000000000E+00 0.  1.
          2   -1    0    0  501    0  0.00000000000E+00 -0.00000000000E+00 -0.74927825362E+03  0.74927825362E+03  0.00000000000E+00 0. -1.
         23    2    1    2    0    0 -0.43750269457E+03  0.32403221955E+03  0.47785627851E+03  0.73009557490E+03  0.91035369618E+02 0.  0.
        254    2    1    2    0    0  0.43750269457E+03 -0.32403221955E+03 -0.18933210012E+03  0.10569851107E+04  0.88598272733E+03 0.  0.
         23    2    4    4    0    0  0.36934302689E+03 -0.45167650482E+03 -0.45289034004E+03  0.74397354905E+03  0.89224688640E+02 0.  0.
         23    2    4    4    0    0  0.68159667683E+02  0.12764428527E+03  0.26355823992E+03  0.31301156169E+03  0.87031534830E+02 0.  0.
          2    1    3    3  502    0 -0.76583945827E+02  0.10347980855E+03  0.10178519328E+03  0.16411397596E+03  0.00000000000E+00 0. -1.
         -2    1    3    3    0  502 -0.36091874874E+03  0.22055241100E+03  0.37607108523E+03  0.56598159894E+03  0.00000000000E+00 0.  1.
         13    1    5    5    0    0 -0.13732125533E+01  0.24362981736E+01  0.55559060191E+00  0.28513053895E+01  0.00000000000E+00 0. -1.
        -13    1    5    5    0    0  0.37071623944E+03 -0.45411280300E+03 -0.45344593064E+03  0.74112224366E+03  0.00000000000E+00 0.  1.
          1    1    6    6  503    0  0.32363887774E+02 -0.36817982001E+01  0.56582625977E+02  0.65288363682E+02  0.00000000000E+00 0. -1.
         -1    1    6    6    0  503  0.35795779909E+02  0.13132608347E+03  0.20697561395E+03  0.24772319800E+03  0.00000000000E+00 0.  1.
<mgrwt>
<rscale>  0 0.17636358E+04</rscale>
<asrwt>0</asrwt>
<pdfrwt beam="1">  1        2 0.11527358E+00 0.17636358E+04</pdfrwt>
<pdfrwt beam="2">  1       -2 0.15966191E+00 0.17636358E+04</pdfrwt>
<totfact> 0.90014247E+00</totfact>
</mgrwt>
</event>
<event>
12    3  0.4688899E-008  0.2684083E+04  0.7818608E-02  0.8340188E-01
         -2   -1    0    0    0  501 -0.00000000000E+00  0.00000000000E+00  0.12393640167E+04  0.12393640167E+04  0.00000000000E+00 0.  1.
          2   -1    0    0  501    0  0.00000000000E+00 -0.00000000000E+00 -0.14532250817E+04  0.14532250817E+04  0.00000000000E+00 0. -1.
         23    2    1    2    0    0  0.10845759091E+04 -0.27662309590E+03 -0.48484175225E+03  0.12232176990E+04  0.91459141555E+02 0.  0.
        254    2    1    2    0    0 -0.10845759091E+04  0.27662309590E+03  0.27098068728E+03  0.14693713995E+04  0.91257686633E+03 0.  0.
         23    2    4    4    0    0 -0.10377186711E+04  0.58172162799E+02  0.48203360391E+03  0.11493699391E+04  0.91928345114E+02 0.  0.
         23    2    4    4    0    0 -0.46857237988E+02  0.21845093310E+03 -0.21105291663E+03  0.32000146042E+03  0.89113355499E+02 0.  0.
          4    1    3    3  502    0  0.91246193827E+03 -0.24781817784E+03 -0.44090941989E+03  0.10432649494E+04  0.00000000000E+00 0. -1.
         -4    1    3    3    0  502  0.17211397082E+03 -0.28804918059E+02 -0.43932332353E+02  0.17995274959E+03  0.00000000000E+00 0.  1.
         13    1    5    5    0    0 -0.79264883869E+02 -0.10954302086E+02  0.59074190205E+02  0.99461944971E+02  0.00000000000E+00 0.  1.
        -13    1    5    5    0    0 -0.95845378724E+03  0.69126464885E+02  0.42295941370E+03  0.10499079941E+04  0.00000000000E+00 0. -1.
          3    1    6    6  503    0  0.19145197879E+02  0.46901797841E+02 -0.78330028611E+02  0.93284031992E+02  0.00000000000E+00 0. -1.
         -3    1    6    6    0  503 -0.66002435867E+02  0.17154913526E+03 -0.13272288802E+03  0.22671742843E+03  0.00000000000E+00 0.  1.
<mgrwt>
<rscale>  0 0.26840826E+04</rscale>
<asrwt>0</asrwt>
<pdfrwt beam="1">  1        2 0.22357309E+00 0.26840826E+04</pdfrwt>
<pdfrwt beam="2">  1       -2 0.19067139E+00 0.26840826E+04</pdfrwt>
<totfact> 0.18184398E+00</totfact>
</mgrwt>
</event>
<event>
12    3  0.4688899E-008  0.1254950E+04  0.7818608E-02  0.9066074E-01
          1   -1    0    0  501    0  0.00000000000E+00  0.00000000000E+00  0.58598759123E+03  0.58598759123E+03  0.00000000000E+00 0. -1.
         -1   -1    0    0    0  501 -0.00000000000E+00 -0.00000000000E+00 -0.67189918592E+03  0.67189918592E+03  0.00000000000E+00 0.  1.
         23    2    1    2    0    0 -0.28716219435E+03 -0.31968449016E+01 -0.32535932499E+02  0.30301451350E+03  0.91032207529E+02 0.  0.
        254    2    1    2    0    0  0.28716219435E+03  0.31968449016E+01 -0.53375662188E+02  0.95487226365E+03  0.90909830760E+03 0.  0.
         23    2    4    4    0    0  0.12460876324E+01 -0.14842485430E+03 -0.42064794432E+03  0.45532604257E+03  0.91354375238E+02 0.  0.
         23    2    4    4    0    0  0.28591610672E+03  0.15162169920E+03  0.36727228213E+03  0.49954622107E+03  0.99600893669E+02 0.  0.
          2    1    3    3  502    0 -0.27951838928E+03  0.15222631908E+02 -0.37580365225E+02  0.28244387463E+03  0.00000000000E+00 0. -1.
         -2    1    3    3    0  502 -0.76438050709E+01 -0.18419476810E+02  0.50444327261E+01  0.20570638868E+02  0.00000000000E+00 0.  1.
         13    1    5    5    0    0 -0.39138210580E+02 -0.68517323860E+02 -0.13955289511E+03  0.16031666704E+03  0.00000000000E+00 0.  1.
        -13    1    5    5    0    0  0.40384298212E+02 -0.79907530439E+02 -0.28109504921E+03  0.29500937553E+03  0.00000000000E+00 0. -1.
          1    1    6    6  503    0  0.26007149031E+02  0.43659615637E+02  0.96170594878E+02  0.10877185830E+03  0.00000000000E+00 0. -1.
         -1    1    6    6    0  503  0.25990895768E+03  0.10796208356E+03  0.27110168725E+03  0.39077436278E+03  0.00000000000E+00 0.  1.
<mgrwt>
<rscale>  0 0.12549495E+04</rscale>
<asrwt>0</asrwt>
<pdfrwt beam="1">  1        1 0.90151938E-01 0.12549495E+04</pdfrwt>
<pdfrwt beam="2">  1       -1 0.10336910E+00 0.12549495E+04</pdfrwt>
<totfact> 0.30860817E+01</totfact>
</mgrwt>
</event>
<event>
12    3  0.4688899E-008  0.2188575E+04  0.7818608E-02  0.8523199E-01
         -2   -1    0    0    0  501 -0.00000000000E+00  0.00000000000E+00  0.49095713625E+03  0.49095713625E+03  0.00000000000E+00 0.  1.
          2   -1    0    0  501    0  0.00000000000E+00 -0.00000000000E+00 -0.24390417821E+04  0.24390417821E+04  0.00000000000E+00 0. -1.
         23    2    1    2    0    0  0.18220892094E+02 -0.20581163361E+03 -0.19894776738E+04  0.20023260964E+04  0.92725145640E+02 0.  0.
        254    2    1    2    0    0 -0.18220892094E+02  0.20581163361E+03  0.41393027865E+02  0.92767282196E+03  0.90342296429E+03 0.  0.
         23    2    4    4    0    0  0.12850506192E+03  0.19719434432E+03  0.43177675511E+03  0.50018485399E+03  0.91403290625E+02 0.  0.
         23    2    4    4    0    0 -0.14672595401E+03  0.86172892970E+01 -0.39038372724E+03  0.42748796797E+03  0.93507994362E+02 0.  0.
          2    1    3    3  502    0 -0.55455960966E+01  0.80812340344E+01 -0.50538388669E+02  0.51479983574E+02  0.00000000000E+00 0.  1.
         -2    1    3    3    0  502  0.23766488190E+02 -0.21389286765E+03 -0.19389392851E+04  0.19508461129E+04  0.00000000000E+00 0. -1.
         13    1    5    5    0    0  0.57834436469E+02  0.10069895524E+03  0.30270706787E+03  0.32421701153E+03  0.00000000000E+00 0. -1.
        -13    1    5    5    0    0  0.70670625447E+02  0.96495389079E+02  0.12906968724E+03  0.17596784246E+03  0.00000000000E+00 0.  1.
          3    1    6    6  503    0 -0.14195469407E+03  0.27828505830E+02 -0.27810015211E+03  0.31347289438E+03  0.00000000000E+00 0. -1.
         -3    1    6    6    0  503 -0.47712599377E+01 -0.19211216533E+02 -0.11228357513E+03  0.11401507360E+03  0.00000000000E+00 0.  1.
<mgrwt>
<rscale>  0 0.21885749E+04</rscale>
<asrwt>0</asrwt>
<pdfrwt beam="1">  1        2 0.37523719E+00 0.21885749E+04</pdfrwt>
<pdfrwt beam="2">  1       -2 0.75531869E-01 0.21885749E+04</pdfrwt>
<totfact> 0.54297813E+00</totfact>
</mgrwt>
</event>
<event>
12    3  0.4688899E-008  0.3225279E+04  0.7818608E-02  0.8182173E-01
         -2   -1    0    0    0  501 -0.00000000000E+00  0.00000000000E+00  0.24553294174E+04  0.24553294174E+04  0.00000000000E+00 0.  1.
          2   -1    0    0  501    0  0.00000000000E+00 -0.00000000000E+00 -0.10591677864E+04  0.10591677864E+04  0.00000000000E+00 0. -1.
         23    2    1    2    0    0  0.46530461454E+03 -0.10295627820E+04 -0.39942455306E+03  0.12017048583E+04  0.89703324903E+02 0.  0.
        254    2    1    2    0    0 -0.46530461454E+03  0.10295627820E+04  0.17955861841E+04  0.23127923454E+04  0.92107045454E+03 0.  0.
         23    2    4    4    0    0 -0.50216126328E+02 -0.11245685463E+03  0.14538641878E+02  0.15479813910E+03  0.92643878734E+02 0.  0.
         23    2    4    4    0    0 -0.41508848821E+03  0.11420196366E+04  0.17810475422E+04  0.21579942063E+04  0.91111708649E+02 0.  0.
          2    1    3    3  502    0  0.21887069897E+03 -0.51520944930E+03 -0.15225926132E+03  0.58011037068E+03  0.00000000000E+00 0.  1.
         -2    1    3    3    0  502  0.24643391558E+03 -0.51435333270E+03 -0.24716529175E+03  0.62159448763E+03  0.00000000000E+00 0. -1.
         13    1    5    5    0    0 -0.15533426761E+02  0.12391074485E+02 -0.11026135540E+02  0.22724474444E+02  0.00000000000E+00 0. -1.
        -13    1    5    5    0    0 -0.34682699568E+02 -0.12484792911E+03  0.25564777418E+02  0.13207366466E+03  0.00000000000E+00 0.  1.
          2    1    6    6  503    0 -0.42071929288E+02  0.21808511212E+03  0.33045963852E+03  0.39816420739E+03  0.00000000000E+00 0. -1.
         -2    1    6    6    0  503 -0.37301655893E+03  0.92393452451E+03  0.14505879037E+04  0.17598299989E+04  0.00000000000E+00 0.  1.
<mgrwt>
<rscale>  0 0.32252788E+04</rscale>
<asrwt>0</asrwt>
<pdfrwt beam="1">  1        2 0.16294889E+00 0.32252788E+04</pdfrwt>
<pdfrwt beam="2">  1       -2 0.37774299E+00 0.32252788E+04</pdfrwt>
<totfact> 0.20083791E-01</totfact>
</mgrwt>
</event>
<event>
12    3  0.4688899E-008  0.1876126E+04  0.7818608E-02  0.8666832E-01
         -1   -1    0    0    0  501 -0.00000000000E+00  0.00000000000E+00  0.20862391688E+04  0.20862391688E+04  0.00000000000E+00 0.  1.
          1   -1    0    0  501    0  0.00000000000E+00 -0.00000000000E+00 -0.42179375376E+03  0.42179375376E+03  0.00000000000E+00 0. -1.
         23    2    1    2    0    0  0.25912874159E+02 -0.18042475888E+02 -0.31211818654E+03  0.32720897418E+03  0.93010442593E+02 0.  0.
        254    2    1    2    0    0 -0.25912874159E+02  0.18042475888E+02  0.19765636016E+04  0.21808239484E+04  0.92097362329E+03 0.  0.
         23    2    4    4    0    0 -0.38843845132E+03 -0.26229337013E+02  0.15967932971E+04  0.16460213665E+04  0.89805883464E+02 0.  0.
         23    2    4    4    0    0  0.36252557717E+03  0.44271812901E+02  0.37977030456E+03  0.53480258197E+03  0.91670769276E+02 0.  0.
          1    1    3    3  502    0  0.18799957055E+02 -0.30949469553E+02 -0.31024735726E+03  0.31235353486E+03  0.00000000000E+00 0. -1.
         -1    1    3    3    0  502  0.71129171041E+01  0.12906993665E+02 -0.18708292768E+01  0.14855439320E+02  0.00000000000E+00 0.  1.
         13    1    5    5    0    0 -0.21896950774E+03 -0.53556977990E+02  0.99561110510E+03  0.10208121609E+04  0.00000000000E+00 0. -1.
        -13    1    5    5    0    0 -0.16946894358E+03  0.27327640977E+02  0.60118219196E+03  0.62520920557E+03  0.00000000000E+00 0.  1.
          2    1    6    6  503    0  0.15194869719E+03  0.43368363750E+02  0.10980821034E+03  0.19242417886E+03  0.00000000000E+00 0. -1.
         -2    1    6    6    0  503  0.21057687997E+03  0.90344915090E+00  0.26996209422E+03  0.34237840311E+03  0.00000000000E+00 0.  1.
<mgrwt>
<rscale>  0 0.18761265E+04</rscale>
<asrwt>0</asrwt>
<pdfrwt beam="1">  1        1 0.64891348E-01 0.18761265E+04</pdfrwt>
<pdfrwt beam="2">  1       -1 0.32095987E+00 0.18761265E+04</pdfrwt>
<totfact> 0.12656925E+00</totfact>
</mgrwt>
</event>
<event>
12    3  0.4688899E-008  0.1628176E+04  0.7818608E-02  0.8803423E-01
          2   -1    0    0  501    0  0.00000000000E+00  0.00000000000E+00  0.19008316520E+04  0.19008316520E+04  0.00000000000E+00 0. -1.
         -2   -1    0    0    0  501 -0.00000000000E+00 -0.00000000000E+00 -0.34865768667E+03  0.34865768667E+03  0.00000000000E+00 0.  1.
         23    2    1    2    0    0 -0.36301010846E+03  0.32963971361E+03  0.92980206135E+03  0.10562511691E+04  0.10342136780E+03 0.  0.
        254    2    1    2    0    0  0.36301010846E+03 -0.32963971361E+03  0.62237190402E+03  0.11932381696E+04  0.89220617731E+03 0.  0.
         23    2    4    4    0    0  0.20772704230E+02 -0.47031988617E+03  0.65445025737E+03  0.81091422456E+03  0.87432486300E+02 0.  0.
         23    2    4    4    0    0  0.34223740423E+03  0.14068017257E+03 -0.32078353343E+02  0.38232394503E+03  0.90693033832E+02 0.  0.
          2    1    3    3  502    0 -0.68611333876E+02  0.67792977008E+02  0.28202464037E+03  0.29806257840E+03  0.00000000000E+00 0. -1.
         -2    1    3    3    0  502 -0.29439877458E+03  0.26184673660E+03  0.64777742099E+03  0.75818859071E+03  0.00000000000E+00 0.  1.
         13    1    5    5    0    0 -0.23718607521E+02 -0.29812957537E+03  0.37472471644E+03  0.47943970337E+03  0.00000000000E+00 0. -1.
        -13    1    5    5    0    0  0.44491311751E+02 -0.17219031080E+03  0.27972554092E+03  0.33147452119E+03  0.00000000000E+00 0.  1.
          3    1    6    6  503    0  0.49082828544E+02  0.49618365417E+02  0.16015370361E+02  0.71607250557E+02  0.00000000000E+00 0. -1.
         -3    1    6    6    0  503  0.29315457569E+03  0.91061807149E+02 -0.48093723704E+02  0.31071669448E+03  0.00000000000E+00 0.  1.
<mgrwt>
<rscale>  0 0.16281764E+04</rscale>
<asrwt>0</asrwt>
<pdfrwt beam="1">  1        2 0.29243563E+00 0.16281764E+04</pdfrwt>
<pdfrwt beam="2">  1       -2 0.53639645E-01 0.16281764E+04</pdfrwt>
<totfact> 0.23770895E+01</totfact>
</mgrwt>
</event>
<event>
12    3  0.4688899E-008  0.2269435E+04  0.7818608E-02  0.8490071E-01
         -2   -1    0    0    0  501 -0.00000000000E+00  0.00000000000E+00  0.71593230472E+03  0.71593230472E+03  0.00000000000E+00 0.  1.
          2   -1    0    0  501    0  0.00000000000E+00 -0.00000000000E+00 -0.17984715649E+04  0.17984715649E+04  0.00000000000E+00 0. -1.
         23    2    1    2    0    0 -0.21389820317E+03  0.82391864523E+03  0.20755329496E+02  0.85641406714E+03  0.91759988091E+02 0.  0.
        254    2    1    2    0    0  0.21389820317E+03 -0.82391864523E+03 -0.11032945897E+04  0.16579898025E+04  0.89837456454E+03 0.  0.
         23    2    4    4    0    0  0.23581378071E+03 -0.79728743103E+03 -0.12366983526E+04  0.14936416123E+04  0.10132652133E+03 0.  0.
         23    2    4    4    0    0 -0.21915577536E+02 -0.26631214197E+02  0.13340376295E+03  0.16434819012E+03  0.89578175445E+02 0.  0.
          2    1    3    3  502    0 -0.99710610052E+02  0.55120720313E+03  0.25341329767E+02  0.56072610920E+03  0.00000000000E+00 0.  1.
         -2    1    3    3    0  502 -0.11418759312E+03  0.27271144210E+03 -0.45860002711E+01  0.29568795795E+03  0.00000000000E+00 0. -1.
         13    1    5    5    0    0  0.87561428825E+02 -0.19534154482E+03 -0.25966709449E+03  0.33652982469E+03  0.00000000000E+00 0.  1.
        -13    1    5    5    0    0  0.14825235188E+03 -0.60194588622E+03 -0.97703125813E+03  0.11571117877E+04  0.00000000000E+00 0. -1.
          3    1    6    6  503    0 -0.51452954224E+02 -0.11423577802E+02  0.11468249803E+03  0.12621402451E+03  0.00000000000E+00 0. -1.
         -3    1    6    6    0  503  0.29537376687E+02 -0.15207636395E+02  0.18721264923E+02  0.38134165608E+02  0.00000000000E+00 0.  1.
<mgrwt>
<rscale>  0 0.22694351E+04</rscale>
<asrwt>0</asrwt>
<pdfrwt beam="1">  1        2 0.27668793E+00 0.22694351E+04</pdfrwt>
<pdfrwt beam="2">  1       -2 0.11014343E+00 0.22694351E+04</pdfrwt>
<totfact> 0.51466853E+00</totfact>
</mgrwt>
</event>
<event>
12    3  0.4688899E-008  0.2303530E+04  0.7818608E-02  0.8476530E-01
         -2   -1    0    0    0  501 -0.00000000000E+00  0.00000000000E+00  0.12465392099E+04  0.12465392099E+04  0.00000000000E+00 0.  1.
          2   -1    0    0  501    0  0.00000000000E+00 -0.00000000000E+00 -0.10641968688E+04  0.10641968688E+04  0.00000000000E+00 0. -1.
         23    2    1    2    0    0  0.66877826475E+03 -0.16439199605E+03 -0.60980280672E+03  0.92446593135E+03  0.92134137959E+02 0.  0.
        254    2    1    2    0    0 -0.66877826475E+03  0.16439199605E+03  0.79214514783E+03  0.13862701473E+04  0.90551747101E+03 0.  0.
         23    2    4    4    0    0 -0.11843557842E+03  0.26271143003E+02  0.79722621530E+03  0.81132945543E+03  0.89267506394E+02 0.  0.
         23    2    4    4    0    0 -0.55034268633E+03  0.13812085305E+03 -0.50810674662E+01  0.57494069187E+03  0.92609607926E+02 0.  0.
          3    1    3    3  502    0  0.57023459427E+03 -0.15999811644E+03 -0.48575744597E+03  0.76598119173E+03  0.00000000000E+00 0. -1.
         -3    1    3    3    0  502  0.98543670484E+02 -0.43938796089E+01 -0.12404536075E+03  0.15848473962E+03  0.00000000000E+00 0.  1.
         13    1    5    5    0    0 -0.10125241059E+03  0.54826501098E+02  0.66937199161E+03  0.67920310587E+03  0.00000000000E+00 0. -1.
        -13    1    5    5    0    0 -0.17183167837E+02 -0.28555358096E+02  0.12785422369E+03  0.13212634956E+03  0.00000000000E+00 0.  1.
          4    1    6    6  503    0 -0.16981771036E+03  0.87487967019E+02 -0.82543319794E-01  0.19102933266E+03  0.00000000000E+00 0.  1.
         -4    1    6    6    0  503 -0.38052497597E+03  0.50632886032E+02 -0.49985241465E+01  0.38391135921E+03  0.00000000000E+00 0. -1.
<mgrwt>
<rscale>  0 0.23035304E+04</rscale>
<asrwt>0</asrwt>
<pdfrwt beam="1">  1        2 0.16372260E+00 0.23035304E+04</pdfrwt>
<pdfrwt beam="2">  1       -2 0.19177526E+00 0.23035304E+04</pdfrwt>
<totfact> 0.31341832E+00</totfact>
</mgrwt>
</event>
<event>
12    3  0.4688899E-008  0.1945960E+04  0.7818608E-02  0.8632311E-01
          1   -1    0    0  501    0  0.00000000000E+00  0.00000000000E+00  0.98448380333E+03  0.98448380333E+03  0.00000000000E+00 0. -1.
         -1   -1    0    0    0  501 -0.00000000000E+00 -0.00000000000E+00 -0.96161075143E+03  0.96161075143E+03  0.00000000000E+00 0.  1.
         23    2    1    2    0    0 -0.24760244024E+03  0.71181615455E+03 -0.89338276975E+02  0.76480984152E+03  0.94676077579E+02 0.  0.
        254    2    1    2    0    0  0.24760244024E+03 -0.71181615455E+03  0.11221132887E+03  0.11812847132E+04  0.90269207657E+03 0.  0.
         23    2    4    4    0    0  0.66448931562E+02 -0.88818705769E+03  0.15151320318E+03  0.90797498491E+03  0.90391440528E+02 0.  0.
         23    2    4    4    0    0  0.18115350868E+03  0.17637090315E+03 -0.39301874303E+02  0.27330972832E+03  0.96074351880E+02 0.  0.
          1    1    3    3  502    0 -0.97990397953E+02  0.24161544129E+03 -0.74469789352E+02  0.27115657670E+03  0.00000000000E+00 0. -1.
         -1    1    3    3    0  502 -0.14961204229E+03  0.47020071326E+03 -0.14868487623E+02  0.49365326482E+03  0.00000000000E+00 0.  1.
         13    1    5    5    0    0  0.79046601767E+01 -0.63206746904E+03  0.94610725066E+02  0.63915800736E+03  0.00000000000E+00 0. -1.
        -13    1    5    5    0    0  0.58544271386E+02 -0.25611958865E+03  0.56902478110E+02  0.26881697755E+03  0.00000000000E+00 0.  1.
          2    1    6    6  503    0  0.11623149109E+03  0.51178049879E+02 -0.33595794918E+00  0.12700025661E+03  0.00000000000E+00 0. -1.
         -2    1    6    6    0  503  0.64922017592E+02  0.12519285327E+03 -0.38965916354E+02  0.14630947172E+03  0.00000000000E+00 0.  1.
<mgrwt>
<rscale>  0 0.19459601E+04</rscale>
<asrwt>0</asrwt>
<pdfrwt beam="1">  1        1 0.15145905E+00 0.19459601E+04</pdfrwt>
<pdfrwt beam="2">  1       -1 0.14794011E+00 0.19459601E+04</pdfrwt>
<totfact> 0.52523667E+00</totfact>
</mgrwt>
</event>
<event>
12    3  0.4688899E-008  0.1884504E+04  0.7818608E-02  0.8662609E-01
          2   -1    0    0  501    0  0.00000000000E+00  0.00000000000E+00  0.20902010989E+04  0.20902010989E+04  0.00000000000E+00 0. -1.
         -2   -1    0    0    0  501 -0.00000000000E+00 -0.00000000000E+00 -0.42476222511E+03  0.42476222511E+03  0.00000000000E+00 0.  1.
         23    2    1    2    0    0  0.67680828353E+03 -0.15381190272E+03  0.45649918992E+03  0.83561145259E+03  0.90152289082E+02 0.  0.
        254    2    1    2    0    0 -0.67680828353E+03  0.15381190272E+03  0.12089396839E+04  0.16793518714E+04  0.93646142190E+03 0.  0.
         23    2    4    4    0    0 -0.54125419348E+03  0.17861312626E+03  0.13460557441E+04  0.14645568667E+04  0.90564886936E+02 0.  0.
         23    2    4    4    0    0 -0.13555409005E+03 -0.24801223538E+02 -0.13711606020E+03  0.21479500474E+03  0.91356817364E+02 0.  0.
          4    1    3    3  502    0  0.61732852548E+02 -0.42049268791E+02  0.52020960063E+02  0.91023438605E+02  0.00000000000E+00 0.  1.
         -4    1    3    3    0  502  0.61507543099E+03 -0.11176263393E+03  0.40447822985E+03  0.74458801399E+03  0.00000000000E+00 0. -1.
         13    1    5    5    0    0 -0.43984887894E+03  0.11247253613E+03  0.11102176718E+04  0.11994583721E+04  0.00000000000E+00 0. -1.
        -13    1    5    5    0    0 -0.10140531454E+03  0.66140590132E+02  0.23583807231E+03  0.26509849458E+03  0.00000000000E+00 0.  1.
          3    1    6    6  503    0 -0.15547572507E+02 -0.20737064389E+02 -0.75517629326E+02  0.79841500421E+02  0.00000000000E+00 0. -1.
         -3    1    6    6    0  503 -0.12000651754E+03 -0.40641591485E+01 -0.61598430874E+02  0.13495350432E+03  0.00000000000E+00 0.  1.
<mgrwt>
<rscale>  0 0.18845036E+04</rscale>
<asrwt>0</asrwt>
<pdfrwt beam="1">  1        2 0.32156939E+00 0.18845036E+04</pdfrwt>
<pdfrwt beam="2">  1       -2 0.65348036E-01 0.18845036E+04</pdfrwt>
<totfact> 0.12042605E+01</totfact>
</mgrwt>
</event>
<event>
12    3  0.4688899E-008  0.2068445E+04  0.7818608E-02  0.8575272E-01
         -2   -1    0    0    0  501 -0.00000000000E+00  0.00000000000E+00  0.55167253382E+03  0.55167253382E+03  0.00000000000E+00 0.  1.
          2   -1    0    0  501    0  0.00000000000E+00 -0.00000000000E+00 -0.19388605655E+04  0.19388605655E+04  0.00000000000E+00 0. -1.
         23    2    1    2    0    0  0.74962652936E+02 -0.84254350822E+03 -0.36360109497E+03  0.92544796821E+03  0.93537281438E+02 0.  0.
        254    2    1    2    0    0 -0.74962652936E+02  0.84254350822E+03 -0.10235869367E+04  0.15650851311E+04  0.82840949295E+03 0.  0.
         23    2    4    4    0    0 -0.43039583063E+03  0.52647468644E+03 -0.48043311476E+03  0.83757552433E+03  0.91107709443E+02 0.  0.
         23    2    4    4    0    0  0.35543317769E+03  0.31606882178E+03 -0.54315382192E+03  0.72750960675E+03  0.89565114527E+02 0.  0.
          2    1    3    3  502    0 -0.10633157254E+02 -0.56361713200E+02 -0.44805328937E+02  0.72782032461E+02  0.00000000000E+00 0. -1.
         -2    1    3    3    0  502  0.85595810190E+02 -0.78618179502E+03 -0.31879576604E+03  0.85266593575E+03  0.00000000000E+00 0.  1.
         13    1    5    5    0    0 -0.14731313111E+03  0.17068322456E+03 -0.21256057167E+03  0.30986435480E+03  0.00000000000E+00 0.  1.
        -13    1    5    5    0    0 -0.28308269952E+03  0.35579146188E+03 -0.26787254308E+03  0.52771116953E+03  0.00000000000E+00 0. -1.
          1    1    6    6  503    0  0.12213882681E+03  0.90937510952E+02 -0.23629413077E+03  0.28110930285E+03  0.00000000000E+00 0. -1.
         -1    1    6    6    0  503  0.23329435088E+03  0.22513131083E+03 -0.30685969115E+03  0.44640030390E+03  0.00000000000E+00 0.  1.
<mgrwt>
<rscale>  0 0.20684449E+04</rscale>
<asrwt>0</asrwt>
<pdfrwt beam="1">  1        2 0.29828624E+00 0.20684449E+04</pdfrwt>
<pdfrwt beam="2">  1       -2 0.84872697E-01 0.20684449E+04</pdfrwt>
<totfact> 0.80703340E+00</totfact>
</mgrwt>
</event>
<event>
12    3  0.4688899E-008  0.1320090E+04  0.7818608E-02  0.9013784E-01
          2   -1    0    0  501    0  0.00000000000E+00  0.00000000000E+00  0.15471383808E+04  0.15471383808E+04  0.00000000000E+00 0. -1.
         -2   -1    0    0    0  501 -0.00000000000E+00 -0.00000000000E+00 -0.28159031075E+03  0.28159031075E+03  0.00000000000E+00 0.  1.
         23    2    1    2    0    0 -0.32543638914E+02 -0.23755937778E+03 -0.15716515819E+01  0.25613082590E+03  0.90038788772E+02 0.  0.
        254    2    1    2    0    0  0.32543638914E+02  0.23755937778E+03  0.12671197216E+04  0.15725978656E+04  0.89998783975E+03 0.  0.
         23    2    4    4    0    0  0.63035619075E+02  0.47706109383E+03  0.12142129408E+04  0.13091802517E+04  0.89883755089E+02 0.  0.
         23    2    4    4    0    0 -0.30491980161E+02 -0.23950171606E+03  0.52906780839E+02  0.26341761392E+03  0.91098183375E+02 0.  0.
          1    1    3    3  502    0 -0.93954803503E+01 -0.87604749368E+02  0.42928879498E+02  0.98008958049E+02  0.00000000000E+00 0. -1.
         -1    1    3    3    0  502 -0.23148158564E+02 -0.14995462841E+03 -0.44500531080E+02  0.15812186785E+03  0.00000000000E+00 0.  1.
         13    1    5    5    0    0  0.43545609235E+02  0.11194410242E+03  0.23474341160E+03  0.26368953608E+03  0.00000000000E+00 0. -1.
        -13    1    5    5    0    0  0.19490009840E+02  0.36511699142E+03  0.97946952919E+03  0.10454907157E+04  0.00000000000E+00 0.  1.
          2    1    6    6  503    0 -0.25128840998E+02 -0.12869215059E+03  0.73893995180E+02  0.15051063350E+03  0.00000000000E+00 0. -1.
         -2    1    6    6    0  503 -0.53631391633E+01 -0.11080956546E+03 -0.20987214341E+02  0.11290698041E+03  0.00000000000E+00 0.  1.
<mgrwt>
<rscale>  0 0.13200897E+04</rscale>
<asrwt>0</asrwt>
<pdfrwt beam="1">  1        2 0.23802129E+00 0.13200897E+04</pdfrwt>
<pdfrwt beam="2">  1       -2 0.43321587E-01 0.13200897E+04</pdfrwt>
<totfact> 0.59028992E+01</totfact>
</mgrwt>
</event>
<event>
12    3  0.4688899E-008  0.3900186E+04  0.7818608E-02  0.8024991E-01
         -1   -1    0    0    0  501 -0.00000000000E+00  0.00000000000E+00  0.12123067432E+04  0.12123067432E+04  0.00000000000E+00 0.  1.
          1   -1    0    0  501    0  0.00000000000E+00 -0.00000000000E+00 -0.31368814889E+04  0.31368814889E+04  0.00000000000E+00 0. -1.
         23    2    1    2    0    0  0.29364657817E+03 -0.17827565914E+04 -0.49857096487E+03  0.18765691620E+04  0.92138134018E+02 0.  0.
        254    2    1    2    0    0 -0.29364657817E+03  0.17827565914E+04 -0.14260037808E+04  0.24726190701E+04  0.90327676033E+03 0.  0.
         23    2    4    4    0    0  0.11146693991E+03  0.12830843871E+04 -0.12550429207E+04  0.18007955479E+04  0.94875968738E+02 0.  0.
         23    2    4    4    0    0 -0.40511351808E+03  0.49967220429E+03 -0.17096086011E+03  0.67182352216E+03  0.91268587021E+02 0.  0.
          3    1    3    3  502    0  0.45653454532E+02 -0.48952704339E+03 -0.15856312679E+03  0.51658806539E+03  0.00000000000E+00 0. -1.
         -3    1    3    3    0  502  0.24799312363E+03 -0.12932295480E+04 -0.34000783808E+03  0.13599810966E+04  0.00000000000E+00 0.  1.
         13    1    5    5    0    0  0.34957657532E+02  0.89041833553E+03 -0.88254794898E+03  0.12541761169E+04  0.00000000000E+00 0.  1.
        -13    1    5    5    0    0  0.76509282376E+02  0.39266605159E+03 -0.37249497169E+03  0.54661943095E+03  0.00000000000E+00 0. -1.
          4    1    6    6  503    0 -0.40676001472E+03  0.48462816864E+03 -0.15859759791E+03  0.65228166422E+03  0.00000000000E+00 0.  1.
         -4    1    6    6    0  503  0.16464966445E+01  0.15044035653E+02 -0.12363262192E+02  0.19541857945E+02  0.00000000000E+00 0. -1.
<mgrwt>
<rscale>  0 0.39001859E+04</rscale>
<asrwt>0</asrwt>
<pdfrwt beam="1">  1        1 0.48259715E+00 0.39001859E+04</pdfrwt>
<pdfrwt beam="2">  1       -1 0.18650873E+00 0.39001859E+04</pdfrwt>
<totfact> 0.69863562E-02</totfact>
</mgrwt>
</event>
<event>
12    3  0.4688899E-008  0.2023268E+04  0.7818608E-02  0.8595819E-01
          1   -1    0    0  501    0  0.00000000000E+00  0.00000000000E+00  0.17380460870E+04  0.17380460870E+04  0.00000000000E+00 0. -1.
         -1   -1    0    0    0  501 -0.00000000000E+00 -0.00000000000E+00 -0.58882401217E+03  0.58882401217E+03  0.00000000000E+00 0.  1.
         23    2    1    2    0    0 -0.73708123024E+03 -0.31865596227E+03  0.56425268916E+03  0.98552848829E+03  0.89749327190E+02 0.  0.
        254    2    1    2    0    0  0.73708123024E+03  0.31865596227E+03  0.58496938567E+03  0.13413416109E+04  0.90120906158E+03 0.  0.
         23    2    4    4    0    0  0.33019651758E+03 -0.30410338818E+03  0.21671477508E+03  0.50676922223E+03  0.91329841438E+02 0.  0.
         23    2    4    4    0    0  0.40688471266E+03  0.62275935045E+03  0.36825461059E+03  0.83457238866E+03  0.86690459207E+02 0.  0.
          1    1    3    3  502    0 -0.10632867280E+03 -0.30743586919E+02  0.11349524470E+03  0.15853114951E+03  0.00000000000E+00 0. -1.
         -1    1    3    3    0  502 -0.63075255744E+03 -0.28791237535E+03  0.45075744446E+03  0.82699733877E+03  0.00000000000E+00 0.  1.
         13    1    5    5    0    0 -0.51899970734E+01 -0.12833248747E+02  0.54096418127E+01  0.14862454964E+02  0.00000000000E+00 0. -1.
        -13    1    5    5    0    0  0.33538651466E+03 -0.29127013944E+03  0.21130513327E+03  0.49190676727E+03  0.00000000000E+00 0.  1.
          3    1    6    6  503    0  0.10183738762E+03  0.22812689574E+03  0.13444410748E+03  0.28370398678E+03  0.00000000000E+00 0. -1.
         -3    1    6    6    0  503  0.30504732504E+03  0.39463245471E+03  0.23381050311E+03  0.55086840188E+03  0.00000000000E+00 0.  1.
<mgrwt>
<rscale>  0 0.20232679E+04</rscale>
<asrwt>0</asrwt>
<pdfrwt beam="1">  1        1 0.26739170E+00 0.20232679E+04</pdfrwt>
<pdfrwt beam="2">  1       -1 0.90588310E-01 0.20232679E+04</pdfrwt>
<totfact> 0.49482547E+00</totfact>
</mgrwt>
</event>
<event>
12    3  0.4688899E-008  0.1716333E+04  0.7818608E-02  0.8752104E-01
          2   -1    0    0  501    0  0.00000000000E+00  0.00000000000E+00  0.19865802788E+04  0.19865802788E+04  0.00000000000E+00 0. -1.
         -2   -1    0    0    0  501 -0.00000000000E+00 -0.00000000000E+00 -0.37071215207E+03  0.37071215207E+03  0.00000000000E+00 0.  1.
         23    2    1    2    0    0 -0.30113842719E+03 -0.20338760922E+03  0.12747046020E+04  0.13282967129E+04  0.86310273310E+02 0.  0.
        254    2    1    2    0    0  0.30113842719E+03  0.20338760922E+03  0.34116352470E+03  0.10289957179E+04  0.90021595465E+03 0.  0.
         23    2    4    4    0    0  0.43856462568E+03  0.12591141586E+03  0.57276153787E+03  0.73759985701E+03  0.88346784068E+02 0.  0.
         23    2    4    4    0    0 -0.13742619849E+03  0.77476193359E+02 -0.23159801316E+03  0.29139586092E+03  0.79908619637E+02 0.  0.
          3    1    3    3  502    0 -0.18940969790E+03 -0.17162819802E+03  0.93361644910E+03  0.96797311225E+03  0.00000000000E+00 0. -1.
         -3    1    3    3    0  502 -0.11172872930E+03 -0.31759411200E+02  0.34108815291E+03  0.36032360068E+03  0.00000000000E+00 0.  1.
         13    1    5    5    0    0  0.94845998365E+02  0.66501605091E+02  0.14958237548E+03  0.18919068143E+03  0.00000000000E+00 0.  1.
        -13    1    5    5    0    0  0.34371862732E+03  0.59409810772E+02  0.42317916238E+03  0.54840917558E+03  0.00000000000E+00 0. -1.
          3    1    6    6  503    0 -0.84212918583E+02  0.88280338364E+02 -0.17051070817E+03  0.20966433983E+03  0.00000000000E+00 0. -1.
         -3    1    6    6    0  503 -0.53213279909E+02 -0.10804145005E+02 -0.61087304995E+02  0.81731521089E+02  0.00000000000E+00 0.  1.
<mgrwt>
<rscale>  0 0.17163327E+04</rscale>
<asrwt>0</asrwt>
<pdfrwt beam="1">  1        2 0.30562773E+00 0.17163327E+04</pdfrwt>
<pdfrwt beam="2">  1       -2 0.57032640E-01 0.17163327E+04</pdfrwt>
<totfact> 0.18617396E+01</totfact>
</mgrwt>
</event>
<event>
12    3  0.4688899E-008  0.1594845E+04  0.7818608E-02  0.8823721E-01
         -2   -1    0    0    0  501 -0.00000000000E+00  0.00000000000E+00  0.11736909895E+04  0.11736909895E+04  0.00000000000E+00 0.  1.
          2   -1    0    0  501    0  0.00000000000E+00 -0.00000000000E+00 -0.54178032269E+03  0.54178032269E+03  0.00000000000E+00 0. -1.
         23    2    1    2    0    0  0.32298837756E+03 -0.34167896896E+03  0.40907352238E+03  0.63053323136E+03  0.95734002666E+02 0.  0.
        254    2    1    2    0    0 -0.32298837756E+03  0.34167896896E+03  0.22283714440E+03  0.10849380808E+04  0.95203373699E+03 0.  0.
         23    2    4    4    0    0 -0.62858896634E+03  0.31773290542E+03  0.27646096359E+02  0.71075674867E+03  0.91282864439E+02 0.  0.
         23    2    4    4    0    0  0.30560058878E+03  0.23946063540E+02  0.19519104804E+03  0.37418133213E+03  0.89145893106E+02 0.  0.
          3    1    3    3  502    0  0.96491862393E+02 -0.77768987308E+02  0.59657615343E+02  0.13754172445E+03  0.00000000000E+00 0. -1.
         -3    1    3    3    0  502  0.22649651517E+03 -0.26390998165E+03  0.34941590703E+03  0.49299150691E+03  0.00000000000E+00 0.  1.
         13    1    5    5    0    0 -0.37761790885E+03  0.21815920784E+03  0.54155291382E+02  0.43945593708E+03  0.00000000000E+00 0. -1.
        -13    1    5    5    0    0 -0.25097105749E+03  0.99573697584E+02 -0.26509195023E+02  0.27130081159E+03  0.00000000000E+00 0.  1.
          2    1    6    6  503    0  0.35197818656E+02 -0.26500481891E+02  0.30385747028E+02  0.53520609124E+02  0.00000000000E+00 0. -1.
         -2    1    6    6    0  503  0.27040277012E+03  0.50446545431E+02  0.16480530102E+03  0.32066072301E+03  0.00000000000E+00 0.  1.
<mgrwt>
<rscale>  0 0.15948450E+04</rscale>
<asrwt>0</asrwt>
<pdfrwt beam="1">  1        2 0.83350819E-01 0.15948450E+04</pdfrwt>
<pdfrwt beam="2">  1       -2 0.18056784E+00 0.15948450E+04</pdfrwt>
<totfact> 0.96511381E+00</totfact>
</mgrwt>
</event>
<event>
12    3  0.4688899E-008  0.1324549E+04  0.7818608E-02  0.9010321E-01
          2   -1    0    0  501    0  0.00000000000E+00  0.00000000000E+00  0.73989596301E+03  0.73989596301E+03  0.00000000000E+00 0. -1.
         -2   -1    0    0    0  501 -0.00000000000E+00 -0.00000000000E+00 -0.59279578609E+03  0.59279578609E+03  0.00000000000E+00 0.  1.
         23    2    1    2    0    0 -0.21529128353E+03  0.55410853959E+02  0.30564290434E+03  0.38808434693E+03  0.88154273068E+02 0.  0.
        254    2    1    2    0    0  0.21529128353E+03 -0.55410853959E+02 -0.15854272741E+03  0.94460740217E+03  0.90428239412E+03 0.  0.
         23    2    4    4    0    0  0.10802660500E+03  0.22674248835E+03 -0.44393278562E+03  0.51811227120E+03  0.91006065756E+02 0.  0.
         23    2    4    4    0    0  0.10726467853E+03 -0.28215334231E+03  0.28539005821E+03  0.42649513097E+03  0.96614655109E+02 0.  0.
          4    1    3    3  502    0 -0.20410714088E+03  0.73570414750E+02  0.26793472053E+03  0.34476273776E+03  0.00000000000E+00 0. -1.
         -4    1    3    3    0  502 -0.11184142656E+02 -0.18159560791E+02  0.37708183805E+02  0.43321609169E+02  0.00000000000E+00 0.  1.
         13    1    5    5    0    0  0.10179770921E+03  0.23461844276E+03 -0.43529600651E+03  0.50486750793E+03  0.00000000000E+00 0. -1.
        -13    1    5    5    0    0  0.62288957910E+01 -0.78759544057E+01 -0.86367791172E+01  0.13244763271E+02  0.00000000000E+00 0.  1.
          2    1    6    6  503    0  0.10459300246E+03 -0.14980992182E+03  0.18800044372E+03  0.26215811198E+03  0.00000000000E+00 0. -1.
         -2    1    6    6    0  503  0.26716760687E+01 -0.13234342049E+03  0.97389614490E+02  0.16433701899E+03  0.00000000000E+00 0.  1.
<mgrwt>
<rscale>  0 0.13245485E+04</rscale>
<asrwt>0</asrwt>
<pdfrwt beam="1">  1        2 0.11383015E+00 0.13245485E+04</pdfrwt>
<pdfrwt beam="2">  1       -2 0.91199352E-01 0.13245485E+04</pdfrwt>
<totfact> 0.38290250E+01</totfact>
</mgrwt>
</event>
<event>
12    3  0.4688899E-008  0.2856466E+04  0.7818608E-02  0.8285949E-01
         -1   -1    0    0    0  501 -0.00000000000E+00  0.00000000000E+00  0.16222292297E+04  0.16222292297E+04  0.00000000000E+00 0.  1.
          1   -1    0    0  501    0  0.00000000000E+00 -0.00000000000E+00 -0.12574358078E+04  0.12574358078E+04  0.00000000000E+00 0. -1.
         23    2    1    2    0    0 -0.20414221878E+03 -0.65161924259E+03  0.12611948158E+04  0.14370787483E+04  0.91111375249E+02 0.  0.
        254    2    1    2    0    0  0.20414221878E+03  0.65161924259E+03 -0.89640139392E+03  0.14425862892E+04  0.90068754849E+03 0.  0.
         23    2    4    4    0    0 -0.33996911767E+02 -0.20810511121E+03 -0.13449146710E+03  0.26591489465E+03  0.90328562220E+02 0.  0.
         23    2    4    4    0    0  0.23813913055E+03  0.85972435380E+03 -0.76190992682E+03  0.11766713946E+04  0.90623529995E+02 0.  0.
          2    1    3    3  502    0 -0.36527412620E+02 -0.15926556689E+03  0.38343279404E+03  0.41679788893E+03  0.00000000000E+00 0.  1.
         -2    1    3    3    0  502 -0.16761480616E+03 -0.49235367569E+03  0.87776202177E+03  0.10202808594E+04  0.00000000000E+00 0. -1.
         13    1    5    5    0    0 -0.63990064964E+02 -0.14751698835E+03 -0.83153938464E+02  0.18102642831E+03  0.00000000000E+00 0. -1.
        -13    1    5    5    0    0  0.29993153197E+02 -0.60588122859E+02 -0.51337528640E+02  0.84888466338E+02  0.00000000000E+00 0.  1.
          3    1    6    6  503    0  0.63517929668E+02  0.18208174234E+03 -0.21271744869E+03  0.28711844465E+03  0.00000000000E+00 0. -1.
         -3    1    6    6    0  503  0.17462120088E+03  0.67764261146E+03 -0.54919247812E+03  0.88955294991E+03  0.00000000000E+00 0.  1.
<mgrwt>
<rscale>  0 0.28564657E+04</rscale>
<asrwt>0</asrwt>
<pdfrwt beam="1">  1        1 0.19345166E+00 0.28564657E+04</pdfrwt>
<pdfrwt beam="2">  1       -1 0.24957373E+00 0.28564657E+04</pdfrwt>
<totfact> 0.58674407E-01</totfact>
</mgrwt>
</event>
<event>
12    3  0.4688899E-008  0.1813216E+04  0.7818608E-02  0.8699303E-01
         -1   -1    0    0    0  501 -0.00000000000E+00  0.00000000000E+00  0.15714464855E+04  0.15714464855E+04  0.00000000000E+00 0.  1.
          1   -1    0    0  501    0  0.00000000000E+00 -0.00000000000E+00 -0.52304567464E+03  0.52304567464E+03  0.00000000000E+00 0. -1.
         23    2    1    2    0    0  0.15098875837E+03 -0.50794536338E+03  0.78172582730E+03  0.94885172468E+03  0.91750907473E+02 0.  0.
        254    2    1    2    0    0 -0.15098875837E+03  0.50794536338E+03  0.26667498360E+03  0.11456404355E+04  0.98008691617E+03 0.  0.
         23    2    4    4    0    0 -0.16591807077E+03  0.58092022358E+03 -0.21564241198E+03  0.64890706892E+03  0.97885759324E+02 0.  0.
         23    2    4    4    0    0  0.14929312398E+02 -0.72974860200E+02  0.48231739559E+03  0.49673336659E+03  0.92551352261E+02 0.  0.
          4    1    3    3  502    0  0.29322522843E+02 -0.19450646634E+03  0.22887441313E+03  0.30178812565E+03  0.00000000000E+00 0. -1.
         -4    1    3    3    0  502  0.12166623553E+03 -0.31343889704E+03  0.55285141417E+03  0.64706359903E+03  0.00000000000E+00 0.  1.
         13    1    5    5    0    0 -0.64718546581E+02  0.38412383784E+03 -0.11788869640E+03  0.40698569730E+03  0.00000000000E+00 0.  1.
        -13    1    5    5    0    0 -0.10119952419E+03  0.19679638573E+03 -0.97753715580E+02  0.24192137162E+03  0.00000000000E+00 0. -1.
          1    1    6    6  503    0  0.69346378448E+01  0.19972981240E+02  0.15310601252E+03  0.15455892162E+03  0.00000000000E+00 0. -1.
         -1    1    6    6    0  503  0.79946745532E+01 -0.92947841440E+02  0.32921138307E+03  0.34217444497E+03  0.00000000000E+00 0.  1.
<mgrwt>
<rscale>  0 0.18132162E+04</rscale>
<asrwt>0</asrwt>
<pdfrwt beam="1">  1        1 0.80468566E-01 0.18132162E+04</pdfrwt>
<pdfrwt beam="2">  1       -1 0.24176100E+00 0.18132162E+04</pdfrwt>
<totfact> 0.30976214E+00</totfact>
</mgrwt>
</event>
<event>
12    3  0.4688899E-008  0.1127664E+04  0.7818608E-02  0.9178640E-01
          1   -1    0    0  501    0  0.00000000000E+00  0.00000000000E+00  0.12726850579E+04  0.12726850579E+04  0.00000000000E+00 0. -1.
         -1   -1    0    0    0  501 -0.00000000000E+00 -0.00000000000E+00 -0.24979205394E+03  0.24979205394E+03  0.00000000000E+00 0.  1.
         23    2    1    2    0    0 -0.89166906565E+02 -0.15605377801E+03  0.19818139770E+03  0.28244224534E+03  0.90522023275E+02 0.  0.
        254    2    1    2    0    0  0.89166906565E+02  0.15605377801E+03  0.82471160630E+03  0.12400348665E+04  0.90842375456E+03 0.  0.
         23    2    4    4    0    0 -0.26272625093E+03 -0.43747951560E+02  0.77253835621E+03  0.82233965672E+03  0.92130521617E+02 0.  0.
         23    2    4    4    0    0  0.35189315749E+03  0.19980172957E+03  0.52173250087E+02  0.41769520983E+03  0.89429943857E+02 0.  0.
          4    1    3    3  502    0 -0.59918116471E+02 -0.34515309354E+02  0.10823352949E+03  0.12843669322E+03  0.00000000000E+00 0. -1.
         -4    1    3    3    0  502 -0.29248790095E+02 -0.12153846865E+03  0.89947868219E+02  0.15400555211E+03  0.00000000000E+00 0.  1.
         13    1    5    5    0    0 -0.23720964322E+03 -0.12469208697E+02  0.70160186466E+03  0.74072199407E+03  0.00000000000E+00 0. -1.
        -13    1    5    5    0    0 -0.25516607707E+02 -0.31278742862E+02  0.70936491547E+02  0.81617662652E+02  0.00000000000E+00 0.  1.
          1    1    6    6  503    0  0.26942568335E+03  0.10766185289E+03  0.47080020709E+02  0.29393502984E+03  0.00000000000E+00 0. -1.
         -1    1    6    6    0  503  0.82467474147E+02  0.92139876673E+02  0.50932293786E+01  0.12376017999E+03  0.00000000000E+00 0.  1.
<mgrwt>
<rscale>  0 0.11276642E+04</rscale>
<asrwt>0</asrwt>
<pdfrwt beam="1">  1        1 0.19579770E+00 0.11276642E+04</pdfrwt>
<pdfrwt beam="2">  1       -1 0.38429547E-01 0.11276642E+04</pdfrwt>
<totfact> 0.61647094E+01</totfact>
</mgrwt>
</event>
<event>
12    3  0.4688899E-008  0.4961613E+04  0.7818608E-02  0.7834456E-01
          2   -1    0    0  501    0  0.00000000000E+00  0.00000000000E+00  0.22020952589E+04  0.22020952589E+04  0.00000000000E+00 0. -1.
         -2   -1    0    0    0  501 -0.00000000000E+00 -0.00000000000E+00 -0.27947926588E+04  0.27947926588E+04  0.00000000000E+00 0.  1.
         23    2    1    2    0    0  0.15779567765E+03  0.16863197584E+04 -0.19936885478E+04  0.26185389561E+04  0.11566518885E+03 0.  0.
        254    2    1    2    0    0 -0.15779567765E+03 -0.16863197584E+04  0.14009911479E+04  0.23783489615E+04  0.90840177397E+03 0.  0.
         23    2    4    4    0    0 -0.52075845595E+03 -0.11693461582E+04  0.93885604155E+03  0.15903533928E+04  0.95986667228E+02 0.  0.
         23    2    4    4    0    0  0.36296277830E+03 -0.51697360022E+03  0.46213510635E+03  0.78799556870E+03  0.91457520298E+02 0.  0.
          3    1    3    3  502    0  0.89327338859E+02  0.12430371609E+04 -0.13975322789E+04  0.18724895801E+04  0.00000000000E+00 0. -1.
         -3    1    3    3    0  502  0.68468338787E+02  0.44328259751E+03 -0.59615626886E+03  0.74604937610E+03  0.00000000000E+00 0.  1.
         13    1    5    5    0    0 -0.51615490778E+03 -0.11559055234E+04  0.91283107065E+03  0.15607030568E+04  0.00000000000E+00 0. -1.
        -13    1    5    5    0    0 -0.46035481724E+01 -0.13440634764E+02  0.26024970902E+02  0.29650336070E+02  0.00000000000E+00 0.  1.
          3    1    6    6  503    0  0.31880039523E+03 -0.39644061148E+03  0.38760440226E+03  0.63955924126E+03  0.00000000000E+00 0. -1.
         -3    1    6    6    0  503  0.44162383077E+02 -0.12053298874E+03  0.74530704088E+02  0.14843632744E+03  0.00000000000E+00 0.  1.
<mgrwt>
<rscale>  0 0.49616125E+04</rscale>
<asrwt>0</asrwt>
<pdfrwt beam="1">  1        2 0.33878389E+00 0.49616125E+04</pdfrwt>
<pdfrwt beam="2">  1       -2 0.42996810E+00 0.49616125E+04</pdfrwt>
<totfact> 0.17744204E-02</totfact>
</mgrwt>
</event>
<event>
12    3  0.4688899E-008  0.1878908E+04  0.7818608E-02  0.8665427E-01
          2   -1    0    0  501    0  0.00000000000E+00  0.00000000000E+00  0.12083564855E+04  0.12083564855E+04  0.00000000000E+00 0. -1.
         -2   -1    0    0    0  501 -0.00000000000E+00 -0.00000000000E+00 -0.73039223121E+03  0.73039223121E+03  0.00000000000E+00 0.  1.
         23    2    1    2    0    0 -0.27144655507E+03 -0.64746407488E+03 -0.86883011321E+01  0.70828011208E+03  0.93232344568E+02 0.  0.
        254    2    1    2    0    0  0.27144655507E+03  0.64746407488E+03  0.48665255540E+03  0.12304686046E+04  0.88562368799E+03 0.  0.
         23    2    4    4    0    0 -0.19472894419E+03 -0.10362027985E+03  0.60899775451E+02  0.24504432648E+03  0.87643683112E+02 0.  0.
         23    2    4    4    0    0  0.46617549926E+03  0.75108435473E+03  0.42575277995E+03  0.98542427813E+03  0.91368891120E+02 0.  0.
          3    1    3    3  502    0 -0.32829422537E+02 -0.35308420755E+02 -0.17251896340E+02  0.51206283673E+02  0.00000000000E+00 0. -1.
         -3    1    3    3    0  502 -0.23861713253E+03 -0.61215565413E+03  0.85635952082E+01  0.65707382841E+03  0.00000000000E+00 0.  1.
         13    1    5    5    0    0 -0.50148944392E+02 -0.59879387485E+02  0.51794534162E+02  0.93718362333E+02  0.00000000000E+00 0. -1.
        -13    1    5    5    0    0 -0.14457999980E+03 -0.43740892361E+02  0.91052412889E+01  0.15132596415E+03  0.00000000000E+00 0.  1.
          3    1    6    6  503    0  0.45344460180E+02  0.10437050996E+03  0.27256926520E+02  0.11701394558E+03  0.00000000000E+00 0. -1.
         -3    1    6    6    0  503  0.42083103908E+03  0.64671384477E+03  0.39849585343E+03  0.86841033255E+03  0.00000000000E+00 0.  1.
<mgrwt>
<rscale>  0 0.18789084E+04</rscale>
<asrwt>0</asrwt>
<pdfrwt beam="1">  1        2 0.18590100E+00 0.18789084E+04</pdfrwt>
<pdfrwt beam="2">  1       -2 0.11236804E+00 0.18789084E+04</pdfrwt>
<totfact> 0.10961280E+01</totfact>
</mgrwt>
</event>
<event>
12    3  0.4688899E-008  0.1539161E+04  0.7818608E-02  0.8858821E-01
          2   -1    0    0  501    0  0.00000000000E+00  0.00000000000E+00  0.23575512093E+04  0.23575512093E+04  0.00000000000E+00 0. -1.
         -2   -1    0    0    0  501 -0.00000000000E+00 -0.00000000000E+00 -0.25121569824E+03  0.25121569824E+03  0.00000000000E+00 0.  1.
         23    2    1    2    0    0  0.10412464766E+03 -0.32939122340E+03  0.86675665898E+02  0.36882075118E+03  0.95789118053E+02 0.  0.
        254    2    1    2    0    0 -0.10412464766E+03  0.32939122340E+03  0.20196598452E+04  0.22399461564E+04  0.90498197381E+03 0.  0.
         23    2    4    4    0    0 -0.31546970801E+03  0.19688336370E+03  0.19184372928E+04  0.19562859901E+04  0.91482419249E+02 0.  0.
         23    2    4    4    0    0  0.21134506035E+03  0.13250785970E+03  0.10122255237E+03  0.28366016628E+03  0.89398083932E+02 0.  0.
          3    1    3    3  502    0  0.11353805545E+02 -0.53165579475E+02  0.52256088148E+02  0.75406806654E+02  0.00000000000E+00 0. -1.
         -3    1    3    3    0  502  0.92770842115E+02 -0.27622564393E+03  0.34419577751E+02  0.29341394453E+03  0.00000000000E+00 0.  1.
         13    1    5    5    0    0 -0.20038016001E+03  0.92592349992E+02  0.93799881806E+03  0.96362198734E+03  0.00000000000E+00 0.  1.
        -13    1    5    5    0    0 -0.11508954799E+03  0.10429101371E+03  0.98043847473E+03  0.99266400273E+03  0.00000000000E+00 0. -1.
          3    1    6    6  503    0  0.19946300380E+03  0.13217746952E+03  0.68574136990E+02  0.24891521769E+03  0.00000000000E+00 0. -1.
         -3    1    6    6    0  503  0.11882056543E+02  0.33039018161E+00  0.32648415385E+02  0.34744948590E+02  0.00000000000E+00 0.  1.
<mgrwt>
<rscale>  0 0.15391606E+04</rscale>
<asrwt>0</asrwt>
<pdfrwt beam="1">  1        2 0.36270017E+00 0.15391606E+04</pdfrwt>
<pdfrwt beam="2">  1       -2 0.38648571E-01 0.15391606E+04</pdfrwt>
<totfact> 0.25660760E+01</totfact>
</mgrwt>
</event>
<event>
12    3  0.4688899E-008  0.2615584E+04  0.7818608E-02  0.8362927E-01
         -1   -1    0    0    0  501 -0.00000000000E+00  0.00000000000E+00  0.10542289516E+04  0.10542289516E+04  0.00000000000E+00 0.  1.
          1   -1    0    0  501    0  0.00000000000E+00 -0.00000000000E+00 -0.16223423928E+04  0.16223423928E+04  0.00000000000E+00 0. -1.
         23    2    1    2    0    0  0.21471045489E+03  0.60157246054E+03  0.72719682908E+03  0.97175382895E+03  0.86604105822E+02 0.  0.
        254    2    1    2    0    0 -0.21471045489E+03 -0.60157246054E+03 -0.12953102703E+04  0.17048175154E+04  0.90586094944E+03 0.  0.
         23    2    4    4    0    0 -0.38135171467E+03 -0.36187101078E+03 -0.20353884758E+03  0.57086017051E+03  0.89852729974E+02 0.  0.
         23    2    4    4    0    0  0.16664125977E+03 -0.23970144976E+03 -0.10917714227E+04  0.11339573449E+04  0.93103845621E+02 0.  0.
          3    1    3    3  502    0  0.10250064979E+03  0.40048641429E+03  0.44193560744E+03  0.60514695105E+03  0.00000000000E+00 0. -1.
         -3    1    3    3    0  502  0.11220980511E+03  0.20108604625E+03  0.28526122164E+03  0.36660687790E+03  0.00000000000E+00 0.  1.
         13    1    5    5    0    0 -0.24342860471E+03 -0.17209872057E+03 -0.10017607319E+03  0.31450071678E+03  0.00000000000E+00 0.  1.
        -13    1    5    5    0    0 -0.13792310995E+03 -0.18977229021E+03 -0.10336277438E+03  0.25635945373E+03  0.00000000000E+00 0. -1.
          3    1    6    6  503    0  0.60192666096E+01 -0.68717630741E+02 -0.31845204148E+03  0.32583745498E+03  0.00000000000E+00 0. -1.
         -3    1    6    6    0  503  0.16062199316E+03 -0.17098381902E+03 -0.77331938121E+03  0.80811988987E+03  0.00000000000E+00 0.  1.
<mgrwt>
<rscale>  0 0.26155843E+04</rscale>
<asrwt>0</asrwt>
<pdfrwt beam="1">  1        1 0.24959114E+00 0.26155843E+04</pdfrwt>
<pdfrwt beam="2">  1       -1 0.16218907E+00 0.26155843E+04</pdfrwt>
<totfact> 0.13328135E+00</totfact>
</mgrwt>
</event>
<event>
12    3  0.4736890E-008  0.1944963E+04  0.7818608E-02  0.8632793E-01
          1   -1    0    0  501    0  0.00000000000E+00  0.00000000000E+00  0.84286453509E+03  0.84286453509E+03  0.00000000000E+00 0. -1.
         -1   -1    0    0    0  501 -0.00000000000E+00 -0.00000000000E+00 -0.11220313219E+04  0.11220313219E+04  0.00000000000E+00 0.  1.
         23    2    1    2    0    0  0.67969208314E+03  0.20534634374E+03  0.16369781891E+03  0.73450788945E+03  0.92500891795E+02 0.  0.
        254    2    1    2    0    0 -0.67969208314E+03 -0.20534634374E+03 -0.44286460574E+03  0.12303879676E+04  0.90198505693E+03 0.  0.
         23    2    4    4    0    0 -0.31570455209E+03 -0.25336082572E+03  0.21851350562E+03  0.46880251423E+03  0.90369093103E+02 0.  0.
         23    2    4    4    0    0 -0.36398753104E+03  0.48014481979E+02 -0.66137811136E+03  0.76158545333E+03  0.88312418700E+02 0.  0.
          2    1    3    3  502    0  0.65355185164E+03  0.17824105118E+03  0.16340261387E+03  0.69685027756E+03  0.00000000000E+00 0. -1.
         -2    1    3    3    0  502  0.26140231493E+02  0.27105292564E+02  0.29520503844E+00  0.37657611893E+02  0.00000000000E+00 0.  1.
         13    1    5    5    0    0 -0.19477162275E+03 -0.20415008585E+03  0.17061644269E+03  0.32973203226E+03  0.00000000000E+00 0.  1.
        -13    1    5    5    0    0 -0.12093292935E+03 -0.49210739870E+02  0.47897062929E+02  0.13907048197E+03  0.00000000000E+00 0. -1.
          2    1    6    6  503    0 -0.35630057229E+03  0.31767750713E+02 -0.64345827188E+03  0.73620502270E+03  0.00000000000E+00 0. -1.
         -2    1    6    6    0  503 -0.76869587515E+01  0.16246731266E+02 -0.17919839480E+02  0.25380430624E+02  0.00000000000E+00 0.  1.
<mgrwt>
<rscale>  0 0.19449631E+04</rscale>
<asrwt>0</asrwt>
<pdfrwt beam="1">  1        1 0.12967147E+00 0.19449631E+04</pdfrwt>
<pdfrwt beam="2">  1       -1 0.17262020E+00 0.19449631E+04</pdfrwt>
<totfact> 0.44558863E+00</totfact>
</mgrwt>
</event>
<event>
12    3  0.4688899E-008  0.1153026E+04  0.7818608E-02  0.9154996E-01
          2   -1    0    0  501    0  0.00000000000E+00  0.00000000000E+00  0.17660502409E+04  0.17660502409E+04  0.00000000000E+00 0. -1.
         -2   -1    0    0    0  501 -0.00000000000E+00 -0.00000000000E+00 -0.18819806546E+03  0.18819806546E+03  0.00000000000E+00 0.  1.
         23    2    1    2    0    0  0.94955793636E+02  0.53259991733E+02  0.64239285536E+03  0.65790160893E+03  0.91174102357E+02 0.  0.
        254    2    1    2    0    0 -0.94955793636E+02 -0.53259991733E+02  0.93545932005E+03  0.12963466974E+04  0.89082960825E+03 0.  0.
         23    2    4    4    0    0 -0.14703199037E+03 -0.44892855189E+03  0.42630843465E+03  0.64307614817E+03  0.93020427826E+02 0.  0.
         23    2    4    4    0    0  0.52076196730E+02  0.39566856016E+03  0.50915088540E+03  0.65327054923E+03  0.90896901103E+02 0.  0.
          1    1    3    3  502    0  0.36843159302E+01  0.40888409466E+02  0.31956782568E+03  0.32219408968E+03  0.00000000000E+00 0. -1.
         -1    1    3    3    0  502  0.91271477706E+02  0.12371582267E+02  0.32282502968E+03  0.33570751925E+03  0.00000000000E+00 0.  1.
         13    1    5    5    0    0 -0.35390767207E+02 -0.48073527851E+02  0.90258284355E+02  0.10821334658E+03  0.00000000000E+00 0. -1.
        -13    1    5    5    0    0 -0.11164122316E+03 -0.40085502404E+03  0.33605015029E+03  0.53486280159E+03  0.00000000000E+00 0.  1.
          3    1    6    6  503    0  0.88490685819E+01  0.23936439677E+01  0.32723207328E+02  0.33982993453E+02  0.00000000000E+00 0. -1.
         -3    1    6    6    0  503  0.43227128148E+02  0.39327491619E+03  0.47642767807E+03  0.61928755578E+03  0.00000000000E+00 0.  1.
<mgrwt>
<rscale>  0 0.11530260E+04</rscale>
<asrwt>0</asrwt>
<pdfrwt beam="1">  1        2 0.27170003E+00 0.11530260E+04</pdfrwt>
<pdfrwt beam="2">  1       -2 0.28953550E-01 0.11530260E+04</pdfrwt>
<totfact> 0.97727998E+01</totfact>
</mgrwt>
</event>
<event>
12    3  0.4688899E-008  0.1562547E+04  0.7818608E-02  0.8843893E-01
         -2   -1    0    0    0  501 -0.00000000000E+00  0.00000000000E+00  0.22292997875E+03  0.22292997875E+03  0.00000000000E+00 0.  1.
          2   -1    0    0  501    0  0.00000000000E+00 -0.00000000000E+00 -0.27380283931E+04  0.27380283931E+04  0.00000000000E+00 0. -1.
         23    2    1    2    0    0  0.34449355718E+02  0.15883556651E+03 -0.17880633370E+04  0.17977180716E+04  0.90577438743E+02 0.  0.
        254    2    1    2    0    0 -0.34449355718E+02 -0.15883556651E+03 -0.72703507727E+03  0.11632403002E+04  0.89338261521E+03 0.  0.
         23    2    4    4    0    0  0.23676923156E+03 -0.21726061033E+02  0.10322613729E+03  0.27449907311E+03  0.90346084439E+02 0.  0.
         23    2    4    4    0    0 -0.27121858728E+03 -0.13710950548E+03 -0.83026121457E+03  0.88874122711E+03  0.90381114014E+02 0.  0.
          3    1    3    3  502    0  0.28384353385E+02  0.12361704267E+03 -0.16577011338E+04  0.16625462080E+04  0.00000000000E+00 0. -1.
         -3    1    3    3    0  502  0.60650023329E+01  0.35218523844E+02 -0.13036220324E+03  0.13517186360E+03  0.00000000000E+00 0.  1.
         13    1    5    5    0    0  0.17952215042E+03 -0.33322651957E+02  0.11378724200E+03  0.21514213456E+03  0.00000000000E+00 0.  1.
        -13    1    5    5    0    0  0.57247081145E+02  0.11596590924E+02 -0.10561104701E+02  0.59356938543E+02  0.00000000000E+00 0. -1.
          1    1    6    6  503    0 -0.49817195831E+02 -0.67977567474E+00 -0.21647012129E+03  0.22212953092E+03  0.00000000000E+00 0. -1.
         -1    1    6    6    0  503 -0.22140139145E+03 -0.13642972980E+03 -0.61379109328E+03  0.66661169619E+03  0.00000000000E+00 0.  1.
<mgrwt>
<rscale>  0 0.15625474E+04</rscale>
<asrwt>0</asrwt>
<pdfrwt beam="1">  1        2 0.42123513E+00 0.15625474E+04</pdfrwt>
<pdfrwt beam="2">  1       -2 0.34296920E-01 0.15625474E+04</pdfrwt>
<totfact> 0.19378643E+01</totfact>
</mgrwt>
</event>
<event>
12    3  0.4688899E-008  0.2981224E+04  0.7818608E-02  0.8249113E-01
          2   -1    0    0  501    0  0.00000000000E+00  0.00000000000E+00  0.10050382981E+04  0.10050382981E+04  0.00000000000E+00 0. -1.
         -2   -1    0    0    0  501 -0.00000000000E+00 -0.00000000000E+00 -0.22107857715E+04  0.22107857715E+04  0.00000000000E+00 0.  1.
         23    2    1    2    0    0  0.10150849739E+04  0.89126667671E+03 -0.67420446170E+03  0.15124892369E+04  0.91204398770E+02 0.  0.
        254    2    1    2    0    0 -0.10150849739E+04 -0.89126667671E+03 -0.53154301175E+03  0.17033348327E+04  0.89109920091E+03 0.  0.
         23    2    4    4    0    0  0.12668401389E+03 -0.74024264407E+02 -0.18751732900E+03  0.25464552034E+03  0.90294857322E+02 0.  0.
         23    2    4    4    0    0 -0.11417689878E+04 -0.81724241230E+03 -0.34402568274E+03  0.14486893124E+04  0.93943980919E+02 0.  0.
          3    1    3    3  502    0  0.62905641619E+03  0.58438637441E+03 -0.38694760179E+03  0.94177909080E+03  0.00000000000E+00 0. -1.
         -3    1    3    3    0  502  0.38602855770E+03  0.30688030230E+03 -0.28725685991E+03  0.57071014610E+03  0.00000000000E+00 0.  1.
         13    1    5    5    0    0  0.74947627132E+02 -0.66719520959E+02 -0.17369991559E+03  0.20059985535E+03  0.00000000000E+00 0. -1.
        -13    1    5    5    0    0  0.51736386758E+02 -0.73047434479E+01 -0.13817413415E+02  0.54045664999E+02  0.00000000000E+00 0.  1.
          1    1    6    6  503    0 -0.82478826071E+03 -0.58608380247E+03 -0.29083858860E+03  0.10527853452E+04  0.00000000000E+00 0. -1.
         -1    1    6    6    0  503 -0.31698072706E+03 -0.23115860983E+03 -0.53187094147E+02  0.39590396716E+03  0.00000000000E+00 0.  1.
<mgrwt>
<rscale>  0 0.29812242E+04</rscale>
<asrwt>0</asrwt>
<pdfrwt beam="1">  1        2 0.15462128E+00 0.29812242E+04</pdfrwt>
<pdfrwt beam="2">  1       -2 0.34012089E+00 0.29812242E+04</pdfrwt>
<totfact> 0.38466600E-01</totfact>
</mgrwt>
</event>
<event>
12    3  0.4688899E-008  0.2500935E+04  0.7818608E-02  0.8402652E-01
         -1   -1    0    0    0  501 -0.00000000000E+00  0.00000000000E+00  0.17495326051E+04  0.17495326051E+04  0.00000000000E+00 0.  1.
          1   -1    0    0  501    0  0.00000000000E+00 -0.00000000000E+00 -0.89376399043E+03  0.89376399043E+03  0.00000000000E+00 0. -1.
         23    2    1    2    0    0 -0.50398849810E+03 -0.31706069715E+03  0.13330210154E+04  0.14629015925E+04  0.92758557029E+02 0.  0.
        254    2    1    2    0    0  0.50398849810E+03  0.31706069715E+03 -0.47725240078E+03  0.11803950030E+04  0.90057238308E+03 0.  0.
         23    2    4    4    0    0  0.38462462984E+03  0.11576868339E+03  0.19807315417E+03  0.45950059827E+03  0.10280725397E+03 0.  0.
         23    2    4    4    0    0  0.11936386826E+03  0.20129201376E+03 -0.67532555495E+03  0.72089440473E+03  0.94116575340E+02 0.  0.
          1    1    3    3  502    0 -0.77581386202E+01  0.27518402120E+01  0.51501963634E+01  0.97100907300E+01  0.00000000000E+00 0. -1.
         -1    1    3    3    0  502 -0.49623035948E+03 -0.31981253737E+03  0.13278708191E+04  0.14531915018E+04  0.00000000000E+00 0.  1.
         13    1    5    5    0    0  0.25345976860E+03  0.10196585340E+03  0.17805251684E+03  0.32610058005E+03  0.00000000000E+00 0. -1.
        -13    1    5    5    0    0  0.13116486125E+03  0.13802829992E+02  0.20020637336E+02  0.13340001822E+03  0.00000000000E+00 0.  1.
          1    1    6    6  503    0  0.63778037295E+02  0.13704136067E+03 -0.54297476308E+03  0.56362182881E+03  0.00000000000E+00 0. -1.
         -1    1    6    6    0  503  0.55585830963E+02  0.64250653089E+02 -0.13235079187E+03  0.15727257592E+03  0.00000000000E+00 0.  1.
<mgrwt>
<rscale>  0 0.25009352E+04</rscale>
<asrwt>0</asrwt>
<pdfrwt beam="1">  1        1 0.13750215E+00 0.25009352E+04</pdfrwt>
<pdfrwt beam="2">  1       -1 0.26915886E+00 0.25009352E+04</pdfrwt>
<totfact> 0.85580551E-01</totfact>
</mgrwt>
</event>
<event>
12    3  0.4688899E-008  0.1859465E+04  0.7818608E-02  0.8675301E-01
         -2   -1    0    0    0  501 -0.00000000000E+00  0.00000000000E+00  0.43545190507E+03  0.43545190507E+03  0.00000000000E+00 0.  1.
          2   -1    0    0  501    0  0.00000000000E+00 -0.00000000000E+00 -0.19850696650E+04  0.19850696650E+04  0.00000000000E+00 0. -1.
         23    2    1    2    0    0 -0.39430757112E+02 -0.67882031044E+03 -0.82548990140E+03  0.10728351226E+04  0.84792832589E+02 0.  0.
        254    2    1    2    0    0  0.39430757112E+02  0.67882031044E+03 -0.72412785852E+03  0.13476864475E+04  0.91079405288E+03 0.  0.
         23    2    4    4    0    0  0.71867759234E+02  0.27721799038E+03 -0.86104697660E+03  0.91207522354E+03  0.92002872096E+02 0.  0.
         23    2    4    4    0    0 -0.32437002122E+02  0.40160232006E+03  0.13691911808E+03  0.43561122394E+03  0.93132759799E+02 0.  0.
          1    1    3    3  502    0 -0.86247998642E+01 -0.58730355081E+03 -0.68475475986E+03  0.90215792915E+03  0.00000000000E+00 0. -1.
         -1    1    3    3    0  502 -0.30805957248E+02 -0.91516759623E+02 -0.14073514154E+03  0.17067719343E+03  0.00000000000E+00 0.  1.
         13    1    5    5    0    0  0.43720021439E+02  0.14429122881E+03 -0.31276350015E+03  0.34720657541E+03  0.00000000000E+00 0. -1.
        -13    1    5    5    0    0  0.28147737795E+02  0.13292676157E+03 -0.54828347645E+03  0.56486864813E+03  0.00000000000E+00 0.  1.
          3    1    6    6  503    0 -0.25513539899E+02  0.25248886190E+03  0.13247452928E+03  0.28627096781E+03  0.00000000000E+00 0. -1.
         -3    1    6    6    0  503 -0.69234622227E+01  0.14911345815E+03  0.44445887953E+01  0.14934025613E+03  0.00000000000E+00 0.  1.
<mgrwt>
<rscale>  0 0.18594648E+04</rscale>
<asrwt>0</asrwt>
<pdfrwt beam="1">  1        2 0.30539533E+00 0.18594648E+04</pdfrwt>
<pdfrwt beam="2">  1       -2 0.66992601E-01 0.18594648E+04</pdfrwt>
<totfact> 0.13087247E+01</totfact>
</mgrwt>
</event>
<event>
12    3  0.4688899E-008  0.2997118E+04  0.7818608E-02  0.8244554E-01
          2   -1    0    0  501    0  0.00000000000E+00  0.00000000000E+00  0.24628496287E+04  0.24628496287E+04  0.00000000000E+00 0. -1.
         -2   -1    0    0    0  501 -0.00000000000E+00 -0.00000000000E+00 -0.91182157269E+03  0.91182157269E+03  0.00000000000E+00 0.  1.
         23    2    1    2    0    0  0.93230057737E+03 -0.45388030682E+03 -0.29303945162E+03  0.10810519659E+04  0.87232639441E+02 0.  0.
        254    2    1    2    0    0 -0.93230057737E+03  0.45388030682E+03  0.18440675076E+04  0.22936192355E+04  0.88595289097E+03 0.  0.
         23    2    4    4    0    0 -0.10665740980E+04  0.34250798589E+03  0.17380062077E+04  0.20696972951E+04  0.89940472074E+02 0.  0.
         23    2    4    4    0    0  0.13427352065E+03  0.11137232092E+03  0.10606129993E+03  0.22392194031E+03  0.91972081595E+02 0.  0.
          3    1    3    3  502    0  0.18724664863E+03 -0.56185449222E+02 -0.41670637125E+02  0.19988635303E+03  0.00000000000E+00 0. -1.
         -3    1    3    3    0  502  0.74505392874E+03 -0.39769485760E+03 -0.25136881450E+03  0.88116561292E+03  0.00000000000E+00 0.  1.
         13    1    5    5    0    0 -0.97291078707E+03  0.30864789072E+03  0.15320317926E+04  0.18409074755E+04  0.00000000000E+00 0.  1.
        -13    1    5    5    0    0 -0.93663310959E+02  0.33860095170E+02  0.20597441515E+03  0.22878981962E+03  0.00000000000E+00 0. -1.
          3    1    6    6  503    0  0.79732969916E+02  0.10338265033E+03  0.10698262708E+03  0.16879159155E+03  0.00000000000E+00 0. -1.
         -3    1    6    6    0  503  0.54540550736E+02  0.79896705971E+01 -0.92132715019E+00  0.55130348761E+02  0.00000000000E+00 0.  1.
<mgrwt>
<rscale>  0 0.29971182E+04</rscale>
<asrwt>0</asrwt>
<pdfrwt beam="1">  1        2 0.37889994E+00 0.29971182E+04</pdfrwt>
<pdfrwt beam="2">  1       -2 0.14028024E+00 0.29971182E+04</pdfrwt>
<totfact> 0.11188086E+00</totfact>
</mgrwt>
</event>
<event>
12    3  0.4688899E-008  0.1234680E+04  0.7818608E-02  0.9083031E-01
          1   -1    0    0  501    0  0.00000000000E+00  0.00000000000E+00  0.53577617573E+03  0.53577617573E+03  0.00000000000E+00 0. -1.
         -1   -1    0    0    0  501 -0.00000000000E+00 -0.00000000000E+00 -0.71132119723E+03  0.71132119723E+03  0.00000000000E+00 0.  1.
         23    2    1    2    0    0  0.18148781870E+03 -0.20951612093E+03 -0.29448768957E+01  0.29224252471E+03  0.92532090020E+02 0.  0.
        254    2    1    2    0    0 -0.18148781870E+03  0.20951612093E+03 -0.17260014461E+03  0.95485484825E+03  0.89728598454E+03 0.  0.
         23    2    4    4    0    0 -0.35670273726E+03 -0.22490858661E+03  0.36725388618E+02  0.43285728501E+03  0.90531541024E+02 0.  0.
         23    2    4    4    0    0  0.17521491856E+03  0.43442470754E+03 -0.20932553323E+03  0.52199756324E+03  0.96120668732E+02 0.  0.
          3    1    3    3  502    0  0.13783514818E+03 -0.19915074699E+03  0.17722301095E+02  0.24284486417E+03  0.00000000000E+00 0. -1.
         -3    1    3    3    0  502  0.43652670522E+02 -0.10365373944E+02 -0.20667177991E+02  0.49397660540E+02  0.00000000000E+00 0.  1.
         13    1    5    5    0    0 -0.33501475396E+03 -0.20216435947E+03  0.57059798030E+02  0.39542525736E+03  0.00000000000E+00 0.  1.
        -13    1    5    5    0    0 -0.21687983306E+02 -0.22744227143E+02 -0.20334409412E+02  0.37432027655E+02  0.00000000000E+00 0. -1.
          4    1    6    6  503    0  0.25557269526E+02  0.16860375305E+03 -0.10148339262E+03  0.19844212896E+03  0.00000000000E+00 0. -1.
         -4    1    6    6    0  503  0.14965764904E+03  0.26582095449E+03 -0.10784214061E+03  0.32355543428E+03  0.00000000000E+00 0.  1.
<mgrwt>
<rscale>  0 0.12346804E+04</rscale>
<asrwt>0</asrwt>
<pdfrwt beam="1">  1        1 0.82427104E-01 0.12346804E+04</pdfrwt>
<pdfrwt beam="2">  1       -1 0.10943403E+00 0.12346804E+04</pdfrwt>
<totfact> 0.30715367E+01</totfact>
</mgrwt>
</event>
<event>
12    3  0.4688899E-008  0.2339021E+04  0.7818608E-02  0.8462693E-01
          2   -1    0    0  501    0  0.00000000000E+00  0.00000000000E+00  0.39948519801E+04  0.39948519801E+04  0.00000000000E+00 0. -1.
         -2   -1    0    0    0  501 -0.00000000000E+00 -0.00000000000E+00 -0.34237946319E+03  0.34237946319E+03  0.00000000000E+00 0.  1.
         23    2    1    2    0    0  0.20898085969E+03  0.43418173187E+03 -0.52293236998E+02  0.49319270477E+03  0.91201345357E+02 0.  0.
        254    2    1    2    0    0 -0.20898085969E+03 -0.43418173187E+03  0.37047657539E+04  0.38440387386E+04  0.90507334282E+03 0.  0.
         23    2    4    4    0    0  0.73341162107E+02 -0.63305188216E+03  0.19575909431E+04  0.20607495588E+04  0.91612400367E+02 0.  0.
         23    2    4    4    0    0 -0.28232202179E+03  0.19887015029E+03  0.17471748108E+04  0.17832891797E+04  0.90804286310E+02 0.  0.
          2    1    3    3  502    0  0.15960574086E+03  0.35730428277E+03 -0.74231617369E+01  0.39140189873E+03  0.00000000000E+00 0.  1.
         -2    1    3    3    0  502  0.49375118832E+02  0.76877449102E+02 -0.44870075261E+02  0.10179080604E+03  0.00000000000E+00 0. -1.
         13    1    5    5    0    0  0.11898971154E+02 -0.41165322425E+03  0.13370846083E+04  0.13990694094E+04  0.00000000000E+00 0. -1.
        -13    1    5    5    0    0  0.61442190953E+02 -0.22139865791E+03  0.62050633487E+03  0.66168014944E+03  0.00000000000E+00 0.  1.
          1    1    6    6  503    0 -0.32231053689E+02  0.64333147856E+02  0.29935671669E+03  0.30788315732E+03  0.00000000000E+00 0. -1.
         -1    1    6    6    0  503 -0.25009096811E+03  0.13453700243E+03  0.14478180941E+04  0.14754060224E+04  0.00000000000E+00 0.  1.
<mgrwt>
<rscale>  0 0.23390214E+04</rscale>
<asrwt>0</asrwt>
<pdfrwt beam="1">  1        2 0.61459258E+00 0.23390214E+04</pdfrwt>
<pdfrwt beam="2">  1       -2 0.52673766E-01 0.23390214E+04</pdfrwt>
<totfact> 0.10670989E+00</totfact>
</mgrwt>
</event>
<event>
12    3  0.4688899E-008  0.2005304E+04  0.7818608E-02  0.8604145E-01
          2   -1    0    0  501    0  0.00000000000E+00  0.00000000000E+00  0.10704668413E+04  0.10704668413E+04  0.00000000000E+00 0. -1.
         -2   -1    0    0    0  501 -0.00000000000E+00 -0.00000000000E+00 -0.93913313401E+03  0.93913313401E+03  0.00000000000E+00 0.  1.
         23    2    1    2    0    0 -0.59687980721E+03 -0.47713635342E+03 -0.17030133866E+03  0.78812451189E+03  0.90626134639E+02 0.  0.
        254    2    1    2    0    0  0.59687980721E+03  0.47713635342E+03  0.30163504600E+03  0.12214754635E+04  0.90393252118E+03 0.  0.
         23    2    4    4    0    0  0.79042632993E+03  0.41387177744E+03  0.72715605818E+02  0.89987597414E+03  0.91790948829E+02 0.  0.
         23    2    4    4    0    0 -0.19354652272E+03  0.63264575988E+02  0.22891944018E+03  0.32159948932E+03  0.97772482881E+02 0.  0.
          1    1    3    3  502    0 -0.58302866577E+03 -0.46201518691E+03 -0.18011650737E+03  0.76539036724E+03  0.00000000000E+00 0. -1.
         -1    1    3    3    0  502 -0.13851141446E+02 -0.15121166517E+02  0.98151687113E+01  0.22734144651E+02  0.00000000000E+00 0.  1.
         13    1    5    5    0    0  0.71624533346E+03  0.34297789106E+03  0.70346186987E+02  0.79723885849E+03  0.00000000000E+00 0.  1.
        -13    1    5    5    0    0  0.74180996478E+02  0.70893886372E+02  0.23694188313E+01  0.10263711565E+03  0.00000000000E+00 0. -1.
          4    1    6    6  503    0 -0.62079677068E+02 -0.17903811770E+02  0.10610618107E+03  0.12422944274E+03  0.00000000000E+00 0. -1.
         -4    1    6    6    0  503 -0.13146684565E+03  0.81168387758E+02  0.12281325910E+03  0.19737004659E+03  0.00000000000E+00 0.  1.
<mgrwt>
<rscale>  0 0.20053038E+04</rscale>
<asrwt>0</asrwt>
<pdfrwt beam="1">  1        2 0.16468721E+00 0.20053038E+04</pdfrwt>
<pdfrwt beam="2">  1       -2 0.14448202E+00 0.20053038E+04</pdfrwt>
<totfact> 0.69809575E+00</totfact>
</mgrwt>
</event>
<event>
12    3  0.4688899E-008  0.1434035E+04  0.7818608E-02  0.8929544E-01
          1   -1    0    0  501    0  0.00000000000E+00  0.00000000000E+00  0.98799405170E+03  0.98799405170E+03  0.00000000000E+00 0. -1.
         -1   -1    0    0    0  501 -0.00000000000E+00 -0.00000000000E+00 -0.52036167699E+03  0.52036167699E+03  0.00000000000E+00 0.  1.
         23    2    1    2    0    0  0.62083247893E+02 -0.11897887123E+03  0.56592203213E+03  0.58954299088E+03  0.96347756460E+02 0.  0.
        254    2    1    2    0    0 -0.62083247893E+02  0.11897887123E+03 -0.98289657420E+02  0.91881273781E+03  0.90362917667E+03 0.  0.
         23    2    4    4    0    0 -0.45799873968E+03  0.14881084929E+03 -0.13950833331E+03  0.50957710259E+03  0.91097387435E+02 0.  0.
         23    2    4    4    0    0  0.39591549179E+03 -0.29831978062E+02  0.41218675893E+02  0.40923563522E+03  0.90198682565E+02 0.  0.
          4    1    3    3  502    0  0.52569275290E+02 -0.10060157242E+03  0.55431241868E+03  0.56581486599E+03  0.00000000000E+00 0. -1.
         -4    1    3    3    0  502  0.95139726030E+01 -0.18377298802E+02  0.11609613451E+02  0.23728124883E+02  0.00000000000E+00 0.  1.
         13    1    5    5    0    0 -0.35176821280E+03  0.14763890501E+03 -0.88003638324E+02  0.39151342527E+03  0.00000000000E+00 0. -1.
        -13    1    5    5    0    0 -0.10623052688E+03  0.11719442819E+01 -0.51504694989E+02  0.11806367731E+03  0.00000000000E+00 0.  1.
          1    1    6    6  503    0  0.27625893102E+03 -0.52595011818E+02  0.18440760103E+01  0.28122701302E+03  0.00000000000E+00 0. -1.
         -1    1    6    6    0  503  0.11965656077E+03  0.22763033756E+02  0.39374599883E+02  0.12800862220E+03  0.00000000000E+00 0.  1.
<mgrwt>
<rscale>  0 0.14340352E+04</rscale>
<asrwt>0</asrwt>
<pdfrwt beam="1">  1        1 0.15199908E+00 0.14340352E+04</pdfrwt>
<pdfrwt beam="2">  1       -1 0.80055643E-01 0.14340352E+04</pdfrwt>
<totfact> 0.23427223E+01</totfact>
</mgrwt>
</event>
<event>
12    3  0.4688899E-008  0.1208780E+04  0.7818608E-02  0.9105206E-01
         -2   -1    0    0    0  501 -0.00000000000E+00  0.00000000000E+00  0.67111409336E+03  0.67111409336E+03  0.00000000000E+00 0.  1.
          2   -1    0    0  501    0  0.00000000000E+00 -0.00000000000E+00 -0.54429945320E+03  0.54429945320E+03  0.00000000000E+00 0. -1.
         23    2    1    2    0    0 -0.95952702604E+02 -0.24056545948E+03  0.29774875350E+02  0.27630027033E+03  0.91523957249E+02 0.  0.
        254    2    1    2    0    0  0.95952702604E+02  0.24056545948E+03  0.97039764805E+02  0.93911327623E+03  0.89746218205E+03 0.  0.
         23    2    4    4    0    0  0.79920639082E+01  0.30473435105E+03  0.45433558677E+03  0.55459257656E+03  0.90692903653E+02 0.  0.
         23    2    4    4    0    0  0.87960638696E+02 -0.64168891569E+02 -0.35729582196E+03  0.38452069967E+03  0.91329860835E+02 0.  0.
          4    1    3    3  502    0 -0.22008959069E+02 -0.14015652090E+03 -0.17483820843E+02  0.14294729316E+03  0.00000000000E+00 0. -1.
         -4    1    3    3    0  502 -0.73943743535E+02 -0.10040893858E+03  0.47258696194E+02  0.13335297717E+03  0.00000000000E+00 0.  1.
         13    1    5    5    0    0  0.45178791394E+02  0.96981871630E+02  0.15218094867E+03  0.18602593302E+03  0.00000000000E+00 0. -1.
        -13    1    5    5    0    0 -0.37186727486E+02  0.20775247942E+03  0.30215463809E+03  0.36856664354E+03  0.00000000000E+00 0.  1.
          2    1    6    6  503    0 -0.11862934843E+02  0.11141878204E+02 -0.55715076943E+02  0.58043436078E+02  0.00000000000E+00 0. -1.
         -2    1    6    6    0  503  0.99823573539E+02 -0.75310769773E+02 -0.30158074502E+03  0.32647726359E+03  0.00000000000E+00 0.  1.
<mgrwt>
<rscale>  0 0.12087796E+04</rscale>
<asrwt>0</asrwt>
<pdfrwt beam="1">  1        2 0.83738378E-01 0.12087796E+04</pdfrwt>
<pdfrwt beam="2">  1       -2 0.10324832E+00 0.12087796E+04</pdfrwt>
<totfact> 0.42075182E+01</totfact>
</mgrwt>
</event>
<event>
12    3  0.4688899E-008  0.2087241E+04  0.7818608E-02  0.8566885E-01
          2   -1    0    0  501    0  0.00000000000E+00  0.00000000000E+00  0.58192744292E+03  0.58192744292E+03  0.00000000000E+00 0. -1.
         -2   -1    0    0    0  501 -0.00000000000E+00 -0.00000000000E+00 -0.18716136160E+04  0.18716136160E+04  0.00000000000E+00 0.  1.
         23    2    1    2    0    0 -0.50149788118E+03 -0.11205843497E+03  0.26197019682E+03  0.58347406965E+03  0.88070359636E+02 0.  0.
        254    2    1    2    0    0  0.50149788118E+03  0.11205843497E+03 -0.15516563699E+04  0.18700669893E+04  0.90854600129E+03 0.  0.
         23    2    4    4    0    0  0.25970878761E+03  0.23131350270E+03 -0.15443440175E+04  0.15856690977E+04  0.91615785975E+02 0.  0.
         23    2    4    4    0    0  0.24178909358E+03 -0.11925506773E+03 -0.73123524533E+01  0.28439789159E+03  0.90249394959E+02 0.  0.
          1    1    3    3  502    0 -0.24445793073E+03 -0.89439609411E+02  0.16289962310E+03  0.30707557838E+03  0.00000000000E+00 0. -1.
         -1    1    3    3    0  502 -0.25703995045E+03 -0.22618825562E+02  0.99070573717E+02  0.27639849127E+03  0.00000000000E+00 0.  1.
         13    1    5    5    0    0  0.14640314043E+03  0.18778504030E+03 -0.10449981772E+04  0.10717827631E+04  0.00000000000E+00 0. -1.
        -13    1    5    5    0    0  0.11330564717E+03  0.43528462402E+02 -0.49934584028E+03  0.51388633464E+03  0.00000000000E+00 0.  1.
          4    1    6    6  503    0  0.21269904159E+03 -0.11900928026E+03 -0.32539463369E+02  0.24589206526E+03  0.00000000000E+00 0. -1.
         -4    1    6    6    0  503  0.29090051993E+02 -0.24578746450E+00  0.25227110916E+02  0.38505826333E+02  0.00000000000E+00 0.  1.
<mgrwt>
<rscale>  0 0.20872406E+04</rscale>
<asrwt>0</asrwt>
<pdfrwt beam="1">  1        2 0.89527301E-01 0.20872406E+04</pdfrwt>
<pdfrwt beam="2">  1       -2 0.28794055E+00 0.20872406E+04</pdfrwt>
<totfact> 0.17890671E+00</totfact>
</mgrwt>
</event>
<event>
12    3  0.4688899E-008  0.2892364E+04  0.7818608E-02  0.8275153E-01
         -1   -1    0    0    0  501 -0.00000000000E+00  0.00000000000E+00  0.18074248339E+04  0.18074248339E+04  0.00000000000E+00 0.  1.
          1   -1    0    0  501    0  0.00000000000E+00 -0.00000000000E+00 -0.11571392567E+04  0.11571392567E+04  0.00000000000E+00 0. -1.
         23    2    1    2    0    0 -0.10756738988E+04 -0.54855981846E+03 -0.21329426039E+03  0.12297005341E+04  0.93149079168E+02 0.  0.
        254    2    1    2    0    0  0.10756738988E+04  0.54855981846E+03  0.86357983763E+03  0.17348635565E+04  0.89776901975E+03 0.  0.
         23    2    4    4    0    0 -0.82745578672E+02  0.28112680509E+03  0.23838182134E+03  0.38833010569E+03  0.89973701210E+02 0.  0.
         23    2    4    4    0    0  0.11584194775E+04  0.26743301337E+03  0.62519801629E+03  0.13465334508E+04  0.93934403778E+02 0.  0.
          3    1    3    3  502    0 -0.61992704270E+03 -0.32554484708E+03 -0.77671483920E+02  0.70450113211E+03  0.00000000000E+00 0. -1.
         -3    1    3    3    0  502 -0.45574685611E+03 -0.22301497138E+03 -0.13562277647E+03  0.52519940196E+03  0.00000000000E+00 0.  1.
         13    1    5    5    0    0 -0.99818344369E+02  0.25274051196E+03  0.19867436003E+03  0.33661991859E+03  0.00000000000E+00 0.  1.
        -13    1    5    5    0    0  0.17072765696E+02  0.28386293136E+02  0.39707461314E+02  0.51710187106E+02  0.00000000000E+00 0. -1.
          3    1    6    6  503    0  0.83093780272E+03  0.16164525079E+03  0.40929609769E+03  0.94027129844E+03  0.00000000000E+00 0. -1.
         -3    1    6    6    0  503  0.32748167477E+03  0.10578776258E+03  0.21590191860E+03  0.40626215241E+03  0.00000000000E+00 0.  1.
<mgrwt>
<rscale>  0 0.28923639E+04</rscale>
<asrwt>0</asrwt>
<pdfrwt beam="1">  1        1 0.17802143E+00 0.28923639E+04</pdfrwt>
<pdfrwt beam="2">  1       -1 0.27806536E+00 0.28923639E+04</pdfrwt>
<totfact> 0.45211272E-01</totfact>
</mgrwt>
</event>
<event>
12    3  0.4688899E-008  0.1550860E+04  0.7818608E-02  0.8851319E-01
         -2   -1    0    0    0  501 -0.00000000000E+00  0.00000000000E+00  0.23214811068E+03  0.23214811068E+03  0.00000000000E+00 0.  1.
          2   -1    0    0  501    0  0.00000000000E+00 -0.00000000000E+00 -0.25901209887E+04  0.25901209887E+04  0.00000000000E+00 0. -1.
         23    2    1    2    0    0  0.33153751055E+03 -0.54646597269E+02 -0.90735024400E+02  0.36001953205E+03  0.92075226353E+02 0.  0.
        254    2    1    2    0    0 -0.33153751055E+03  0.54646597269E+02 -0.22672378536E+04  0.24622495673E+04  0.89966775833E+03 0.  0.
         23    2    4    4    0    0 -0.51928435096E+03  0.25610930599E+03 -0.96806532452E+03  0.11310732868E+04  0.83235170983E+02 0.  0.
         23    2    4    4    0    0  0.18774684041E+03 -0.20146270872E+03 -0.12991725291E+04  0.13311762806E+04  0.91350591151E+02 0.  0.
          1    1    3    3  502    0  0.71589175225E+02 -0.20015850297E+02 -0.60874673704E+02  0.96080019625E+02  0.00000000000E+00 0. -1.
         -1    1    3    3    0  502  0.25994833533E+03 -0.34630746971E+02 -0.29860350696E+02  0.26393951243E+03  0.00000000000E+00 0.  1.
         13    1    5    5    0    0 -0.86370365540E+02  0.18856759821E+02 -0.10986053252E+03  0.14101331157E+03  0.00000000000E+00 0. -1.
        -13    1    5    5    0    0 -0.43291398542E+03  0.23725254617E+03 -0.85820479200E+03  0.99005997518E+03  0.00000000000E+00 0.  1.
          4    1    6    6  503    0  0.97254210326E+01  0.19014153677E+01 -0.16293547880E+03  0.16323654446E+03  0.00000000000E+00 0. -1.
         -4    1    6    6    0  503  0.17802141937E+03 -0.20336412409E+03 -0.11362370503E+04  0.11679397361E+04  0.00000000000E+00 0.  1.
<mgrwt>
<rscale>  0 0.15508600E+04</rscale>
<asrwt>0</asrwt>
<pdfrwt beam="1">  1        2 0.39848016E+00 0.15508600E+04</pdfrwt>
<pdfrwt beam="2">  1       -2 0.35715094E-01 0.15508600E+04</pdfrwt>
<totfact> 0.21942240E+01</totfact>
</mgrwt>
</event>
<event>
12    3  0.4688899E-008  0.1884095E+04  0.7818608E-02  0.8662814E-01
          2   -1    0    0  501    0  0.00000000000E+00  0.00000000000E+00  0.13185642388E+04  0.13185642388E+04  0.00000000000E+00 0. -1.
         -2   -1    0    0    0  501 -0.00000000000E+00 -0.00000000000E+00 -0.67304536539E+03  0.67304536539E+03  0.00000000000E+00 0.  1.
         23    2    1    2    0    0 -0.28003767921E+03  0.56876930300E+03 -0.95103688564E+02  0.64733882763E+03  0.89906753734E+02 0.  0.
        254    2    1    2    0    0  0.28003767921E+03 -0.56876930300E+03  0.74062256197E+03  0.13442707766E+04  0.92553904272E+03 0.  0.
         23    2    4    4    0    0 -0.29403395792E+03 -0.26318512310E+03  0.79444665269E+02  0.41262900868E+03  0.90713100122E+02 0.  0.
         23    2    4    4    0    0  0.57407163713E+03 -0.30558417990E+03  0.66117789670E+03  0.93164176788E+03  0.88657977662E+02 0.  0.
          2    1    3    3  502    0 -0.17554806933E+02  0.23695352026E+02 -0.24331374716E+02  0.38231619762E+02  0.00000000000E+00 0. -1.
         -2    1    3    3    0  502 -0.26248287228E+03  0.54507395097E+03 -0.70772313848E+02  0.60910720787E+03  0.00000000000E+00 0.  1.
         13    1    5    5    0    0 -0.23624393862E+03 -0.25254985436E+03  0.73705358212E+02  0.35358889590E+03  0.00000000000E+00 0. -1.
        -13    1    5    5    0    0 -0.57790019305E+02 -0.10635268739E+02  0.57393070574E+01  0.59040112787E+02  0.00000000000E+00 0.  1.
          4    1    6    6  503    0  0.52536360113E+03 -0.29115118152E+03  0.57441776079E+03  0.83110269389E+03  0.00000000000E+00 0. -1.
         -4    1    6    6    0  503  0.48708036006E+02 -0.14432998379E+02  0.86760135915E+02  0.10053907398E+03  0.00000000000E+00 0.  1.
<mgrwt>
<rscale>  0 0.18840951E+04</rscale>
<asrwt>0</asrwt>
<pdfrwt beam="1">  1        2 0.20285604E+00 0.18840951E+04</pdfrwt>
<pdfrwt beam="2">  1       -2 0.10354544E+00 0.18840951E+04</pdfrwt>
<totfact> 0.11495410E+01</totfact>
</mgrwt>
</event>
<event>
12    3  0.4688899E-008  0.1883851E+04  0.7818608E-02  0.8662937E-01
         -2   -1    0    0    0  501 -0.00000000000E+00  0.00000000000E+00  0.20919416251E+04  0.20919416251E+04  0.00000000000E+00 0.  1.
          2   -1    0    0  501    0  0.00000000000E+00 -0.00000000000E+00 -0.42411485653E+03  0.42411485653E+03  0.00000000000E+00 0. -1.
         23    2    1    2    0    0  0.11191422439E+03  0.33108547373E+02 -0.30793958872E+03  0.34164443758E+03  0.90956923314E+02 0.  0.
        254    2    1    2    0    0 -0.11191422439E+03 -0.33108547373E+02  0.19757663573E+04  0.21744120440E+04  0.90044104146E+03 0.  0.
         23    2    4    4    0    0 -0.87246966620E+01  0.39511277384E+03  0.13082411708E+04  0.13695946601E+04  0.90024151241E+02 0.  0.
         23    2    4    4    0    0 -0.10318952772E+03 -0.42822132121E+03  0.66752518651E+03  0.80481738389E+03  0.90108646737E+02 0.  0.
          2    1    3    3  502    0  0.66141364876E+02 -0.85270520119E+01 -0.24283742619E+03  0.25182812854E+03  0.00000000000E+00 0. -1.
         -2    1    3    3    0  502  0.45772859510E+02  0.41635599385E+02 -0.65102162529E+02  0.89816309041E+02  0.00000000000E+00 0.  1.
         13    1    5    5    0    0 -0.34567906663E+01  0.39073828209E+03  0.13045522973E+04  0.13618168199E+04  0.00000000000E+00 0.  1.
        -13    1    5    5    0    0 -0.52679059957E+01  0.43744917469E+01  0.36888734489E+01  0.77778402494E+01  0.00000000000E+00 0. -1.
          3    1    6    6  503    0 -0.52311713550E+02 -0.69493736331E+02  0.14114935121E+03  0.16579817282E+03  0.00000000000E+00 0. -1.
         -3    1    6    6    0  503 -0.50877814174E+02 -0.35872758488E+03  0.52637583530E+03  0.63901921107E+03  0.00000000000E+00 0.  1.
<mgrwt>
<rscale>  0 0.18838509E+04</rscale>
<asrwt>0</asrwt>
<pdfrwt beam="1">  1        2 0.65248441E-01 0.18838509E+04</pdfrwt>
<pdfrwt beam="2">  1       -2 0.32183717E+00 0.18838509E+04</pdfrwt>
<totfact> 0.16312689E+00</totfact>
</mgrwt>
</event>
<event>
12    3  0.4688899E-008  0.2190947E+04  0.7818608E-02  0.8522206E-01
          1   -1    0    0  501    0  0.00000000000E+00  0.00000000000E+00  0.10753806966E+04  0.10753806966E+04  0.00000000000E+00 0. -1.
         -1   -1    0    0    0  501 -0.00000000000E+00 -0.00000000000E+00 -0.11159412926E+04  0.11159412926E+04  0.00000000000E+00 0.  1.
         23    2    1    2    0    0 -0.20033670869E+03 -0.28210864372E+03  0.82188137761E+03  0.89603438211E+03  0.87570151066E+02 0.  0.
        254    2    1    2    0    0  0.20033670869E+03  0.28210864372E+03 -0.86244197356E+03  0.12952876071E+04  0.90235455544E+03 0.  0.
         23    2    4    4    0    0 -0.44841600171E+02 -0.91299012341E+02 -0.82695078243E+03  0.83785185315E+03  0.88328095824E+02 0.  0.
         23    2    4    4    0    0  0.24517830886E+03  0.37340765607E+03 -0.35491191129E+02  0.45743575398E+03  0.91881247422E+02 0.  0.
          1    1    3    3  502    0 -0.20645870081E+03 -0.28330152379E+03  0.80405772717E+03  0.87715094320E+03  0.00000000000E+00 0. -1.
         -1    1    3    3    0  502  0.61219921265E+01  0.11928800681E+01  0.17823650436E+02  0.18883438917E+02  0.00000000000E+00 0.  1.
         13    1    5    5    0    0 -0.55997623504E+02 -0.15517927812E+02 -0.36156664187E+03  0.36620619388E+03  0.00000000000E+00 0. -1.
        -13    1    5    5    0    0  0.11156023333E+02 -0.75781084530E+02 -0.46538414056E+03  0.47164565927E+03  0.00000000000E+00 0.  1.
          2    1    6    6  503    0  0.70676131421E+02  0.57218748419E+02 -0.31600310924E+02  0.96268792315E+02  0.00000000000E+00 0. -1.
         -2    1    6    6    0  503  0.17450217744E+03  0.31618890765E+03 -0.38908802055E+01  0.36116696166E+03  0.00000000000E+00 0.  1.
<mgrwt>
<rscale>  0 0.21909466E+04</rscale>
<asrwt>0</asrwt>
<pdfrwt beam="1">  1        1 0.16544318E+00 0.21909466E+04</pdfrwt>
<pdfrwt beam="2">  1       -1 0.17168328E+00 0.21909466E+04</pdfrwt>
<totfact> 0.28882377E+00</totfact>
</mgrwt>
</event>
<event>
12    3  0.4688899E-008  0.1535890E+04  0.7818608E-02  0.8860931E-01
          2   -1    0    0  501    0  0.00000000000E+00  0.00000000000E+00  0.10097587321E+04  0.10097587321E+04  0.00000000000E+00 0. -1.
         -2   -1    0    0    0  501 -0.00000000000E+00 -0.00000000000E+00 -0.58404027853E+03  0.58404027853E+03  0.00000000000E+00 0.  1.
         23    2    1    2    0    0  0.46002574047E+03  0.17476769624E+03  0.69083493389E+02  0.50521238120E+03  0.91102093943E+02 0.  0.
        254    2    1    2    0    0 -0.46002574047E+03 -0.17476769624E+03  0.35663496013E+03  0.10885866294E+04  0.90314169726E+03 0.  0.
         23    2    4    4    0    0  0.15121431292E+03 -0.11144531648E+03  0.41490992650E+03  0.46451731881E+03  0.91325053359E+02 0.  0.
         23    2    4    4    0    0 -0.61124005338E+03 -0.63322379757E+02 -0.58274966369E+02  0.62406931057E+03  0.91882566600E+02 0.  0.
          1    1    3    3  502    0  0.78495914208E+02  0.63509102772E+02  0.32681329879E+02  0.10612767785E+03  0.00000000000E+00 0. -1.
         -1    1    3    3    0  502  0.38152982626E+03  0.11125859347E+03  0.36402163510E+02  0.39908470336E+03  0.00000000000E+00 0.  1.
         13    1    5    5    0    0  0.39641094878E+02 -0.52082712627E+02  0.64000258902E+02  0.91542659439E+02  0.00000000000E+00 0. -1.
        -13    1    5    5    0    0  0.11157321804E+03 -0.59362603853E+02  0.35090966760E+03  0.37297465937E+03  0.00000000000E+00 0.  1.
          4    1    6    6  503    0 -0.10038640679E+03 -0.42080595940E+02  0.44542751857E+01  0.10894057000E+03  0.00000000000E+00 0. -1.
         -4    1    6    6    0  503 -0.51085364659E+03 -0.21241783817E+02 -0.62729241555E+02  0.51512874057E+03  0.00000000000E+00 0.  1.
<mgrwt>
<rscale>  0 0.15358903E+04</rscale>
<asrwt>0</asrwt>
<pdfrwt beam="1">  1        2 0.15534750E+00 0.15358903E+04</pdfrwt>
<pdfrwt beam="2">  1       -2 0.89852351E-01 0.15358903E+04</pdfrwt>
<totfact> 0.25384805E+01</totfact>
</mgrwt>
</event>
<event>
12    3  0.4688899E-008  0.2169035E+04  0.7818608E-02  0.8531428E-01
         -2   -1    0    0    0  501 -0.00000000000E+00  0.00000000000E+00  0.31906395663E+03  0.31906395663E+03  0.00000000000E+00 0.  1.
          2   -1    0    0  501    0  0.00000000000E+00 -0.00000000000E+00 -0.36863383967E+04  0.36863383967E+04  0.00000000000E+00 0. -1.
         23    2    1    2    0    0  0.68798374959E+03 -0.39558035267E+03 -0.65873214504E+03  0.10353420859E+04  0.90552420530E+02 0.  0.
        254    2    1    2    0    0 -0.68798374959E+03  0.39558035267E+03 -0.27085422951E+04  0.29700602675E+04  0.92479790926E+03 0.  0.
         23    2    4    4    0    0  0.13804518397E+03 -0.18252430265E+02 -0.11025165478E+04  0.11150217165E+04  0.91329437389E+02 0.  0.
         23    2    4    4    0    0 -0.82602893356E+03  0.41383278294E+03 -0.16060257473E+04  0.18550385510E+04  0.90928286098E+02 0.  0.
          2    1    3    3  502    0  0.62335903029E+03 -0.32583517875E+03 -0.57109452589E+03  0.90603200929E+03  0.00000000000E+00 0.  1.
         -2    1    3    3    0  502  0.64624719301E+02 -0.69745173921E+02 -0.87637619150E+02  0.12931007664E+03  0.00000000000E+00 0. -1.
         13    1    5    5    0    0 -0.11340108631E+02 -0.24523476282E+01 -0.17827174533E+03  0.17864889380E+03  0.00000000000E+00 0.  1.
        -13    1    5    5    0    0  0.14938529260E+03 -0.15800082637E+02 -0.92424480242E+03  0.93637282268E+03  0.00000000000E+00 0. -1.
          1    1    6    6  503    0 -0.22161108483E+03  0.11647035869E+03 -0.35837541371E+03  0.43716101670E+03  0.00000000000E+00 0.  1.
         -1    1    6    6    0  503 -0.60441784873E+03  0.29736242425E+03 -0.12476503336E+04  0.14178775343E+04  0.00000000000E+00 0. -1.
<mgrwt>
<rscale>  0 0.21690345E+04</rscale>
<asrwt>0</asrwt>
<pdfrwt beam="1">  1        2 0.56712896E+00 0.21690345E+04</pdfrwt>
<pdfrwt beam="2">  1       -2 0.49086765E-01 0.21690345E+04</pdfrwt>
<totfact> 0.21619932E+00</totfact>
</mgrwt>
</event>
<event>
12    3  0.4688899E-008  0.1921797E+04  0.7818608E-02  0.8644082E-01
         -2   -1    0    0    0  501 -0.00000000000E+00  0.00000000000E+00  0.38269546382E+03  0.38269546382E+03  0.00000000000E+00 0.  1.
          2   -1    0    0  501    0  0.00000000000E+00 -0.00000000000E+00 -0.24126919423E+04  0.24126919423E+04  0.00000000000E+00 0. -1.
         23    2    1    2    0    0 -0.38804900392E+03  0.51647585214E+02  0.12818667307E+03  0.42438322880E+03  0.10207741784E+03 0.  0.
        254    2    1    2    0    0  0.38804900392E+03 -0.51647585214E+02 -0.21581831515E+04  0.23710041773E+04  0.90036480980E+03 0.  0.
         23    2    4    4    0    0  0.48725257382E+03  0.31524986381E+03 -0.14211132869E+04  0.15377672458E+04  0.91474482196E+02 0.  0.
         23    2    4    4    0    0 -0.99203569904E+02 -0.36689744902E+03 -0.73706986468E+03  0.83323693149E+03  0.80973527778E+02 0.  0.
          3    1    3    3  502    0 -0.11523305506E+03  0.84835548084E+01 -0.91647356740E+01  0.11590780846E+03  0.00000000000E+00 0. -1.
         -3    1    3    3    0  502 -0.27281594886E+03  0.43164030406E+02  0.13735140875E+03  0.30847542034E+03  0.00000000000E+00 0.  1.
         13    1    5    5    0    0  0.65063421443E+02  0.79714884393E+02 -0.21435094017E+03  0.23776887340E+03  0.00000000000E+00 0. -1.
        -13    1    5    5    0    0  0.42218915238E+03  0.23553497942E+03 -0.12067623467E+04  0.12999983724E+04  0.00000000000E+00 0.  1.
          2    1    6    6  503    0  0.42825542448E+01 -0.10045832614E+01 -0.30796971810E+02  0.31109531193E+02  0.00000000000E+00 0. -1.
         -2    1    6    6    0  503 -0.10348612415E+03 -0.36589286576E+03 -0.70627289287E+03  0.80212740030E+03  0.00000000000E+00 0.  1.
<mgrwt>
<rscale>  0 0.19217973E+04</rscale>
<asrwt>0</asrwt>
<pdfrwt beam="1">  1        2 0.37118338E+00 0.19217973E+04</pdfrwt>
<pdfrwt beam="2">  1       -2 0.58876225E-01 0.19217973E+04</pdfrwt>
<totfact> 0.98572827E+00</totfact>
</mgrwt>
</event>
<event>
12    3  0.4688899E-008  0.2167867E+04  0.7818608E-02  0.8531923E-01
          2   -1    0    0  501    0  0.00000000000E+00  0.00000000000E+00  0.58044571579E+03  0.58044571579E+03  0.00000000000E+00 0. -1.
         -2   -1    0    0    0  501 -0.00000000000E+00 -0.00000000000E+00 -0.20241551709E+04  0.20241551709E+04  0.00000000000E+00 0.  1.
         23    2    1    2    0    0 -0.50362602020E+02  0.17295698483E+03  0.45141528025E+03  0.49385968095E+03  0.87584924160E+02 0.  0.
        254    2    1    2    0    0  0.50362602020E+02 -0.17295698483E+03 -0.18951247354E+04  0.21107412058E+04  0.91174566891E+03 0.  0.
         23    2    4    4    0    0 -0.14353264084E+02  0.15157923609E+03  0.56312714929E+01  0.17903843771E+03  0.94025368684E+02 0.  0.
         23    2    4    4    0    0  0.64715866104E+02 -0.32453622091E+03 -0.19007560069E+04  0.19317027681E+04  0.95342983033E+02 0.  0.
          1    1    3    3  502    0 -0.24155847792E+02  0.43287058689E+02  0.23533173602E+03  0.24049594677E+03  0.00000000000E+00 0. -1.
         -1    1    3    3    0  502 -0.26206754228E+02  0.12966992614E+03  0.21608354423E+03  0.25336373418E+03  0.00000000000E+00 0.  1.
         13    1    5    5    0    0 -0.53271027754E+02  0.84942612168E+02  0.14706789205E+02  0.10133774918E+03  0.00000000000E+00 0. -1.
        -13    1    5    5    0    0  0.38917763670E+02  0.66636623920E+02 -0.90755177126E+01  0.77700688532E+02  0.00000000000E+00 0.  1.
          3    1    6    6  503    0  0.67913234782E+02 -0.32527839432E+03 -0.18992351676E+04  0.19280851805E+04  0.00000000000E+00 0. -1.
         -3    1    6    6    0  503 -0.31973686776E+01  0.74217340919E+00 -0.15208392684E+01  0.36175875815E+01  0.00000000000E+00 0.  1.
<mgrwt>
<rscale>  0 0.21678673E+04</rscale>
<asrwt>0</asrwt>
<pdfrwt beam="1">  1        2 0.89299340E-01 0.21678673E+04</pdfrwt>
<pdfrwt beam="2">  1       -2 0.31140849E+00 0.21678673E+04</pdfrwt>
<totfact> 0.12807642E+00</totfact>
</mgrwt>
</event>
<event>
12    3  0.4688899E-008  0.2004020E+04  0.7818608E-02  0.8604743E-01
          2   -1    0    0  501    0  0.00000000000E+00  0.00000000000E+00  0.12696631738E+04  0.12696631738E+04  0.00000000000E+00 0. -1.
         -2   -1    0    0    0  501 -0.00000000000E+00 -0.00000000000E+00 -0.79078009768E+03  0.79078009768E+03  0.00000000000E+00 0.  1.
         23    2    1    2    0    0  0.26747036313E+03 -0.69393535839E+03  0.50142106655E+03  0.90161266793E+03  0.91627726285E+02 0.  0.
        254    2    1    2    0    0 -0.26747036313E+03  0.69393535839E+03 -0.22537990463E+02  0.11588306035E+04  0.88842204489E+03 0.  0.
         23    2    4    4    0    0  0.65798102037E+02  0.73019390162E+03  0.17519688781E+03  0.75985799893E+03  0.95800338416E+02 0.  0.
         23    2    4    4    0    0 -0.33326846517E+03 -0.36258543235E+02 -0.19773487828E+03  0.39897260458E+03  0.87735427764E+02 0.  0.
          4    1    3    3  502    0  0.25648593599E+03 -0.60788592590E+03  0.46677975419E+03  0.80820397994E+03  0.00000000000E+00 0. -1.
         -4    1    3    3    0  502  0.10984427147E+02 -0.86049432481E+02  0.34641312356E+02  0.93408687989E+02  0.00000000000E+00 0.  1.
         13    1    5    5    0    0  0.86077409103E+02  0.63086361422E+03  0.13539532527E+03  0.65094555395E+03  0.00000000000E+00 0. -1.
        -13    1    5    5    0    0 -0.20279307066E+02  0.99330287406E+02  0.39801562538E+02  0.10891244498E+03  0.00000000000E+00 0.  1.
          4    1    6    6  503    0 -0.27571304976E+03 -0.36234875605E+02 -0.12154315048E+03  0.30348540236E+03  0.00000000000E+00 0. -1.
         -4    1    6    6    0  503 -0.57555415411E+02 -0.23667629679E-01 -0.76191727796E+02  0.95487202220E+02  0.00000000000E+00 0.  1.
<mgrwt>
<rscale>  0 0.20040203E+04</rscale>
<asrwt>0</asrwt>
<pdfrwt beam="1">  1        2 0.19533279E+00 0.20040203E+04</pdfrwt>
<pdfrwt beam="2">  1       -2 0.12165848E+00 0.20040203E+04</pdfrwt>
<totfact> 0.82092295E+00</totfact>
</mgrwt>
</event>
<event>
12    3  0.4688899E-008  0.1797825E+04  0.7818608E-02  0.8707457E-01
          1   -1    0    0  501    0  0.00000000000E+00  0.00000000000E+00  0.25694286406E+03  0.25694286406E+03  0.00000000000E+00 0. -1.
         -1   -1    0    0    0  501 -0.00000000000E+00 -0.00000000000E+00 -0.31448381536E+04  0.31448381536E+04  0.00000000000E+00 0.  1.
         23    2    1    2    0    0 -0.28613416038E+03  0.58199904719E+03 -0.75356223971E+03  0.99837454513E+03  0.91104525598E+02 0.  0.
        254    2    1    2    0    0  0.28613416038E+03 -0.58199904719E+03 -0.21343330498E+04  0.24034064725E+04  0.89464487701E+03 0.  0.
         23    2    4    4    0    0  0.68556955365E+02  0.20522406778E+03 -0.82378037215E+03  0.85648504406E+03  0.90197311685E+02 0.  0.
         23    2    4    4    0    0  0.21757720501E+03 -0.78722311496E+03 -0.13105526777E+04  0.15469214285E+04  0.91419429118E+02 0.  0.
          2    1    3    3  502    0 -0.26460339847E+03  0.54933624840E+03 -0.66885722417E+03  0.90507196323E+03  0.00000000000E+00 0. -1.
         -2    1    3    3    0  502 -0.21530761908E+02  0.32662798788E+02 -0.84705015537E+02  0.93302581905E+02  0.00000000000E+00 0.  1.
         13    1    5    5    0    0  0.79537825483E+02  0.18315579174E+03 -0.62351794538E+03  0.65471133940E+03  0.00000000000E+00 0. -1.
        -13    1    5    5    0    0 -0.10980870117E+02  0.22068276037E+02 -0.20026242677E+03  0.20177370465E+03  0.00000000000E+00 0.  1.
          1    1    6    6  503    0  0.20106232476E+03 -0.76712782811E+03 -0.12876336696E+04  0.15122538246E+04  0.00000000000E+00 0. -1.
         -1    1    6    6    0  503  0.16514880249E+02 -0.20095286854E+02 -0.22919008107E+02  0.34667603840E+02  0.00000000000E+00 0.  1.
<mgrwt>
<rscale>  0 0.17978250E+04</rscale>
<asrwt>0</asrwt>
<pdfrwt beam="1">  1        1 0.39529669E-01 0.17978250E+04</pdfrwt>
<pdfrwt beam="2">  1       -1 0.48382128E+00 0.17978250E+04</pdfrwt>
<totfact> 0.19264735E-01</totfact>
</mgrwt>
</event>
<event>
12    3  0.4688899E-008  0.1136929E+04  0.7818608E-02  0.9169928E-01
         -2   -1    0    0    0  501 -0.00000000000E+00  0.00000000000E+00  0.64759346232E+03  0.64759346232E+03  0.00000000000E+00 0.  1.
          2   -1    0    0  501    0  0.00000000000E+00 -0.00000000000E+00 -0.49900397504E+03  0.49900397504E+03  0.00000000000E+00 0. -1.
         23    2    1    2    0    0 -0.10349381329E+03 -0.13152171222E+01  0.19692282664E+03  0.24065297009E+03  0.91774469078E+02 0.  0.
        254    2    1    2    0    0  0.10349381329E+03  0.13152171222E+01 -0.48333339357E+02  0.90594446728E+03  0.89871384040E+03 0.  0.
         23    2    4    4    0    0  0.38589576149E+03  0.27277171106E+03 -0.12233814376E+03  0.49682553305E+03  0.92461039233E+02 0.  0.
         23    2    4    4    0    0 -0.28240194820E+03 -0.27145649394E+03  0.74004804406E+02  0.40911893423E+03  0.91989688696E+02 0.  0.
          4    1    3    3  502    0 -0.10731147595E+03  0.26270864798E+02  0.15693464041E+03  0.19192288183E+03  0.00000000000E+00 0.  1.
         -4    1    3    3    0  502  0.38176626602E+01 -0.27586081921E+02  0.39988186221E+02  0.48730088253E+02  0.00000000000E+00 0. -1.
         13    1    5    5    0    0  0.38166107315E+03  0.27033988788E+03 -0.13202025004E+03  0.48598166237E+03  0.00000000000E+00 0.  1.
        -13    1    5    5    0    0  0.42346883457E+01  0.24318231799E+01  0.96821062791E+01  0.10843870682E+02  0.00000000000E+00 0. -1.
          2    1    6    6  503    0 -0.60436629863E+02 -0.24226161545E+02 -0.11314442107E+02  0.66087137422E+02  0.00000000000E+00 0. -1.
         -2    1    6    6    0  503 -0.22196531834E+03 -0.24723033239E+03  0.85319246513E+02  0.34303179681E+03  0.00000000000E+00 0.  1.
<mgrwt>
<rscale>  0 0.11369287E+04</rscale>
<asrwt>0</asrwt>
<pdfrwt beam="1">  1        2 0.76769842E-01 0.11369287E+04</pdfrwt>
<pdfrwt beam="2">  1       -2 0.99629764E-01 0.11369287E+04</pdfrwt>
<totfact> 0.50966546E+01</totfact>
</mgrwt>
</event>
<event>
12    3  0.4688899E-008  0.1177871E+04  0.7818608E-02  0.9132450E-01
          2   -1    0    0  501    0  0.00000000000E+00  0.00000000000E+00  0.27547816024E+04  0.27547816024E+04  0.00000000000E+00 0. -1.
         -2   -1    0    0    0  501 -0.00000000000E+00 -0.00000000000E+00 -0.12590647963E+03  0.12590647963E+03  0.00000000000E+00 0.  1.
         23    2    1    2    0    0  0.21985338825E+02 -0.10735561753E+03  0.48009026687E+02  0.14972013015E+03  0.90014815395E+02 0.  0.
        254    2    1    2    0    0 -0.21985338825E+02  0.10735561753E+03  0.25808660961E+04  0.27309679519E+04  0.88617580904E+03 0.  0.
         23    2    4    4    0    0  0.10981784993E+03 -0.34268324118E+03  0.73839910621E+03  0.82694072196E+03  0.95425120627E+02 0.  0.
         23    2    4    4    0    0 -0.13180318875E+03  0.45003885871E+03  0.18424669899E+04  0.19040272299E+04  0.10357619689E+03 0.  0.
          2    1    3    3  502    0 -0.12639515983E+02 -0.15591979800E+01 -0.16668177122E+02  0.20976572437E+02  0.00000000000E+00 0. -1.
         -2    1    3    3    0  502  0.34624854808E+02 -0.10579641955E+03  0.64677203810E+02  0.12874355772E+03  0.00000000000E+00 0.  1.
         13    1    5    5    0    0  0.14029681775E+02 -0.17656855046E+01  0.10972088171E+02  0.17897942196E+02  0.00000000000E+00 0. -1.
        -13    1    5    5    0    0  0.95788168152E+02 -0.34091755567E+03  0.72742701804E+03  0.80904277977E+03  0.00000000000E+00 0.  1.
          4    1    6    6  503    0 -0.14710778085E+03  0.36941145127E+03  0.14914322465E+04  0.15435270213E+04  0.00000000000E+00 0.  1.
         -4    1    6    6    0  503  0.15304592102E+02  0.80627407437E+02  0.35103474338E+03  0.36050020864E+03  0.00000000000E+00 0. -1.
<mgrwt>
<rscale>  0 0.11778707E+04</rscale>
<asrwt>0</asrwt>
<pdfrwt beam="1">  1        2 0.42381251E+00 0.11778707E+04</pdfrwt>
<pdfrwt beam="2">  1       -2 0.19370230E-01 0.11778707E+04</pdfrwt>
<totfact> 0.55611765E+01</totfact>
</mgrwt>
</event>
<event>
12    3  0.4688899E-008  0.1541632E+04  0.7818608E-02  0.8857230E-01
          2   -1    0    0  501    0  0.00000000000E+00  0.00000000000E+00  0.17886559863E+04  0.17886559863E+04  0.00000000000E+00 0. -1.
         -2   -1    0    0    0  501 -0.00000000000E+00 -0.00000000000E+00 -0.33218089711E+03  0.33218089711E+03  0.00000000000E+00 0.  1.
         23    2    1    2    0    0 -0.40653124579E+03 -0.15575004685E+03  0.86379453752E+03  0.97154321381E+03  0.90716494380E+02 0.  0.
        254    2    1    2    0    0  0.40653124579E+03  0.15575004685E+03  0.59268055170E+03  0.11492936696E+04  0.88322136057E+03 0.  0.
         23    2    4    4    0    0  0.43426080219E+03  0.52682101769E+02 -0.87587026778E+02  0.45439503386E+03  0.86287376632E+02 0.  0.
         23    2    4    4    0    0 -0.27729556403E+02  0.10306794508E+03  0.68026757848E+03  0.69489863577E+03  0.93424868545E+02 0.  0.
          4    1    3    3  502    0 -0.28974540260E+03 -0.12146372626E+03  0.70183909599E+03  0.76894990200E+03  0.00000000000E+00 0. -1.
         -4    1    3    3    0  502 -0.11678584319E+03 -0.34286320596E+02  0.16195544153E+03  0.20259331181E+03  0.00000000000E+00 0.  1.
         13    1    5    5    0    0  0.22461199847E+03  0.19409307378E+02 -0.88291487531E+02  0.24212116355E+03  0.00000000000E+00 0.  1.
        -13    1    5    5    0    0  0.20964880372E+03  0.33272794391E+02  0.70446075359E+00  0.21227387030E+03  0.00000000000E+00 0. -1.
          1    1    6    6  503    0 -0.47362165493E+02  0.40716378971E+02  0.18326917680E+03  0.19361970303E+03  0.00000000000E+00 0. -1.
         -1    1    6    6    0  503  0.19632609090E+02  0.62351566112E+02  0.49699840168E+03  0.50127893274E+03  0.00000000000E+00 0.  1.
<mgrwt>
<rscale>  0 0.15416321E+04</rscale>
<asrwt>0</asrwt>
<pdfrwt beam="1">  1        2 0.27517784E+00 0.15416321E+04</pdfrwt>
<pdfrwt beam="2">  1       -2 0.51104754E-01 0.15416321E+04</pdfrwt>
<totfact> 0.30512500E+01</totfact>
</mgrwt>
</event>
<event>
12    3  0.4688899E-008  0.1226382E+04  0.7818608E-02  0.9090073E-01
          1   -1    0    0  501    0  0.00000000000E+00  0.00000000000E+00  0.23983922878E+03  0.23983922878E+03  0.00000000000E+00 0. -1.
         -1   -1    0    0    0  501 -0.00000000000E+00 -0.00000000000E+00 -0.15677289400E+04  0.15677289400E+04  0.00000000000E+00 0.  1.
         23    2    1    2    0    0 -0.24625041100E+03  0.27612033643E+02 -0.12968840400E+03  0.29131571099E+03  0.81511177246E+02 0.  0.
        254    2    1    2    0    0  0.24625041100E+03 -0.27612033643E+02 -0.11982013072E+04  0.15162524578E+04  0.89550737229E+03 0.  0.
         23    2    4    4    0    0 -0.13966206002E+03 -0.31096211131E+03 -0.20255665322E+03  0.40763137336E+03  0.94505095686E+02 0.  0.
         23    2    4    4    0    0  0.38591247102E+03  0.28335007767E+03 -0.99564465401E+03  0.11086210844E+04  0.92286131114E+02 0.  0.
          3    1    3    3  502    0 -0.55319320707E+02 -0.22943195485E+02 -0.11009977979E+02  0.60892011608E+02  0.00000000000E+00 0. -1.
         -3    1    3    3    0  502 -0.19093109029E+03  0.50555229127E+02 -0.11867842602E+03  0.23042369938E+03  0.00000000000E+00 0.  1.
         13    1    5    5    0    0 -0.11891071579E+03 -0.16029244458E+03 -0.92988954317E+02  0.22018258729E+03  0.00000000000E+00 0. -1.
        -13    1    5    5    0    0 -0.20751344224E+02 -0.15066966673E+03 -0.10956769890E+03  0.18744878607E+03  0.00000000000E+00 0.  1.
          3    1    6    6  503    0  0.19330023988E+03  0.92115647658E+02 -0.48973345842E+03  0.53449895751E+03  0.00000000000E+00 0. -1.
         -3    1    6    6    0  503  0.19261223114E+03  0.19123443001E+03 -0.50591119559E+03  0.57412212693E+03  0.00000000000E+00 0.  1.
<mgrwt>
<rscale>  0 0.12263815E+04</rscale>
<asrwt>0</asrwt>
<pdfrwt beam="1">  1        1 0.36898343E-01 0.12263815E+04</pdfrwt>
<pdfrwt beam="2">  1       -1 0.24118907E+00 0.12263815E+04</pdfrwt>
<totfact> 0.92497423E+00</totfact>
</mgrwt>
</event>
<event>
12    3  0.4688899E-008  0.1443050E+04  0.7818608E-02  0.8923233E-01
         -2   -1    0    0    0  501 -0.00000000000E+00  0.00000000000E+00  0.38531418046E+03  0.38531418046E+03  0.00000000000E+00 0. -1.
          2   -1    0    0  501    0  0.00000000000E+00 -0.00000000000E+00 -0.13511004537E+04  0.13511004537E+04  0.00000000000E+00 0.  1.
         23    2    1    2    0    0 -0.33089521737E+03 -0.10875248732E+03  0.10988973897E+02  0.36735650259E+03  0.11623809217E+03 0.  0.
        254    2    1    2    0    0  0.33089521737E+03  0.10875248732E+03 -0.97677524716E+03  0.13690581316E+04  0.89381851391E+03 0.  0.
         23    2    4    4    0    0 -0.22822838535E+03 -0.14533608146E+03 -0.11587995239E+03  0.30756701082E+03  0.89210595384E+02 0.  0.
         23    2    4    4    0    0  0.55912360272E+03  0.25408856878E+03 -0.86089529476E+03  0.10614911208E+04  0.91883007129E+02 0.  0.
          4    1    3    3  502    0 -0.31360770100E+03 -0.86700781691E+02 -0.19489679513E+02  0.32595500193E+03  0.00000000000E+00 0. -1.
         -4    1    3    3    0  502 -0.17287516369E+02 -0.22051705633E+02  0.30478653410E+02  0.41401500664E+02  0.00000000000E+00 0.  1.
         13    1    5    5    0    0 -0.91508695668E+02 -0.17497689384E+02 -0.13259656415E+02  0.94105414323E+02  0.00000000000E+00 0. -1.
        -13    1    5    5    0    0 -0.13671968968E+03 -0.12783839207E+03 -0.10262029598E+03  0.21346159650E+03  0.00000000000E+00 0.  1.
          4    1    6    6  503    0  0.23280997731E+03  0.69236118900E+02 -0.39074726371E+03  0.46008428553E+03  0.00000000000E+00 0. -1.
         -4    1    6    6    0  503  0.32631362540E+03  0.18485244988E+03 -0.47014803105E+03  0.60140683523E+03  0.00000000000E+00 0.  1.
<mgrwt>
<rscale>  0 0.14430498E+04</rscale>
<asrwt>0</asrwt>
<pdfrwt beam="1">  1        2 0.20786161E+00 0.14430498E+04</pdfrwt>
<pdfrwt beam="2">  1       -2 0.59279105E-01 0.14430498E+04</pdfrwt>
<totfact> 0.39798765E+01</totfact>
</mgrwt>
</event>
<event>
12    3  0.4688899E-008  0.1503893E+04  0.7818608E-02  0.8881868E-01
         -1   -1    0    0    0  501 -0.00000000000E+00  0.00000000000E+00  0.24989964322E+03  0.24989964322E+03  0.00000000000E+00 0.  1.
          1   -1    0    0  501    0  0.00000000000E+00 -0.00000000000E+00 -0.22626033021E+04  0.22626033021E+04  0.00000000000E+00 0. -1.
         23    2    1    2    0    0 -0.15092830808E+03  0.89869856577E+02 -0.13960937054E+04  0.14098537887E+04  0.88057514338E+02 0.  0.
        254    2    1    2    0    0  0.15092830808E+03 -0.89869856577E+02 -0.61660995343E+03  0.11026491566E+04  0.89709050971E+03 0.  0.
         23    2    4    4    0    0  0.30161425965E+03  0.17653905409E+03  0.49130322554E+02  0.36398308450E+03  0.89065694664E+02 0.  0.
         23    2    4    4    0    0 -0.15068595157E+03 -0.26640891066E+03 -0.66574027599E+03  0.73866607212E+03  0.93474527761E+02 0.  0.
          4    1    3    3  502    0 -0.15951211239E+03  0.75377336106E+02 -0.13298701992E+04  0.13415217492E+04  0.00000000000E+00 0. -1.
         -4    1    3    3    0  502  0.85838043093E+01  0.14492520471E+02 -0.66223506239E+02  0.68332039518E+02  0.00000000000E+00 0.  1.
         13    1    5    5    0    0  0.10280766666E+03  0.60530781667E+02 -0.25519394506E+02  0.12200258747E+03  0.00000000000E+00 0. -1.
        -13    1    5    5    0    0  0.19880659299E+03  0.11600827242E+03  0.74649717060E+02  0.24198049703E+03  0.00000000000E+00 0.  1.
          4    1    6    6  503    0 -0.16348800143E+03 -0.24039855905E+03 -0.59542373104E+03  0.66260788804E+03  0.00000000000E+00 0.  1.
         -4    1    6    6    0  503  0.12802049860E+02 -0.26010351619E+02 -0.70316544946E+02  0.76058184077E+02  0.00000000000E+00 0. -1.
<mgrwt>
<rscale>  0 0.15038933E+04</rscale>
<asrwt>0</asrwt>
<pdfrwt beam="1">  1        1 0.34809282E+00 0.15038933E+04</pdfrwt>
<pdfrwt beam="2">  1       -1 0.38446098E-01 0.15038933E+04</pdfrwt>
<totfact> 0.12520085E+01</totfact>
</mgrwt>
</event>
<event>
12    3  0.4688899E-008  0.3194165E+04  0.7818608E-02  0.8190360E-01
         -2   -1    0    0    0  501 -0.00000000000E+00  0.00000000000E+00  0.17510559185E+04  0.17510559185E+04  0.00000000000E+00 0.  1.
          2   -1    0    0  501    0  0.00000000000E+00 -0.00000000000E+00 -0.14566478590E+04  0.14566478590E+04  0.00000000000E+00 0. -1.
         23    2    1    2    0    0 -0.14504670597E+04 -0.21636950513E+03  0.22894013392E+03  0.14872714240E+04  0.94298725604E+02 0.  0.
        254    2    1    2    0    0  0.14504670597E+04  0.21636950513E+03  0.65467925535E+02  0.17204323535E+04  0.89717945782E+03 0.  0.
         23    2    4    4    0    0  0.15120309232E+04  0.28333027140E+03  0.17509548566E+03  0.15509257106E+04  0.90545983957E+02 0.  0.
         23    2    4    4    0    0 -0.61563863498E+02 -0.66960766270E+02 -0.10962756013E+03  0.16950664288E+03  0.91871902859E+02 0.  0.
          1    1    3    3  502    0 -0.62560110197E+03 -0.75848738471E+02  0.54521116108E+02  0.63253641952E+03  0.00000000000E+00 0. -1.
         -1    1    3    3    0  502 -0.82486595775E+03 -0.14052076666E+03  0.17441901782E+03  0.85473500449E+03  0.00000000000E+00 0.  1.
         13    1    5    5    0    0  0.98303033907E+03  0.14022713856E+03  0.10967705114E+03  0.99902019672E+03  0.00000000000E+00 0. -1.
        -13    1    5    5    0    0  0.52900058415E+03  0.14310313284E+03  0.65418434515E+02  0.55190551387E+03  0.00000000000E+00 0.  1.
          4    1    6    6  503    0 -0.75962672475E+02 -0.17785364493E+02 -0.67850966976E+02  0.10339439307E+03  0.00000000000E+00 0. -1.
         -4    1    6    6    0  503  0.14398808977E+02 -0.49175401776E+02 -0.41776593149E+02  0.66112249810E+02  0.00000000000E+00 0.  1.
<mgrwt>
<rscale>  0 0.31941646E+04</rscale>
<asrwt>0</asrwt>
<pdfrwt beam="1">  1        2 0.22409967E+00 0.31941646E+04</pdfrwt>
<pdfrwt beam="2">  1       -2 0.26939322E+00 0.31941646E+04</pdfrwt>
<totfact> 0.55317257E-01</totfact>
</mgrwt>
</event>
<event>
12    3  0.4688899E-008  0.1098203E+04  0.7818608E-02  0.9206945E-01
          2   -1    0    0  501    0  0.00000000000E+00  0.00000000000E+00  0.81407426768E+03  0.81407426768E+03  0.00000000000E+00 0. -1.
         -2   -1    0    0    0  501 -0.00000000000E+00 -0.00000000000E+00 -0.37037481639E+03  0.37037481639E+03  0.00000000000E+00 0.  1.
         23    2    1    2    0    0 -0.10045187501E+03  0.28837229323E+02  0.20857859837E+03  0.24966209411E+03  0.88904243706E+02 0.  0.
        254    2    1    2    0    0  0.10045187501E+03 -0.28837229323E+02  0.23512085293E+03  0.93478698996E+03  0.89867832740E+03 0.  0.
         23    2    4    4    0    0  0.12576067514E+03  0.36807092746E+03 -0.94147615603E+02  0.41060736965E+03  0.91884076030E+02 0.  0.
         23    2    4    4    0    0 -0.25308800133E+02 -0.39690815679E+03  0.32926846853E+03  0.52417962031E+03  0.90387663401E+02 0.  0.
          3    1    3    3  502    0 -0.11324258656E+03  0.28827539887E+02  0.15238681757E+03  0.19203294675E+03  0.00000000000E+00 0. -1.
         -3    1    3    3    0  502  0.12790711555E+02  0.96894355421E-02  0.56191780803E+02  0.57629147363E+02  0.00000000000E+00 0.  1.
         13    1    5    5    0    0  0.50864960630E+02  0.18510835419E+03 -0.78229210100E+00  0.19197124522E+03  0.00000000000E+00 0.  1.
        -13    1    5    5    0    0  0.74895714513E+02  0.18296257328E+03 -0.93365323502E+02  0.21863612443E+03  0.00000000000E+00 0. -1.
          1    1    6    6  503    0 -0.90109041203E+01 -0.34851241221E+03  0.31802118497E+03  0.47188936410E+03  0.00000000000E+00 0. -1.
         -1    1    6    6    0  503 -0.16297896013E+02 -0.48395744576E+02  0.11247283557E+02  0.52290256214E+02  0.00000000000E+00 0.  1.
<mgrwt>
<rscale>  0 0.10982033E+04</rscale>
<asrwt>0</asrwt>
<pdfrwt beam="1">  1        2 0.12524219E+00 0.10982033E+04</pdfrwt>
<pdfrwt beam="2">  1       -2 0.56980741E-01 0.10982033E+04</pdfrwt>
<totfact> 0.96509450E+01</totfact>
</mgrwt>
</event>
<event>
12    3  0.4688899E-008  0.3278298E+04  0.7818608E-02  0.8168440E-01
         -2   -1    0    0    0  501 -0.00000000000E+00  0.00000000000E+00  0.11553805511E+04  0.11553805511E+04  0.00000000000E+00 0.  1.
          2   -1    0    0  501    0  0.00000000000E+00 -0.00000000000E+00 -0.23254753685E+04  0.23254753685E+04  0.00000000000E+00 0. -1.
         23    2    1    2    0    0  0.71501274741E+01  0.33017494139E+03 -0.21093909813E+04  0.21370479173E+04  0.91525255922E+02 0.  0.
        254    2    1    2    0    0 -0.71501274741E+01 -0.33017494139E+03  0.93929616393E+03  0.13438080024E+04  0.90248326712E+03 0.  0.
         23    2    4    4    0    0  0.13387777189E+03  0.27996037671E+03  0.25303396447E+03  0.41031015437E+03  0.89594448885E+02 0.  0.
         23    2    4    4    0    0 -0.14102789937E+03 -0.61013531811E+03  0.68626219947E+03  0.93349784800E+03  0.91150704938E+02 0.  0.
          1    1    3    3  502    0  0.20688773522E+02  0.32830349114E+03 -0.20337481352E+04  0.20601802555E+04  0.00000000000E+00 0. -1.
         -1    1    3    3    0  502 -0.13538646048E+02  0.18714502554E+01 -0.75642846120E+02  0.76867661809E+02  0.00000000000E+00 0.  1.
         13    1    5    5    0    0  0.19533474689E+02  0.12963109991E+03  0.76514874920E+02  0.15179033165E+03  0.00000000000E+00 0. -1.
        -13    1    5    5    0    0  0.11434429720E+03  0.15032927680E+03  0.17651908955E+03  0.25851982272E+03  0.00000000000E+00 0.  1.
          2    1    6    6  503    0 -0.11894614302E+03 -0.58348653566E+03  0.66598163830E+03  0.89338472384E+03  0.00000000000E+00 0. -1.
         -2    1    6    6    0  503 -0.22081756342E+02 -0.26648782448E+02  0.20280561168E+02  0.40113124167E+02  0.00000000000E+00 0.  1.
<mgrwt>
<rscale>  0 0.32782977E+04</rscale>
<asrwt>0</asrwt>
<pdfrwt beam="1">  1        2 0.35776544E+00 0.32782977E+04</pdfrwt>
<pdfrwt beam="2">  1       -2 0.17775086E+00 0.32782977E+04</pdfrwt>
<totfact> 0.68956285E-01</totfact>
</mgrwt>
</event>
<event>
12    3  0.4688899E-008  0.1908837E+04  0.7818608E-02  0.8650470E-01
         -2   -1    0    0    0  501 -0.00000000000E+00  0.00000000000E+00  0.33794487482E+03  0.33794487482E+03  0.00000000000E+00 0. -1.
          2   -1    0    0  501    0  0.00000000000E+00 -0.00000000000E+00 -0.26954521060E+04  0.26954521060E+04  0.00000000000E+00 0.  1.
         23    2    1    2    0    0  0.21339528462E+03 -0.69279344400E+03 -0.70724653097E+03  0.10171724139E+04  0.94560882307E+02 0.  0.
        254    2    1    2    0    0 -0.21339528462E+03  0.69279344400E+03 -0.16502607002E+04  0.20162245669E+04  0.90349367571E+03 0.  0.
         23    2    4    4    0    0 -0.48626378775E+03  0.44391127148E+03 -0.58723862564E+03  0.88702439602E+03  0.91942305083E+02 0.  0.
         23    2    4    4    0    0  0.27286850314E+03  0.24888217252E+03 -0.10630220746E+04  0.11292001709E+04  0.93153309853E+02 0.  0.
          4    1    3    3  502    0  0.17348349060E+03 -0.49059410325E+03 -0.45330532150E+03  0.69011941731E+03  0.00000000000E+00 0. -1.
         -4    1    3    3    0  502  0.39911794017E+02 -0.20219934075E+03 -0.25394120948E+03  0.32705299658E+03  0.00000000000E+00 0.  1.
         13    1    5    5    0    0 -0.45852571793E+02  0.60461245875E+02 -0.35982807949E+02  0.83980849368E+02  0.00000000000E+00 0.  1.
        -13    1    5    5    0    0 -0.44041121596E+03  0.38345002561E+03 -0.55125581770E+03  0.80304354666E+03  0.00000000000E+00 0. -1.
          1    1    6    6  503    0  0.21759758432E+03  0.20887825960E+03 -0.74115384937E+03  0.80017989506E+03  0.00000000000E+00 0. -1.
         -1    1    6    6    0  503  0.55270918818E+02  0.40003912926E+02 -0.32186822521E+03  0.32902027585E+03  0.00000000000E+00 0.  1.
<mgrwt>
<rscale>  0 0.19088365E+04</rscale>
<asrwt>0</asrwt>
<pdfrwt beam="1">  1        2 0.41468494E+00 0.19088365E+04</pdfrwt>
<pdfrwt beam="2">  1       -2 0.51991519E-01 0.19088365E+04</pdfrwt>
<totfact> 0.87484392E+00</totfact>
</mgrwt>
</event>
<event>
12    3  0.4688899E-008  0.1092544E+04  0.7818608E-02  0.9212490E-01
          2   -1    0    0  501    0  0.00000000000E+00  0.00000000000E+00  0.30762614853E+04  0.30762614853E+04  0.00000000000E+00 0. -1.
         -2   -1    0    0    0  501 -0.00000000000E+00 -0.00000000000E+00 -0.97005122105E+02  0.97005122105E+02  0.00000000000E+00 0.  1.
         23    2    1    2    0    0  0.59688514217E+02  0.13697595096E+03  0.56147200634E+03  0.58706422637E+03  0.84074146469E+02 0.  0.
        254    2    1    2    0    0 -0.59688514217E+02 -0.13697595096E+03  0.24177843568E+04  0.25862023810E+04  0.90577945967E+03 0.  0.
         23    2    4    4    0    0 -0.27813980847E+03 -0.43521816206E+03  0.12023718040E+04  0.13126955355E+04  0.10341669183E+03 0.  0.
         23    2    4    4    0    0  0.21845129425E+03  0.29824221110E+03  0.12154125528E+04  0.12735068455E+04  0.89009143501E+02 0.  0.
          3    1    3    3  502    0  0.20148290369E+02  0.15619616830E+02  0.25326098506E+02  0.35935181928E+02  0.00000000000E+00 0. -1.
         -3    1    3    3    0  502  0.39540223848E+02  0.12135633413E+03  0.53614590783E+03  0.55112904444E+03  0.00000000000E+00 0.  1.
         13    1    5    5    0    0 -0.27510468142E+03 -0.38440044155E+03  0.11226105101E+04  0.12180725113E+04  0.00000000000E+00 0. -1.
        -13    1    5    5    0    0 -0.30351270526E+01 -0.50817720507E+02  0.79761293900E+02  0.94623024251E+02  0.00000000000E+00 0.  1.
          2    1    6    6  503    0 -0.63062437029E+01 -0.53113625945E+00  0.17728961615E+02  0.18824635330E+02  0.00000000000E+00 0.  1.
         -2    1    6    6    0  503  0.22475753796E+03  0.29877334736E+03  0.11976835912E+04  0.12546822102E+04  0.00000000000E+00 0. -1.
<mgrwt>
<rscale>  0 0.10925440E+04</rscale>
<asrwt>0</asrwt>
<pdfrwt beam="1">  1        2 0.47327092E+00 0.10925440E+04</pdfrwt>
<pdfrwt beam="2">  1       -2 0.14923867E-01 0.10925440E+04</pdfrwt>
<totfact> 0.55983169E+01</totfact>
</mgrwt>
</event>
<event>
12    3  0.4688899E-008  0.2086779E+04  0.7818608E-02  0.8567090E-01
         -1   -1    0    0    0  501 -0.00000000000E+00  0.00000000000E+00  0.61873753102E+03  0.61873753102E+03  0.00000000000E+00 0.  1.
          1   -1    0    0  501    0  0.00000000000E+00 -0.00000000000E+00 -0.17594892069E+04  0.17594892069E+04  0.00000000000E+00 0. -1.
         23    2    1    2    0    0 -0.22687311320E+03 -0.24509306628E+03 -0.13785199184E+04  0.14209635900E+04  0.85313175896E+02 0.  0.
        254    2    1    2    0    0  0.22687311320E+03  0.24509306628E+03  0.23776824250E+03  0.95726314797E+03  0.86503004381E+03 0.  0.
         23    2    4    4    0    0  0.38872193555E+03  0.10695696501E+03  0.47230653771E+03  0.62752395892E+03  0.90378747058E+02 0.  0.
         23    2    4    4    0    0 -0.16184882235E+03  0.13813610127E+03 -0.23453829521E+03  0.32973918905E+03  0.91886327087E+02 0.  0.
          3    1    3    3  502    0 -0.22522328892E+03 -0.21541899189E+03 -0.13042184224E+04  0.13409386881E+04  0.00000000000E+00 0. -1.
         -3    1    3    3    0  502 -0.16498242858E+01 -0.29674074384E+02 -0.74301495946E+02  0.80024901815E+02  0.00000000000E+00 0.  1.
         13    1    5    5    0    0  0.24204021258E+03  0.29988053266E+02  0.23970927930E+03  0.34196971566E+03  0.00000000000E+00 0.  1.
        -13    1    5    5    0    0  0.14668172297E+03  0.76968911741E+02  0.23259725841E+03  0.28555424327E+03  0.00000000000E+00 0. -1.
          1    1    6    6  503    0 -0.19898050463E+02  0.63374859643E+02 -0.39841584169E+02  0.77457453328E+02  0.00000000000E+00 0. -1.
         -1    1    6    6    0  503 -0.14195077188E+03  0.74761241626E+02 -0.19469671104E+03  0.25228173572E+03  0.00000000000E+00 0.  1.
<mgrwt>
<rscale>  0 0.20867793E+04</rscale>
<asrwt>0</asrwt>
<pdfrwt beam="1">  1        1 0.27069064E+00 0.20867793E+04</pdfrwt>
<pdfrwt beam="2">  1       -1 0.95190391E-01 0.20867793E+04</pdfrwt>
<totfact> 0.42599971E+00</totfact>
</mgrwt>
</event>
<event>
12    3  0.4688899E-008  0.1320088E+04  0.7818608E-02  0.9013785E-01
          2   -1    0    0  501    0  0.00000000000E+00  0.00000000000E+00  0.60351365288E+03  0.60351365288E+03  0.00000000000E+00 0. -1.
         -2   -1    0    0    0  501 -0.00000000000E+00 -0.00000000000E+00 -0.72186978517E+03  0.72186978517E+03  0.00000000000E+00 0.  1.
         23    2    1    2    0    0 -0.25769759758E+03  0.38783757143E+02 -0.26609491314E+03  0.38333620119E+03  0.90707820656E+02 0.  0.
        254    2    1    2    0    0  0.25769759758E+03 -0.38783757143E+02  0.14773878086E+03  0.94204723686E+03  0.89314837373E+03 0.  0.
         23    2    4    4    0    0  0.17333943400E+03 -0.42656106657E+03 -0.79836353587E+02  0.47572703446E+03  0.89114898126E+02 0.  0.
         23    2    4    4    0    0  0.84358163580E+02  0.38777730942E+03  0.22757513444E+03  0.46632020240E+03  0.90424266032E+02 0.  0.
          2    1    3    3  502    0 -0.15917727342E+03  0.72120286848E+01 -0.10148156516E+03  0.18891248185E+03  0.00000000000E+00 0. -1.
         -2    1    3    3    0  502 -0.98520324164E+02  0.31571728458E+02 -0.16461334798E+03  0.19442371935E+03  0.00000000000E+00 0.  1.
         13    1    5    5    0    0  0.79026477910E+01 -0.37296242707E+02 -0.32551859204E+02  0.50130680224E+02  0.00000000000E+00 0. -1.
        -13    1    5    5    0    0  0.16543678621E+03 -0.38926482386E+03 -0.47284494383E+02  0.42559635423E+03  0.00000000000E+00 0.  1.
          4    1    6    6  503    0  0.81216569183E+02  0.35990629525E+03  0.23483125807E+03  0.43734927945E+03  0.00000000000E+00 0. -1.
         -4    1    6    6    0  503  0.31415943972E+01  0.27871014179E+02 -0.72561236306E+01  0.28970922955E+02  0.00000000000E+00 0.  1.
<mgrwt>
<rscale>  0 0.13200883E+04</rscale>
<asrwt>0</asrwt>
<pdfrwt beam="1">  1        2 0.92848254E-01 0.13200883E+04</pdfrwt>
<pdfrwt beam="2">  1       -2 0.11105689E+00 0.13200883E+04</pdfrwt>
<totfact> 0.30944296E+01</totfact>
</mgrwt>
</event>
<event>
12    3  0.4688899E-008  0.2224056E+04  0.7818608E-02  0.8508482E-01
         -1   -1    0    0    0  501 -0.00000000000E+00  0.00000000000E+00  0.48195621323E+03  0.48195621323E+03  0.00000000000E+00 0.  1.
          1   -1    0    0  501    0  0.00000000000E+00 -0.00000000000E+00 -0.25658060823E+04  0.25658060823E+04  0.00000000000E+00 0. -1.
         23    2    1    2    0    0 -0.21174307844E+03  0.97700900471E+02  0.35611619656E+03  0.43546668816E+03  0.91825344170E+02 0.  0.
        254    2    1    2    0    0  0.21174307844E+03 -0.97700900471E+02 -0.24399660657E+04  0.26122956074E+04  0.90347846776E+03 0.  0.
         23    2    4    4    0    0  0.35888355524E+02  0.23259882274E+03 -0.15880412178E+03  0.29848988381E+03  0.92126409034E+02 0.  0.
         23    2    4    4    0    0  0.17585472292E+03 -0.33029972321E+03 -0.22811619439E+04  0.23138057236E+04  0.99871525529E+02 0.  0.
          4    1    3    3  502    0 -0.73981151234E+01 -0.12341854298E+02  0.45482623332E+02  0.47704533328E+02  0.00000000000E+00 0. -1.
         -4    1    3    3    0  502 -0.20434496332E+03  0.11004275477E+03  0.31063357322E+03  0.38776215484E+03  0.00000000000E+00 0.  1.
         13    1    5    5    0    0 -0.30924727370E+02  0.67331148300E+02 -0.54222722375E+02  0.91814628007E+02  0.00000000000E+00 0.  1.
        -13    1    5    5    0    0  0.66813082893E+02  0.16526767444E+03 -0.10458139941E+03  0.20667525581E+03  0.00000000000E+00 0. -1.
          1    1    6    6  503    0  0.13264832720E+03 -0.30683999050E+03 -0.18618649680E+04  0.18916362011E+04  0.00000000000E+00 0. -1.
         -1    1    6    6    0  503  0.43206395713E+02 -0.23459732711E+02 -0.41929697593E+03  0.42216952248E+03  0.00000000000E+00 0.  1.
<mgrwt>
<rscale>  0 0.22240559E+04</rscale>
<asrwt>0</asrwt>
<pdfrwt beam="1">  1        1 0.39473940E+00 0.22240559E+04</pdfrwt>
<pdfrwt beam="2">  1       -1 0.74147109E-01 0.22240559E+04</pdfrwt>
<totfact> 0.20312183E+00</totfact>
</mgrwt>
</event>
<event>
12    3  0.4688899E-008  0.1547161E+04  0.7818608E-02  0.8853683E-01
         -2   -1    0    0    0  501 -0.00000000000E+00  0.00000000000E+00  0.31456303907E+03  0.31456303907E+03  0.00000000000E+00 0.  1.
          2   -1    0    0  501    0  0.00000000000E+00 -0.00000000000E+00 -0.19024064038E+04  0.19024064038E+04  0.00000000000E+00 0. -1.
         23    2    1    2    0    0  0.20040072501E+03 -0.29801202893E+03 -0.11061969689E+04  0.11665826182E+04  0.90948618540E+02 0.  0.
        254    2    1    2    0    0 -0.20040072501E+03  0.29801202893E+03 -0.48164639585E+03  0.10503868247E+04  0.86160177042E+03 0.  0.
         23    2    4    4    0    0 -0.40796872947E+03  0.37331605212E+03 -0.54582751063E+02  0.56214026404E+03  0.84964938310E+02 0.  0.
         23    2    4    4    0    0  0.20756800447E+03 -0.75304023189E+02 -0.42706364479E+03  0.48824656061E+03  0.85124466891E+02 0.  0.
          1    1    3    3  502    0  0.17797867627E+03 -0.19142133317E+03 -0.76489440112E+03  0.80832046916E+03  0.00000000000E+00 0. -1.
         -1    1    3    3    0  502  0.22422048736E+02 -0.10659069576E+03 -0.34130256776E+03  0.35826214907E+03  0.00000000000E+00 0.  1.
         13    1    5    5    0    0 -0.24703831699E+03  0.26596840189E+03 -0.63395476964E+02  0.36849166526E+03  0.00000000000E+00 0.  1.
        -13    1    5    5    0    0 -0.16093041249E+03  0.10734765023E+03  0.88127259004E+01  0.19364859878E+03  0.00000000000E+00 0. -1.
          1    1    6    6  503    0  0.86570458720E+02  0.87729743166E+01 -0.19239353273E+03  0.21115558443E+03  0.00000000000E+00 0. -1.
         -1    1    6    6    0  503  0.12099754575E+03 -0.84076997506E+02 -0.23467011206E+03  0.27709097618E+03  0.00000000000E+00 0.  1.
<mgrwt>
<rscale>  0 0.15471609E+04</rscale>
<asrwt>0</asrwt>
<pdfrwt beam="1">  1        2 0.29267790E+00 0.15471609E+04</pdfrwt>
<pdfrwt beam="2">  1       -2 0.48394316E-01 0.15471609E+04</pdfrwt>
<totfact> 0.29479794E+01</totfact>
</mgrwt>
</event>
<event>
12    3  0.4688899E-008  0.2518415E+04  0.7818608E-02  0.8396454E-01
          1   -1    0    0  501    0  0.00000000000E+00  0.00000000000E+00  0.16051615165E+04  0.16051615165E+04  0.00000000000E+00 0. -1.
         -1   -1    0    0    0  501 -0.00000000000E+00 -0.00000000000E+00 -0.98781576651E+03  0.98781576651E+03  0.00000000000E+00 0.  1.
         23    2    1    2    0    0  0.61897995933E+03  0.48471381651E+02  0.12043849304E+04  0.13580123218E+04  0.90381085864E+02 0.  0.
        254    2    1    2    0    0 -0.61897995933E+03 -0.48471381651E+02 -0.58703918045E+03  0.12349649612E+04  0.89164891692E+03 0.  0.
         23    2    4    4    0    0 -0.44135811311E+03 -0.32552215426E+03 -0.94203264831E+00  0.55767850421E+03  0.10120656950E+03 0.  0.
         23    2    4    4    0    0 -0.17762184621E+03  0.27705077261E+03 -0.58609714780E+03  0.67728645695E+03  0.83068810354E+02 0.  0.
          3    1    3    3  502    0  0.57640944545E+03  0.56055589573E+02  0.10676829251E+04  0.12146344744E+04  0.00000000000E+00 0. -1.
         -3    1    3    3    0  502  0.42570513879E+02 -0.75842079221E+01  0.13670200530E+03  0.14337784736E+03  0.00000000000E+00 0.  1.
         13    1    5    5    0    0 -0.36487167010E+03 -0.25440824792E+03  0.37507303243E+02  0.44638737666E+03  0.00000000000E+00 0.  1.
        -13    1    5    5    0    0 -0.76486443017E+02 -0.71113906343E+02 -0.38449335892E+02  0.11129112755E+03  0.00000000000E+00 0. -1.
          1    1    6    6  503    0 -0.75668994303E+02  0.10550990940E+03 -0.31461975995E+03  0.34035823926E+03  0.00000000000E+00 0. -1.
         -1    1    6    6    0  503 -0.10195285191E+03  0.17154086321E+03 -0.27147738785E+03  0.33692821769E+03  0.00000000000E+00 0.  1.
<mgrwt>
<rscale>  0 0.25184153E+04</rscale>
<asrwt>0</asrwt>
<pdfrwt beam="1">  1        1 0.24694793E+00 0.25184153E+04</pdfrwt>
<pdfrwt beam="2">  1       -1 0.15197166E+00 0.25184153E+04</pdfrwt>
<totfact> 0.16533596E+00</totfact>
</mgrwt>
</event>
<event>
12    3  0.4688899E-008  0.3144942E+04  0.7818608E-02  0.8203511E-01
          1   -1    0    0  501    0  0.00000000000E+00  0.00000000000E+00  0.19274638974E+04  0.19274638974E+04  0.00000000000E+00 0. -1.
         -1   -1    0    0    0  501 -0.00000000000E+00 -0.00000000000E+00 -0.12828597363E+04  0.12828597363E+04  0.00000000000E+00 0.  1.
         23    2    1    2    0    0 -0.16419199567E+03  0.14229347248E+04  0.46348110655E+03  0.15084658709E+04  0.94616621690E+02 0.  0.
        254    2    1    2    0    0  0.16419199567E+03 -0.14229347248E+04  0.18112305447E+03  0.17018577628E+04  0.90100612728E+03 0.  0.
         23    2    4    4    0    0  0.35779179676E+03 -0.87602250986E+03  0.45530373504E+03  0.10538735565E+04  0.88980752309E+02 0.  0.
         23    2    4    4    0    0 -0.19359980109E+03 -0.54691221494E+03 -0.27418068058E+03  0.64798420631E+03  0.90081253272E+02 0.  0.
          2    1    3    3  502    0 -0.12867289687E+03  0.13231268802E+04  0.43563069827E+03  0.13989265744E+04  0.00000000000E+00 0. -1.
         -2    1    3    3    0  502 -0.35519098801E+02  0.99807844644E+02  0.27850408274E+02  0.10953929648E+03  0.00000000000E+00 0.  1.
         13    1    5    5    0    0  0.50550061749E+02 -0.20854749580E+03  0.12408164998E+03  0.24787824150E+03  0.00000000000E+00 0.  1.
        -13    1    5    5    0    0  0.30724173501E+03 -0.66747501406E+03  0.33122208506E+03  0.80599531497E+03  0.00000000000E+00 0. -1.
          3    1    6    6  503    0 -0.41744312323E+02 -0.12891125451E+03 -0.23673066049E+02  0.13755403741E+03  0.00000000000E+00 0. -1.
         -3    1    6    6    0  503 -0.15185548876E+03 -0.41800096043E+03 -0.25050761453E+03  0.51043016890E+03  0.00000000000E+00 0.  1.
<mgrwt>
<rscale>  0 0.31449425E+04</rscale>
<asrwt>0</asrwt>
<pdfrwt beam="1">  1        1 0.29653291E+00 0.31449425E+04</pdfrwt>
<pdfrwt beam="2">  1       -1 0.19736304E+00 0.31449425E+04</pdfrwt>
<totfact> 0.44040879E-01</totfact>
</mgrwt>
</event>
<event>
12    3  0.4688899E-008  0.1980822E+04  0.7818608E-02  0.8615640E-01
          2   -1    0    0  501    0  0.00000000000E+00  0.00000000000E+00  0.82114733916E+03  0.82114733916E+03  0.00000000000E+00 0. -1.
         -2   -1    0    0    0  501 -0.00000000000E+00 -0.00000000000E+00 -0.11945651953E+04  0.11945651953E+04  0.00000000000E+00 0.  1.
         23    2    1    2    0    0 -0.21310475422E+03 -0.44692380808E+03  0.48607605418E+03  0.70291415201E+03  0.11253376451E+03 0.  0.
        254    2    1    2    0    0  0.21310475422E+03  0.44692380808E+03 -0.85949391028E+03  0.13127983824E+04  0.85997400225E+03 0.  0.
         23    2    4    4    0    0  0.11364271480E+03  0.47873266907E+02  0.15278598091E+03  0.21606328040E+03  0.90184637627E+02 0.  0.
         23    2    4    4    0    0  0.99462039419E+02  0.39905054118E+03 -0.10122798912E+04  0.10967351020E+04  0.94780135879E+02 0.  0.
          4    1    3    3  502    0 -0.92398540816E+02 -0.17562461708E+03  0.27268596025E+03  0.33725232303E+03  0.00000000000E+00 0. -1.
         -4    1    3    3    0  502 -0.12070621340E+03 -0.27129919100E+03  0.21339009393E+03  0.36566182899E+03  0.00000000000E+00 0.  1.
         13    1    5    5    0    0  0.75222130024E+02  0.57254853902E+02  0.14883250485E+03  0.17631676506E+03  0.00000000000E+00 0. -1.
        -13    1    5    5    0    0  0.38420584773E+02 -0.93815869950E+01  0.39534760597E+01  0.39746515342E+02  0.00000000000E+00 0.  1.
          2    1    6    6  503    0  0.41413981452E+02  0.22361740200E+03 -0.67315139677E+03  0.71052984688E+03  0.00000000000E+00 0. -1.
         -2    1    6    6    0  503  0.58048057968E+02  0.17543313917E+03 -0.33912849442E+03  0.38620525512E+03  0.00000000000E+00 0.  1.
<mgrwt>
<rscale>  0 0.19808221E+04</rscale>
<asrwt>0</asrwt>
<pdfrwt beam="1">  1        2 0.12633036E+00 0.19808221E+04</pdfrwt>
<pdfrwt beam="2">  1       -2 0.18377926E+00 0.19808221E+04</pdfrwt>
<totfact> 0.52836886E+00</totfact>
</mgrwt>
</event>
<event>
12    3  0.4688899E-008  0.2172597E+04  0.7818608E-02  0.8529921E-01
         -1   -1    0    0    0  501 -0.00000000000E+00  0.00000000000E+00  0.15618490563E+04  0.15618490563E+04  0.00000000000E+00 0.  1.
          1   -1    0    0  501    0  0.00000000000E+00 -0.00000000000E+00 -0.75554321029E+03  0.75554321029E+03  0.00000000000E+00 0. -1.
         23    2    1    2    0    0 -0.21746336471E+03  0.33880762943E+03 -0.51912238017E+03  0.66319173083E+03  0.90853186514E+02 0.  0.
        254    2    1    2    0    0  0.21746336471E+03 -0.33880762943E+03  0.13254282262E+04  0.16542005358E+04  0.90417835906E+03 0.  0.
         23    2    4    4    0    0 -0.31811958382E+03  0.16327349626E+02  0.55947975858E+03  0.65006778247E+03  0.90021495141E+02 0.  0.
         23    2    4    4    0    0  0.53558294852E+03 -0.35513497905E+03  0.76594846763E+03  0.10041327533E+04  0.92927838214E+02 0.  0.
          3    1    3    3  502    0 -0.18608999136E+03  0.23573266312E+03 -0.42317766764E+03  0.51892071816E+03  0.00000000000E+00 0. -1.
         -3    1    3    3    0  502 -0.31373373341E+02  0.10307496631E+03 -0.95944712535E+02  0.14427101267E+03  0.00000000000E+00 0.  1.
         13    1    5    5    0    0 -0.95156181366E+02 -0.25462628327E+02  0.22832386472E+03  0.24866610444E+03  0.00000000000E+00 0.  1.
        -13    1    5    5    0    0 -0.22296340245E+03  0.41789977953E+02  0.33115589386E+03  0.40140167803E+03  0.00000000000E+00 0. -1.
          2    1    6    6  503    0  0.35212253561E+03 -0.22298307651E+03  0.56166763812E+03  0.69941566197E+03  0.00000000000E+00 0. -1.
         -2    1    6    6    0  503  0.18346041292E+03 -0.13215190255E+03  0.20428082951E+03  0.30471709134E+03  0.00000000000E+00 0.  1.
<mgrwt>
<rscale>  0 0.21725970E+04</rscale>
<asrwt>0</asrwt>
<pdfrwt beam="1">  1        1 0.11623742E+00 0.21725970E+04</pdfrwt>
<pdfrwt beam="2">  1       -1 0.24028447E+00 0.21725970E+04</pdfrwt>
<totfact> 0.17860856E+00</totfact>
</mgrwt>
</event>
<event>
12    3  0.4688899E-008  0.2566784E+04  0.7818608E-02  0.8379572E-01
         -2   -1    0    0    0  501 -0.00000000000E+00  0.00000000000E+00  0.82240826092E+03  0.82240826092E+03  0.00000000000E+00 0.  1.
          2   -1    0    0  501    0  0.00000000000E+00 -0.00000000000E+00 -0.20027701436E+04  0.20027701436E+04  0.00000000000E+00 0. -1.
         23    2    1    2    0    0 -0.80648965448E+02  0.11184541910E+04 -0.60313124799E+03  0.12766197875E+04  0.92448614805E+02 0.  0.
        254    2    1    2    0    0  0.80648965448E+02 -0.11184541910E+04 -0.57723063472E+03  0.15485586171E+04  0.89855136289E+03 0.  0.
         23    2    4    4    0    0  0.21069944542E+03 -0.61849568526E+03  0.12588169304E+03  0.67143811657E+03  0.89731681993E+02 0.  0.
         23    2    4    4    0    0 -0.13005047997E+03 -0.49995850577E+03 -0.70311232776E+03  0.87712050050E+03  0.90009955625E+02 0.  0.
          4    1    3    3  502    0 -0.87402355284E+02  0.87068182503E+03 -0.43590476308E+03  0.97761903348E+03  0.00000000000E+00 0.  1.
         -4    1    3    3    0  502  0.67533898359E+01  0.24777236600E+03 -0.16722648490E+03  0.29900075398E+03  0.00000000000E+00 0. -1.
         13    1    5    5    0    0  0.64197710489E+02 -0.18598552730E+03  0.80341040680E+02  0.21252445793E+03  0.00000000000E+00 0. -1.
        -13    1    5    5    0    0  0.14650173493E+03 -0.43251015796E+03  0.45540652360E+02  0.45891365865E+03  0.00000000000E+00 0.  1.
          3    1    6    6  503    0 -0.37899614521E+02 -0.21822551229E+03 -0.23398618975E+03  0.32219294218E+03  0.00000000000E+00 0. -1.
         -3    1    6    6    0  503 -0.92150865448E+02 -0.28173299348E+03 -0.46912613801E+03  0.55492755832E+03  0.00000000000E+00 0.  1.
<mgrwt>
<rscale>  0 0.25667838E+04</rscale>
<asrwt>0</asrwt>
<pdfrwt beam="1">  1        2 0.30811848E+00 0.25667838E+04</pdfrwt>
<pdfrwt beam="2">  1       -2 0.12652435E+00 0.25667838E+04</pdfrwt>
<totfact> 0.27464332E+00</totfact>
</mgrwt>
</event>
<event>
12    3  0.4688899E-008  0.1515636E+04  0.7818608E-02  0.8874121E-01
          2   -1    0    0  501    0  0.00000000000E+00  0.00000000000E+00  0.14367631486E+04  0.14367631486E+04  0.00000000000E+00 0. -1.
         -2   -1    0    0    0  501 -0.00000000000E+00 -0.00000000000E+00 -0.39970949148E+03  0.39970949148E+03  0.00000000000E+00 0.  1.
         23    2    1    2    0    0  0.26277308136E+03 -0.28003886961E+03  0.69404586513E+03  0.79961009146E+03  0.10102066463E+03 0.  0.
        254    2    1    2    0    0 -0.26277308136E+03  0.28003886961E+03  0.34300779199E+03  0.10368625486E+04  0.89997674337E+03 0.  0.
         23    2    4    4    0    0 -0.29404008951E+03  0.30831019052E+03 -0.20316295807E+03  0.48061629638E+03  0.90565385163E+02 0.  0.
         23    2    4    4    0    0  0.31267008158E+02 -0.28271320910E+02  0.54617075006E+03  0.55624625225E+03  0.96594572997E+02 0.  0.
          1    1    3    3  502    0  0.23469409213E+03 -0.23551188492E+03  0.51513802898E+03  0.61311854785E+03  0.00000000000E+00 0. -1.
         -1    1    3    3    0  502  0.28078989230E+02 -0.44526984689E+02  0.17890783615E+03  0.18649154361E+03  0.00000000000E+00 0.  1.
         13    1    5    5    0    0  0.14098210772E+01  0.12417518901E+02 -0.21173084296E+02  0.24586213001E+02  0.00000000000E+00 0. -1.
        -13    1    5    5    0    0 -0.29544991059E+03  0.29589267162E+03 -0.18198987378E+03  0.45603008338E+03  0.00000000000E+00 0.  1.
          3    1    6    6  503    0  0.93496630891E+01 -0.47228753245E+02  0.12303820110E+03  0.13212255774E+03  0.00000000000E+00 0. -1.
         -3    1    6    6    0  503  0.21917345069E+02  0.18957432336E+02  0.42313254896E+03  0.42412369451E+03  0.00000000000E+00 0.  1.
<mgrwt>
<rscale>  0 0.15156357E+04</rscale>
<asrwt>0</asrwt>
<pdfrwt beam="1">  1        2 0.22104048E+00 0.15156357E+04</pdfrwt>
<pdfrwt beam="2">  1       -2 0.61493769E-01 0.15156357E+04</pdfrwt>
<totfact> 0.32704716E+01</totfact>
</mgrwt>
</event>
<event>
12    3  0.4688899E-008  0.2122624E+04  0.7818608E-02  0.8551342E-01
         -2   -1    0    0    0  501 -0.00000000000E+00  0.00000000000E+00  0.67606441190E+03  0.67606441190E+03  0.00000000000E+00 0.  1.
          2   -1    0    0  501    0  0.00000000000E+00 -0.00000000000E+00 -0.16660887486E+04  0.16660887486E+04  0.00000000000E+00 0. -1.
         23    2    1    2    0    0  0.11188999771E+03  0.82711148763E+03 -0.35874767605E+03  0.91315435513E+03  0.92294077059E+02 0.  0.
        254    2    1    2    0    0 -0.11188999771E+03 -0.82711148763E+03 -0.63127666068E+03  0.14289988054E+04  0.97308508310E+03 0.  0.
         23    2    4    4    0    0 -0.43807453130E+03 -0.74593467182E+03 -0.64055261317E+03  0.10803595922E+04  0.92419524718E+02 0.  0.
         23    2    4    4    0    0  0.32618453360E+03 -0.81176815809E+02  0.92759524889E+01  0.34863921323E+03  0.92071886727E+02 0.  0.
          1    1    3    3  502    0  0.59087708603E+02  0.24425982038E+03 -0.71838262699E+02  0.26137129366E+03  0.00000000000E+00 0. -1.
         -1    1    3    3    0  502  0.52802289102E+02  0.58285166725E+03 -0.28690941335E+03  0.65178306147E+03  0.00000000000E+00 0.  1.
         13    1    5    5    0    0 -0.25559963371E+03 -0.34775920410E+03 -0.30156813814E+03  0.52650828933E+03  0.00000000000E+00 0.  1.
        -13    1    5    5    0    0 -0.18247489759E+03 -0.39817546772E+03 -0.33898447502E+03  0.55385130284E+03  0.00000000000E+00 0. -1.
          3    1    6    6  503    0  0.32186347079E+03 -0.78361936448E+02  0.24886611361E+02  0.33219878136E+03  0.00000000000E+00 0.  1.
         -3    1    6    6    0  503  0.43210628040E+01 -0.28148793606E+01 -0.15610658872E+02  0.16440431867E+02  0.00000000000E+00 0. -1.
<mgrwt>
<rscale>  0 0.21226241E+04</rscale>
<asrwt>0</asrwt>
<pdfrwt beam="1">  1        2 0.25632135E+00 0.21226241E+04</pdfrwt>
<pdfrwt beam="2">  1       -2 0.10400991E+00 0.21226241E+04</pdfrwt>
<totfact> 0.70857626E+00</totfact>
</mgrwt>
</event>
<event>
12    3  0.4688899E-008  0.1565786E+04  0.7818608E-02  0.8841847E-01
          2   -1    0    0  501    0  0.00000000000E+00  0.00000000000E+00  0.18015507762E+04  0.18015507762E+04  0.00000000000E+00 0. -1.
         -2   -1    0    0    0  501 -0.00000000000E+00 -0.00000000000E+00 -0.34021884826E+03  0.34021884826E+03  0.00000000000E+00 0.  1.
         23    2    1    2    0    0 -0.15038684976E+03 -0.19402433833E+03  0.11119907502E+04  0.11422100510E+04  0.88649442681E+02 0.  0.
        254    2    1    2    0    0  0.15038684976E+03  0.19402433833E+03  0.34934117776E+03  0.99955957347E+03  0.90378008054E+03 0.  0.
         23    2    4    4    0    0  0.95222333459E+02  0.15355239114E+03 -0.28790503803E+03  0.35184745914E+03  0.90893861003E+02 0.  0.
         23    2    4    4    0    0  0.55164516305E+02  0.40471947192E+02  0.63724621580E+03  0.64771211432E+03  0.93633013001E+02 0.  0.
          3    1    3    3  502    0 -0.89580027693E+02 -0.10745937548E+03  0.81547919892E+03  0.82739254445E+03  0.00000000000E+00 0. -1.
         -3    1    3    3    0  502 -0.60806822071E+02 -0.86564962848E+02  0.29651155124E+03  0.31481750654E+03  0.00000000000E+00 0.  1.
         13    1    5    5    0    0 -0.15057264836E+02  0.41136739992E+02 -0.49181117632E+02  0.65861482925E+02  0.00000000000E+00 0. -1.
        -13    1    5    5    0    0  0.11027959830E+03  0.11241565115E+03 -0.23872392040E+03  0.28598597622E+03  0.00000000000E+00 0.  1.
          3    1    6    6  503    0  0.96787116519E+01  0.97792513359E+01  0.76765445090E+01  0.15755651416E+02  0.00000000000E+00 0. -1.
         -3    1    6    6    0  503  0.45485804653E+02  0.30692695856E+02  0.62956967129E+03  0.63195646291E+03  0.00000000000E+00 0.  1.
<mgrwt>
<rscale>  0 0.15657861E+04</rscale>
<asrwt>0</asrwt>
<pdfrwt beam="1">  1        2 0.27716165E+00 0.15657861E+04</pdfrwt>
<pdfrwt beam="2">  1       -2 0.52341362E-01 0.15657861E+04</pdfrwt>
<totfact> 0.28521713E+01</totfact>
</mgrwt>
</event>
<event>
12    3  0.4688899E-008  0.2595293E+04  0.7818608E-02  0.8369802E-01
          2   -1    0    0  501    0  0.00000000000E+00  0.00000000000E+00  0.18052120250E+04  0.18052120250E+04  0.00000000000E+00 0.  1.
         -2   -1    0    0    0  501 -0.00000000000E+00 -0.00000000000E+00 -0.93279182950E+03  0.93279182950E+03  0.00000000000E+00 0. -1.
         23    2    1    2    0    0  0.20195394350E+03  0.67902744933E+03 -0.56744874174E+03  0.91442773995E+03  0.11097902885E+03 0.  0.
        254    2    1    2    0    0 -0.20195394350E+03 -0.67902744933E+03  0.14398689373E+04  0.18235761146E+04  0.86622376836E+03 0.  0.
         23    2    4    4    0    0 -0.17773467875E+03  0.79167932901E+02  0.25609096374E+02  0.21627602609E+03  0.90897282776E+02 0.  0.
         23    2    4    4    0    0 -0.24219264755E+02 -0.75819538223E+03  0.14142598409E+04  0.16073000885E+04  0.88520429394E+02 0.  0.
          3    1    3    3  502    0 -0.39837158265E+01  0.66300045841E+02 -0.84766569027E+02  0.10768907695E+03  0.00000000000E+00 0.  1.
         -3    1    3    3    0  502  0.20593765933E+03  0.61272740349E+03 -0.48268217272E+03  0.80673866300E+03  0.00000000000E+00 0. -1.
         13    1    5    5    0    0 -0.23330312291E+02  0.26159692734E+02  0.39049326482E+02  0.52473639994E+02  0.00000000000E+00 0. -1.
        -13    1    5    5    0    0 -0.15440436646E+03  0.53008240167E+02 -0.13440230108E+02  0.16380238610E+03  0.00000000000E+00 0.  1.
          2    1    6    6  503    0  0.12029230727E+02 -0.16469405671E+02  0.50443697695E+02  0.54410572063E+02  0.00000000000E+00 0. -1.
         -2    1    6    6    0  503 -0.36248495482E+02 -0.74172597656E+03  0.13638161432E+04  0.15528895164E+04  0.00000000000E+00 0.  1.
<mgrwt>
<rscale>  0 0.25952935E+04</rscale>
<asrwt>0</asrwt>
<pdfrwt beam="1">  1        2 0.27772493E+00 0.25952935E+04</pdfrwt>
<pdfrwt beam="2">  1       -2 0.14350644E+00 0.25952935E+04</pdfrwt>
<totfact> 0.25541907E+00</totfact>
</mgrwt>
</event>
<event>
12    3  0.4688899E-008  0.1933755E+04  0.7818608E-02  0.8638235E-01
         -1   -1    0    0    0  501 -0.00000000000E+00  0.00000000000E+00  0.21174189112E+03  0.21174189112E+03  0.00000000000E+00 0.  1.
          1   -1    0    0  501    0  0.00000000000E+00 -0.00000000000E+00 -0.44150535806E+04  0.44150535806E+04  0.00000000000E+00 0. -1.
         23    2    1    2    0    0  0.41516457295E+02  0.23400798398E+03 -0.34008100839E+04  0.34103399107E+04  0.91791760236E+02 0.  0.
        254    2    1    2    0    0 -0.41516457295E+02 -0.23400798398E+03 -0.80250160560E+03  0.12164555610E+04  0.88276381446E+03 0.  0.
         23    2    4    4    0    0  0.33036880191E+03 -0.14784040419E+03 -0.62254392222E+02  0.37858255936E+03  0.91917433130E+02 0.  0.
         23    2    4    4    0    0 -0.37188525920E+03 -0.86167579792E+02 -0.74024721338E+03  0.83787300165E+03  0.91333083558E+02 0.  0.
          4    1    3    3  502    0 -0.20240924719E+02  0.13716800797E+03 -0.20272808728E+04  0.20320168539E+04  0.00000000000E+00 0.  1.
         -4    1    3    3    0  502  0.61757382014E+02  0.96839976016E+02 -0.13735292111E+04  0.13783230568E+04  0.00000000000E+00 0. -1.
         13    1    5    5    0    0  0.25495794210E+03 -0.79338080559E+02 -0.18352996210E+02  0.26764699837E+03  0.00000000000E+00 0. -1.
        -13    1    5    5    0    0  0.75410859810E+02 -0.68502323631E+02 -0.43901396012E+02  0.11093556099E+03  0.00000000000E+00 0.  1.
          4    1    6    6  503    0 -0.28772039054E+03 -0.10420137032E+03 -0.56108326298E+03  0.63910513744E+03  0.00000000000E+00 0. -1.
         -4    1    6    6    0  503 -0.84164868668E+02  0.18033790525E+02 -0.17916395040E+03  0.19876786420E+03  0.00000000000E+00 0.  1.
<mgrwt>
<rscale>  0 0.19337547E+04</rscale>
<asrwt>0</asrwt>
<pdfrwt beam="1">  1        1 0.67923899E+00 0.19337547E+04</pdfrwt>
<pdfrwt beam="2">  1       -1 0.32575676E-01 0.19337547E+04</pdfrwt>
<totfact> 0.32772418E-01</totfact>
</mgrwt>
</event>
<event>
12    3  0.4688899E-008  0.1294616E+04  0.7818608E-02  0.9033846E-01
         -1   -1    0    0    0  501 -0.00000000000E+00  0.00000000000E+00  0.41024609658E+03  0.41024609658E+03  0.00000000000E+00 0.  1.
          1   -1    0    0  501    0  0.00000000000E+00 -0.00000000000E+00 -0.10213562003E+04  0.10213562003E+04  0.00000000000E+00 0. -1.
         23    2    1    2    0    0  0.22942903755E+03 -0.14233308060E+02  0.10333014448E+03  0.26828250134E+03  0.91967991386E+02 0.  0.
        254    2    1    2    0    0 -0.22942903755E+03  0.14233308060E+02 -0.71444024819E+03  0.11633197955E+04  0.88884633548E+03 0.  0.
         23    2    4    4    0    0  0.30807590665E+03 -0.92045050739E+02 -0.13422465130E+03  0.36001268039E+03  0.90608042687E+02 0.  0.
         23    2    4    4    0    0 -0.53750494420E+03  0.10627835880E+03 -0.58021559689E+03  0.80330711513E+03  0.91899552575E+02 0.  0.
          1    1    3    3  502    0  0.69149503031E+01  0.19979222086E+02  0.17146211658E+02  0.27220918924E+02  0.00000000000E+00 0. -1.
         -1    1    3    3    0  502  0.22251408725E+03 -0.34212530145E+02  0.86183932824E+02  0.24106158242E+03  0.00000000000E+00 0.  1.
         13    1    5    5    0    0  0.30255255048E+03 -0.74090110836E+02 -0.11224387088E+03  0.33109828884E+03  0.00000000000E+00 0. -1.
        -13    1    5    5    0    0  0.55233561722E+01 -0.17954939903E+02 -0.21980780430E+02  0.28914391549E+02  0.00000000000E+00 0.  1.
          4    1    6    6  503    0 -0.31178402714E+03  0.10756151424E+03 -0.34079892124E+03  0.47426012234E+03  0.00000000000E+00 0. -1.
         -4    1    6    6    0  503 -0.22572091706E+03 -0.12831554458E+01 -0.23941667564E+03  0.32904699279E+03  0.00000000000E+00 0.  1.
<mgrwt>
<rscale>  0 0.12946156E+04</rscale>
<asrwt>0</asrwt>
<pdfrwt beam="1">  1        1 0.15713172E+00 0.12946156E+04</pdfrwt>
<pdfrwt beam="2">  1       -1 0.63114786E-01 0.12946156E+04</pdfrwt>
<totfact> 0.36445872E+01</totfact>
</mgrwt>
</event>
<event>
12    3  0.4688899E-008  0.1215201E+04  0.7818608E-02  0.9099654E-01
          1   -1    0    0  501    0  0.00000000000E+00  0.00000000000E+00  0.64782633651E+03  0.64782633651E+03  0.00000000000E+00 0. -1.
         -1   -1    0    0    0  501 -0.00000000000E+00 -0.00000000000E+00 -0.56987280321E+03  0.56987280321E+03  0.00000000000E+00 0.  1.
         23    2    1    2    0    0  0.11246602019E+03 -0.92017815450E+02 -0.20191218327E+03  0.26540549411E+03  0.92496824251E+02 0.  0.
        254    2    1    2    0    0 -0.11246602019E+03  0.92017815450E+02  0.27986571657E+03  0.95229364561E+03  0.89856690575E+03 0.  0.
         23    2    4    4    0    0  0.55621561463E+02 -0.22929921116E+03 -0.21546489620E+03  0.33132335812E+03  0.87625109447E+02 0.  0.
         23    2    4    4    0    0 -0.16808758165E+03  0.32131702661E+03  0.49533061277E+03  0.62097028749E+03  0.93560757340E+02 0.  0.
          3    1    3    3  502    0  0.17767318270E+02 -0.46847430656E+02 -0.17197740812E+02  0.52972838763E+02  0.00000000000E+00 0. -1.
         -3    1    3    3    0  502  0.94698701917E+02 -0.45170384794E+02 -0.18471444246E+03  0.21243265535E+03  0.00000000000E+00 0.  1.
         13    1    5    5    0    0  0.25007714721E+02 -0.10283896384E+03 -0.40586543117E+02  0.11335124949E+03  0.00000000000E+00 0. -1.
        -13    1    5    5    0    0  0.30613846741E+02 -0.12646024732E+03 -0.17487835308E+03  0.21797210863E+03  0.00000000000E+00 0.  1.
          1    1    6    6  503    0 -0.46428384239E+02  0.36050016825E+02  0.44291890299E+02  0.73600068766E+02  0.00000000000E+00 0. -1.
         -1    1    6    6    0  503 -0.12165919741E+03  0.28526700978E+03  0.45103872247E+03  0.54737021873E+03  0.00000000000E+00 0.  1.
<mgrwt>
<rscale>  0 0.12152014E+04</rscale>
<asrwt>0</asrwt>
<pdfrwt beam="1">  1        1 0.99665591E-01 0.12152014E+04</pdfrwt>
<pdfrwt beam="2">  1       -1 0.87672738E-01 0.12152014E+04</pdfrwt>
<totfact> 0.38744582E+01</totfact>
</mgrwt>
</event>
<event>
12    3  0.4688899E-008  0.1050367E+04  0.7818608E-02  0.9254965E-01
         -1   -1    0    0    0  501 -0.00000000000E+00  0.00000000000E+00  0.21883049930E+03  0.21883049930E+03  0.00000000000E+00 0.  1.
          1   -1    0    0  501    0  0.00000000000E+00 -0.00000000000E+00 -0.12604167944E+04  0.12604167944E+04  0.00000000000E+00 0. -1.
         23    2    1    2    0    0 -0.86852476623E+02 -0.30033060804E+02 -0.28017975842E+03  0.31217170974E+03  0.10249459448E+03 0.  0.
        254    2    1    2    0    0  0.86852476623E+02  0.30033060804E+02 -0.76140653672E+03  0.11670755840E+04  0.87970459086E+03 0.  0.
         23    2    4    4    0    0 -0.29328045112E+03 -0.22992944500E+03 -0.18847583473E+03  0.42650127479E+03  0.86598062532E+02 0.  0.
         23    2    4    4    0    0  0.38013292774E+03  0.25996250580E+03 -0.57293070199E+03  0.74057430921E+03  0.90106442680E+02 0.  0.
          4    1    3    3  502    0 -0.75427480213E+02 -0.92286931865E+01 -0.27815758347E+03  0.28835068024E+03  0.00000000000E+00 0. -1.
         -4    1    3    3    0  502 -0.11424996410E+02 -0.20804367618E+02 -0.20221749433E+01  0.23821029500E+02  0.00000000000E+00 0.  1.
         13    1    5    5    0    0 -0.35226804606E+02 -0.69643045766E+02 -0.49662239253E+02  0.92506321914E+02  0.00000000000E+00 0. -1.
        -13    1    5    5    0    0 -0.25805364651E+03 -0.16028639923E+03 -0.13881359548E+03  0.33399495287E+03  0.00000000000E+00 0.  1.
          2    1    6    6  503    0  0.85887223189E+02  0.95792801359E+02 -0.11898552380E+03  0.17524391794E+03  0.00000000000E+00 0. -1.
         -2    1    6    6    0  503  0.29424570455E+03  0.16416970444E+03 -0.45394517819E+03  0.56533039128E+03  0.00000000000E+00 0.  1.
<mgrwt>
<rscale>  0 0.10503669E+04</rscale>
<asrwt>0</asrwt>
<pdfrwt beam="1">  1        1 0.19391028E+00 0.10503669E+04</pdfrwt>
<pdfrwt beam="2">  1       -1 0.33666230E-01 0.10503669E+04</pdfrwt>
<totfact> 0.80242129E+01</totfact>
</mgrwt>
</event>
<event>
12    3  0.4688899E-008  0.2024511E+04  0.7818608E-02  0.8595246E-01
          1   -1    0    0  501    0  0.00000000000E+00  0.00000000000E+00  0.16317870366E+04  0.16317870366E+04  0.00000000000E+00 0. -1.
         -1   -1    0    0    0  501 -0.00000000000E+00 -0.00000000000E+00 -0.62793790136E+03  0.62793790136E+03  0.00000000000E+00 0.  1.
         23    2    1    2    0    0  0.73266358593E+03 -0.33329152818E+03  0.34873147366E+03  0.88170392886E+03  0.88932584296E+02 0.  0.
        254    2    1    2    0    0 -0.73266358593E+03  0.33329152818E+03  0.65511766158E+03  0.13780210091E+04  0.90657794929E+03 0.  0.
         23    2    4    4    0    0  0.16546795782E+03 -0.64930237523E+02  0.10447614973E+02  0.19950666406E+03  0.89989863505E+02 0.  0.
         23    2    4    4    0    0 -0.89813154375E+03  0.39822176570E+03  0.64467004661E+03  0.11785143451E+04  0.89865165377E+02 0.  0.
          3    1    3    3  502    0  0.36277117425E+03 -0.15651918030E+03  0.21884978734E+03  0.45165961530E+03  0.00000000000E+00 0. -1.
         -3    1    3    3    0  502  0.36989241167E+03 -0.17677234788E+03  0.12988168632E+03  0.43004431356E+03  0.00000000000E+00 0.  1.
         13    1    5    5    0    0  0.11794391941E+01 -0.24151345710E+02 -0.14815482962E+02  0.28358016712E+02  0.00000000000E+00 0. -1.
        -13    1    5    5    0    0  0.16428851863E+03 -0.40778891813E+02  0.25263097936E+02  0.17114864735E+03  0.00000000000E+00 0.  1.
          1    1    6    6  503    0 -0.48261603837E+02  0.54586711950E+01  0.17513006450E+02  0.51630271073E+02  0.00000000000E+00 0. -1.
         -1    1    6    6    0  503 -0.84986993991E+03  0.39276309450E+03  0.62715704016E+03  0.11268840740E+04  0.00000000000E+00 0.  1.
<mgrwt>
<rscale>  0 0.20245107E+04</rscale>
<asrwt>0</asrwt>
<pdfrwt beam="1">  1        1 0.25104416E+00 0.20245107E+04</pdfrwt>
<pdfrwt beam="2">  1       -1 0.96605832E-01 0.20245107E+04</pdfrwt>
<totfact> 0.50643867E+00</totfact>
</mgrwt>
</event>
<event>
12    3  0.4688899E-008  0.1701682E+04  0.7818608E-02  0.8760405E-01
         -1   -1    0    0    0  501 -0.00000000000E+00  0.00000000000E+00  0.13756588660E+04  0.13756588660E+04  0.00000000000E+00 0.  1.
          1   -1    0    0  501    0  0.00000000000E+00 -0.00000000000E+00 -0.52624289519E+03  0.52624289519E+03  0.00000000000E+00 0. -1.
         23    2    1    2    0    0  0.78163503782E+02 -0.47591726659E+03 -0.10762638543E+03  0.50244682017E+03  0.90898791528E+02 0.  0.
        254    2    1    2    0    0 -0.78163503782E+02  0.47591726659E+03  0.95704235620E+03  0.13994549410E+04  0.89996515615E+03 0.  0.
         23    2    4    4    0    0 -0.33302414176E+03  0.54433831827E+03  0.91169244707E+03  0.11166387335E+04  0.92139347703E+02 0.  0.
         23    2    4    4    0    0  0.25486063798E+03 -0.68421051683E+02  0.45349909125E+02  0.28281620746E+03  0.91065953239E+02 0.  0.
          3    1    3    3  502    0  0.95530650427E+02 -0.42838977360E+03 -0.85230081359E+02  0.44711080289E+03  0.00000000000E+00 0. -1.
         -3    1    3    3    0  502 -0.17367146645E+02 -0.47527492993E+02 -0.22396304072E+02  0.55336017284E+02  0.00000000000E+00 0.  1.
         13    1    5    5    0    0 -0.30501808032E+02  0.49403848468E+02  0.13739539433E+03  0.14915962899E+03  0.00000000000E+00 0. -1.
        -13    1    5    5    0    0 -0.30252233373E+03  0.49493446980E+03  0.77429705274E+03  0.96747910452E+03  0.00000000000E+00 0.  1.
          1    1    6    6  503    0  0.20370474862E+02 -0.23800730829E+01 -0.21988284233E+02  0.30068349431E+02  0.00000000000E+00 0. -1.
         -1    1    6    6    0  503  0.23449016312E+03 -0.66040978600E+02  0.67338193358E+02  0.25274785803E+03  0.00000000000E+00 0.  1.
<mgrwt>
<rscale>  0 0.17016823E+04</rscale>
<asrwt>0</asrwt>
<pdfrwt beam="1">  1        1 0.80960446E-01 0.17016823E+04</pdfrwt>
<pdfrwt beam="2">  1       -1 0.21163982E+00 0.17016823E+04</pdfrwt>
<totfact> 0.49204926E+00</totfact>
</mgrwt>
</event>
<event>
12    3  0.4688899E-008  0.1544050E+04  0.7818608E-02  0.8855677E-01
         -2   -1    0    0    0  501 -0.00000000000E+00  0.00000000000E+00  0.17193774962E+03  0.17193774962E+03  0.00000000000E+00 0.  1.
          2   -1    0    0  501    0  0.00000000000E+00 -0.00000000000E+00 -0.34665037568E+04  0.34665037568E+04  0.00000000000E+00 0. -1.
         23    2    1    2    0    0 -0.19532024030E+03  0.17254188063E+03 -0.72692373341E+02  0.28535648021E+03  0.90683200296E+02 0.  0.
        254    2    1    2    0    0  0.19532024030E+03 -0.17254188063E+03 -0.32218736339E+04  0.33530850262E+04  0.89150927289E+03 0.  0.
         23    2    4    4    0    0 -0.18934739244E+03  0.26477979469E+03 -0.10782712912E+04  0.11298660233E+04  0.89260732643E+02 0.  0.
         23    2    4    4    0    0  0.38466763274E+03 -0.43732167532E+03 -0.21436023427E+04  0.22232190030E+04  0.91936370791E+02 0.  0.
          2    1    3    3  502    0 -0.26615037255E+02  0.56223608356E+02 -0.48775507988E+02  0.79047482719E+02  0.00000000000E+00 0. -1.
         -2    1    3    3    0  502 -0.16870520305E+03  0.11631827227E+03 -0.23916865354E+02  0.20630899750E+03  0.00000000000E+00 0.  1.
         13    1    5    5    0    0 -0.11327459784E+03  0.11969316619E+03 -0.66964268065E+03  0.68962229393E+03  0.00000000000E+00 0.  1.
        -13    1    5    5    0    0 -0.76072794605E+02  0.14508662850E+03 -0.40862861055E+03  0.44024372933E+03  0.00000000000E+00 0. -1.
          1    1    6    6  503    0  0.14563193307E+03 -0.22647825868E+03 -0.10646786031E+04  0.10981992485E+04  0.00000000000E+00 0. -1.
         -1    1    6    6    0  503  0.23903569967E+03 -0.21084341664E+03 -0.10789237396E+04  0.11250197545E+04  0.00000000000E+00 0.  1.
<mgrwt>
<rscale>  0 0.15440503E+04</rscale>
<asrwt>0</asrwt>
<pdfrwt beam="1">  1        2 0.53330828E+00 0.15440503E+04</pdfrwt>
<pdfrwt beam="2">  1       -2 0.26451961E-01 0.15440503E+04</pdfrwt>
<totfact> 0.10828659E+01</totfact>
</mgrwt>
</event>
<event>
12    3  0.4688899E-008  0.3306855E+04  0.7818608E-02  0.8161153E-01
          2   -1    0    0  501    0  0.00000000000E+00  0.00000000000E+00  0.34166727138E+04  0.34166727138E+04  0.00000000000E+00 0. -1.
         -2   -1    0    0    0  501 -0.00000000000E+00 -0.00000000000E+00 -0.80014192556E+03  0.80014192556E+03  0.00000000000E+00 0.  1.
         23    2    1    2    0    0  0.81725126256E+03  0.32750425359E+03  0.28079572929E+04  0.29444653894E+04  0.10046694986E+03 0.  0.
        254    2    1    2    0    0 -0.81725126256E+03 -0.32750425359E+03 -0.19142650468E+03  0.12723492500E+04  0.89837066125E+03 0.  0.
         23    2    4    4    0    0 -0.71433485450E+03  0.69352499130E+02  0.14052703084E+03  0.73691093778E+03  0.90586038283E+02 0.  0.
         23    2    4    4    0    0 -0.10291640805E+03 -0.39685675272E+03 -0.33195353551E+03  0.53543831222E+03  0.91727679674E+02 0.  0.
          3    1    3    3  502    0  0.37742041515E+03  0.20353434907E+03  0.14020763511E+04  0.14661822859E+04  0.00000000000E+00 0. -1.
         -3    1    3    3    0  502  0.43983084741E+03  0.12396990452E+03  0.14058809418E+04  0.14782831035E+04  0.00000000000E+00 0.  1.
         13    1    5    5    0    0 -0.65031385051E+03  0.54632571903E+02  0.15238042089E+03  0.67015864894E+03  0.00000000000E+00 0.  1.
        -13    1    5    5    0    0 -0.64021003996E+02  0.14719927227E+02 -0.11853390052E+02  0.66752288844E+02  0.00000000000E+00 0. -1.
          3    1    6    6  503    0 -0.64536847836E+02 -0.28281212759E+03 -0.28383399636E+03  0.40584411013E+03  0.00000000000E+00 0.  1.
         -3    1    6    6    0  503 -0.38379560218E+02 -0.11404462514E+03 -0.48119539152E+02  0.12959420208E+03  0.00000000000E+00 0. -1.
<mgrwt>
<rscale>  0 0.33068554E+04</rscale>
<asrwt>0</asrwt>
<pdfrwt beam="1">  1        2 0.52564195E+00 0.33068554E+04</pdfrwt>
<pdfrwt beam="2">  1       -2 0.12309876E+00 0.33068554E+04</pdfrwt>
<totfact> 0.38574788E-01</totfact>
</mgrwt>
</event>
<event>
12    3  0.4688899E-008  0.1532770E+04  0.7818608E-02  0.8862949E-01
         -2   -1    0    0    0  501 -0.00000000000E+00  0.00000000000E+00  0.49220991768E+03  0.49220991768E+03  0.00000000000E+00 0.  1.
          2   -1    0    0  501    0  0.00000000000E+00 -0.00000000000E+00 -0.11932841239E+04  0.11932841239E+04  0.00000000000E+00 0. -1.
         23    2    1    2    0    0  0.79817035752E+01  0.39112934415E+03 -0.56976557513E+03  0.69820167713E+03  0.99029792978E+02 0.  0.
        254    2    1    2    0    0 -0.79817035752E+01 -0.39112934415E+03 -0.13130863111E+03  0.98729236446E+03  0.89691604115E+03 0.  0.
         23    2    4    4    0    0 -0.29618107360E+03  0.97114637179E+02 -0.23662491371E+03  0.40300595945E+03  0.96270309272E+02 0.  0.
         23    2    4    4    0    0  0.28819937002E+03 -0.48824398133E+03  0.10531628260E+03  0.58428640502E+03  0.94117062836E+02 0.  0.
          3    1    3    3  502    0  0.60627201503E+01  0.30592068471E+03 -0.50766841858E+03  0.59274905747E+03  0.00000000000E+00 0.  1.
         -3    1    3    3    0  502  0.19189834249E+01  0.85208659446E+02 -0.62097156547E+02  0.10545261966E+03  0.00000000000E+00 0. -1.
         13    1    5    5    0    0 -0.28484537961E+03  0.10061567604E+03 -0.19461792157E+03  0.35935572897E+03  0.00000000000E+00 0.  1.
        -13    1    5    5    0    0 -0.11335693989E+02 -0.35010388653E+01 -0.42006992143E+02  0.43650230472E+02  0.00000000000E+00 0. -1.
          2    1    6    6  503    0  0.17321623012E+02 -0.91756952553E+02  0.35974219946E+01  0.93446874804E+02  0.00000000000E+00 0. -1.
         -2    1    6    6    0  503  0.27087774701E+03 -0.39648702878E+03  0.10171886061E+03  0.49083953021E+03  0.00000000000E+00 0.  1.
<mgrwt>
<rscale>  0 0.15327704E+04</rscale>
<asrwt>0</asrwt>
<pdfrwt beam="1">  1        2 0.18358217E+00 0.15327704E+04</pdfrwt>
<pdfrwt beam="2">  1       -2 0.75724604E-01 0.15327704E+04</pdfrwt>
<totfact> 0.28803576E+01</totfact>
</mgrwt>
</event>
<event>
12    3  0.4688899E-008  0.1157376E+04  0.7818608E-02  0.9151006E-01
         -2   -1    0    0    0  501 -0.00000000000E+00  0.00000000000E+00  0.73117839972E+03  0.73117839972E+03  0.00000000000E+00 0.  1.
          2   -1    0    0  501    0  0.00000000000E+00 -0.00000000000E+00 -0.45799980850E+03  0.45799980850E+03  0.00000000000E+00 0. -1.
         23    2    1    2    0    0  0.14328434465E+03  0.19012531884E+02 -0.13031089807E+03  0.21343140995E+03  0.87636503843E+02 0.  0.
        254    2    1    2    0    0 -0.14328434465E+03 -0.19012531884E+02  0.40348948929E+03  0.97574679827E+03  0.87657638947E+03 0.  0.
         23    2    4    4    0    0 -0.33932520833E+03 -0.60965240772E+02 -0.14439486129E+03  0.38480525898E+03  0.91470507722E+02 0.  0.
         23    2    4    4    0    0  0.19604086367E+03  0.41952708888E+02  0.54788435057E+03  0.59094153929E+03  0.94035053271E+02 0.  0.
          1    1    3    3  502    0  0.13545758681E+03  0.36540405055E+02 -0.84548522829E+02  0.16380601863E+03  0.00000000000E+00 0. -1.
         -1    1    3    3    0  502  0.78267578444E+01 -0.17527873171E+02 -0.45762375240E+02  0.49625391322E+02  0.00000000000E+00 0.  1.
         13    1    5    5    0    0 -0.21482628827E+03 -0.49082601984E+02 -0.13709562864E+03  0.25952773906E+03  0.00000000000E+00 0.  1.
        -13    1    5    5    0    0 -0.12449892006E+03 -0.11882638787E+02 -0.72992326482E+01  0.12527751992E+03  0.00000000000E+00 0. -1.
          3    1    6    6  503    0  0.76041521759E+01 -0.18636823923E+02  0.26709813325E+02  0.33445006565E+02  0.00000000000E+00 0. -1.
         -3    1    6    6    0  503  0.18843671150E+03  0.60589532811E+02  0.52117453725E+03  0.55749653273E+03  0.00000000000E+00 0.  1.
<mgrwt>
<rscale>  0 0.11573756E+04</rscale>
<asrwt>0</asrwt>
<pdfrwt beam="1">  1        2 0.70461509E-01 0.11573756E+04</pdfrwt>
<pdfrwt beam="2">  1       -2 0.11248898E+00 0.11573756E+04</pdfrwt>
<totfact> 0.41957715E+01</totfact>
</mgrwt>
</event>
<event>
12    3  0.4688899E-008  0.1644762E+04  0.7818608E-02  0.8793511E-01
          2   -1    0    0  501    0  0.00000000000E+00  0.00000000000E+00  0.25773573025E+04  0.25773573025E+04  0.00000000000E+00 0. -1.
         -2   -1    0    0    0  501 -0.00000000000E+00 -0.00000000000E+00 -0.26240450987E+03  0.26240450987E+03  0.00000000000E+00 0.  1.
         23    2    1    2    0    0 -0.12007904531E+03  0.47293960635E+03  0.30764048179E+03  0.58393598119E+03  0.90816935180E+02 0.  0.
        254    2    1    2    0    0  0.12007904531E+03 -0.47293960635E+03  0.20073123108E+04  0.22558258312E+04  0.90628727179E+03 0.  0.
         23    2    4    4    0    0 -0.19505535717E+03 -0.45310903180E+03  0.17969125068E+04  0.18656429022E+04  0.91512263768E+02 0.  0.
         23    2    4    4    0    0  0.31513440248E+03 -0.19830574554E+02  0.21039980400E+03  0.39018292894E+03  0.90948871334E+02 0.  0.
          2    1    3    3  502    0 -0.41701983813E+02  0.31882789616E+03  0.17546215511E+03  0.36630213035E+03  0.00000000000E+00 0.  1.
         -2    1    3    3    0  502 -0.78377061501E+02  0.15411171019E+03  0.13217832668E+03  0.21763385084E+03  0.00000000000E+00 0. -1.
         13    1    5    5    0    0 -0.13749726472E+03 -0.39724472593E+03  0.14598392859E+04  0.15191575332E+04  0.00000000000E+00 0. -1.
        -13    1    5    5    0    0 -0.57558092448E+02 -0.55864305869E+02  0.33707322093E+03  0.34648536902E+03  0.00000000000E+00 0.  1.
          1    1    6    6  503    0  0.95878870504E+02  0.10095203596E+02  0.20457667349E+02  0.98555502627E+02  0.00000000000E+00 0. -1.
         -1    1    6    6    0  503  0.21925553198E+03 -0.29925778150E+02  0.18994213666E+03  0.29162742631E+03  0.00000000000E+00 0.  1.
<mgrwt>
<rscale>  0 0.16447616E+04</rscale>
<asrwt>0</asrwt>
<pdfrwt beam="1">  1        2 0.39651649E+00 0.16447616E+04</pdfrwt>
<pdfrwt beam="2">  1       -2 0.40369926E-01 0.16447616E+04</pdfrwt>
<totfact> 0.17457764E+01</totfact>
</mgrwt>
</event>
<event>
12    3  0.4688899E-008  0.9808103E+03  0.7818608E-02  0.9329846E-01
          2   -1    0    0  501    0  0.00000000000E+00  0.00000000000E+00  0.99496887445E+03  0.99496887445E+03  0.00000000000E+00 0. -1.
         -2   -1    0    0    0  501 -0.00000000000E+00 -0.00000000000E+00 -0.24171328581E+03  0.24171328581E+03  0.00000000000E+00 0.  1.
         23    2    1    2    0    0 -0.84268671610E+02  0.51707066795E+01 -0.19615478243E+02  0.12619886023E+03  0.91724806422E+02 0.  0.
        254    2    1    2    0    0  0.84268671610E+02 -0.51707066795E+01  0.77287106688E+03  0.11104833000E+04  0.79291583942E+03 0.  0.
         23    2    4    4    0    0  0.10966757359E+03 -0.29078791750E+03  0.49665410439E+02  0.32661478380E+03  0.87326824881E+02 0.  0.
         23    2    4    4    0    0 -0.25398901982E+02  0.28561721082E+03  0.72320565644E+03  0.78386851623E+03  0.95922541120E+02 0.  0.
          3    1    3    3  502    0 -0.34884717776E+02 -0.33728592480E+02  0.19347903283E+02  0.52238901658E+02  0.00000000000E+00 0. -1.
         -3    1    3    3    0  502 -0.49383953834E+02  0.38899299160E+02 -0.38963381526E+02  0.73959958568E+02  0.00000000000E+00 0.  1.
         13    1    5    5    0    0  0.59420942345E+02 -0.89946889759E+02  0.51735015225E+02  0.11957342166E+03  0.00000000000E+00 0.  1.
        -13    1    5    5    0    0  0.50246631246E+02 -0.20084102774E+03 -0.20696047860E+01  0.20704136214E+03  0.00000000000E+00 0. -1.
          1    1    6    6  503    0 -0.40945397962E+00 -0.46230327910E+01  0.51548954911E+02  0.51757461657E+02  0.00000000000E+00 0. -1.
         -1    1    6    6    0  503 -0.24989448003E+02  0.29024024361E+03  0.67165670153E+03  0.73211105458E+03  0.00000000000E+00 0.  1.
<mgrwt>
<rscale>  0 0.98081027E+03</rscale>
<asrwt>0</asrwt>
<pdfrwt beam="1">  1        2 0.15307213E+00 0.98081027E+03</pdfrwt>
<pdfrwt beam="2">  1       -2 0.37186660E-01 0.98081027E+03</pdfrwt>
<totfact> 0.17269048E+02</totfact>
</mgrwt>
</event>
<event>
12    3  0.4688899E-008  0.1623581E+04  0.7818608E-02  0.8806191E-01
          1   -1    0    0  501    0  0.00000000000E+00  0.00000000000E+00  0.21096402604E+04  0.21096402604E+04  0.00000000000E+00 0. -1.
         -1   -1    0    0    0  501 -0.00000000000E+00 -0.00000000000E+00 -0.31237744111E+03  0.31237744111E+03  0.00000000000E+00 0.  1.
         23    2    1    2    0    0  0.57934341693E+02 -0.56209834223E+03  0.55813280399E+03  0.79934199451E+03  0.90135803189E+02 0.  0.
        254    2    1    2    0    0 -0.57934341693E+02  0.56209834223E+03  0.12391300153E+04  0.16226757070E+04  0.88222577666E+03 0.  0.
         23    2    4    4    0    0  0.81017320589E+02  0.51796607563E+03  0.19807623449E+03  0.56754445886E+03  0.89553650830E+02 0.  0.
         23    2    4    4    0    0 -0.13895166228E+03  0.44132266599E+02  0.10410537808E+04  0.10551312482E+04  0.90850177997E+02 0.  0.
          2    1    3    3  502    0  0.46316410045E+02 -0.14350313294E+03  0.18307271155E+03  0.23717920802E+03  0.00000000000E+00 0. -1.
         -2    1    3    3    0  502  0.11617931648E+02 -0.41859520929E+03  0.37506009244E+03  0.56216278649E+03  0.00000000000E+00 0.  1.
         13    1    5    5    0    0  0.91463919166E+02  0.30059915609E+03  0.11388334226E+03  0.33420789458E+03  0.00000000000E+00 0. -1.
        -13    1    5    5    0    0 -0.10446598577E+02  0.21736691954E+03  0.84192892224E+02  0.23333656429E+03  0.00000000000E+00 0.  1.
          1    1    6    6  503    0 -0.92864433965E+02  0.50635268930E+02  0.90863852107E+03  0.91477412268E+03  0.00000000000E+00 0. -1.
         -1    1    6    6    0  503 -0.46087228318E+02 -0.65030023308E+01  0.13241525976E+03  0.14035712547E+03  0.00000000000E+00 0.  1.
<mgrwt>
<rscale>  0 0.16235813E+04</rscale>
<asrwt>0</asrwt>
<pdfrwt beam="1">  1        1 0.32456003E+00 0.16235813E+04</pdfrwt>
<pdfrwt beam="2">  1       -1 0.48058069E-01 0.16235813E+04</pdfrwt>
<totfact> 0.10410103E+01</totfact>
</mgrwt>
</event>
<event>
12    3  0.4688899E-008  0.1203006E+04  0.7818608E-02  0.9110230E-01
          1   -1    0    0  501    0  0.00000000000E+00  0.00000000000E+00  0.16993699617E+04  0.16993699617E+04  0.00000000000E+00 0. -1.
         -1   -1    0    0    0  501 -0.00000000000E+00 -0.00000000000E+00 -0.21290572897E+03  0.21290572897E+03  0.00000000000E+00 0.  1.
         23    2    1    2    0    0 -0.15852064551E+03 -0.20345645460E+03  0.28667770881E+03  0.39629520926E+03  0.91337069027E+02 0.  0.
        254    2    1    2    0    0  0.15852064551E+03  0.20345645460E+03  0.11997865239E+04  0.15159804814E+04  0.89004819705E+03 0.  0.
         23    2    4    4    0    0 -0.29504209804E+03 -0.15055090326E+03  0.40846473428E+03  0.53328343026E+03  0.88500642649E+02 0.  0.
         23    2    4    4    0    0  0.45356274354E+03  0.35400735787E+03  0.79132178961E+03  0.98269705114E+03  0.91994281572E+02 0.  0.
          4    1    3    3  502    0  0.14890682854E+01  0.73144910941E+01  0.22360534317E+01  0.77922422494E+01  0.00000000000E+00 0. -1.
         -4    1    3    3    0  502 -0.16000971379E+03 -0.21077094570E+03  0.28444165538E+03  0.38850296701E+03  0.00000000000E+00 0.  1.
         13    1    5    5    0    0 -0.43650107375E+02 -0.58710784634E+02  0.11305483735E+03  0.13466136920E+03  0.00000000000E+00 0. -1.
        -13    1    5    5    0    0 -0.25139199066E+03 -0.91840118629E+02  0.29540989693E+03  0.39862206106E+03  0.00000000000E+00 0.  1.
          3    1    6    6  503    0  0.10678894629E+03  0.11803966481E+03  0.16842053441E+03  0.23173846882E+03  0.00000000000E+00 0. -1.
         -3    1    6    6    0  503  0.34677379725E+03  0.23596769306E+03  0.62290125520E+03  0.75095858232E+03  0.00000000000E+00 0.  1.
<mgrwt>
<rscale>  0 0.12030056E+04</rscale>
<asrwt>0</asrwt>
<pdfrwt beam="1">  1        1 0.26144152E+00 0.12030056E+04</pdfrwt>
<pdfrwt beam="2">  1       -1 0.32754729E-01 0.12030056E+04</pdfrwt>
<totfact> 0.41252539E+01</totfact>
</mgrwt>
</event>
<event>
12    3  0.4688899E-008  0.1105067E+04  0.7818608E-02  0.9200267E-01
         -1   -1    0    0    0  501 -0.00000000000E+00  0.00000000000E+00  0.16271582776E+03  0.16271582776E+03  0.00000000000E+00 0.  1.
          1   -1    0    0  501    0  0.00000000000E+00 -0.00000000000E+00 -0.18762367136E+04  0.18762367136E+04  0.00000000000E+00 0. -1.
         23    2    1    2    0    0 -0.11161068272E+03 -0.89305664805E+02 -0.28405631742E+03  0.33889717645E+03  0.11717874583E+03 0.  0.
        254    2    1    2    0    0  0.11161068272E+03  0.89305664805E+02 -0.14294645684E+04  0.17000553649E+04  0.90905821878E+03 0.  0.
         23    2    4    4    0    0  0.44839278060E+03  0.24535577253E+03 -0.98780028382E+03  0.11157432635E+04  0.88758597252E+02 0.  0.
         23    2    4    4    0    0 -0.33678209788E+03 -0.15605010772E+03 -0.44166428463E+03  0.58431210140E+03  0.92625449830E+02 0.  0.
          1    1    3    3  502    0 -0.83235533079E+02 -0.92492258248E+02 -0.28430536275E+03  0.31034257054E+03  0.00000000000E+00 0. -1.
         -1    1    3    3    0  502 -0.28375149644E+02  0.31865934428E+01  0.24904532392E+00  0.28554605909E+02  0.00000000000E+00 0.  1.
         13    1    5    5    0    0  0.14088197398E+03  0.55973418594E+02 -0.21908330236E+03  0.26641743103E+03  0.00000000000E+00 0. -1.
        -13    1    5    5    0    0  0.30751080662E+03  0.18938235394E+03 -0.76871698146E+03  0.84932583250E+03  0.00000000000E+00 0.  1.
          1    1    6    6  503    0 -0.98963405616E+02 -0.82537784134E+02 -0.10870402178E+03  0.16859064569E+03  0.00000000000E+00 0. -1.
         -1    1    6    6    0  503 -0.23781869227E+03 -0.73512323591E+02 -0.33296026284E+03  0.41572145572E+03  0.00000000000E+00 0.  1.
<mgrwt>
<rscale>  0 0.11050673E+04</rscale>
<asrwt>0</asrwt>
<pdfrwt beam="1">  1        1 0.28865179E+00 0.11050673E+04</pdfrwt>
<pdfrwt beam="2">  1       -1 0.25033206E-01 0.11050673E+04</pdfrwt>
<totfact> 0.50431643E+01</totfact>
</mgrwt>
</event>
<event>
12    3  0.4688899E-008  0.1427831E+04  0.7818608E-02  0.8933916E-01
          1   -1    0    0  501    0  0.00000000000E+00  0.00000000000E+00  0.58512953637E+03  0.58512953637E+03  0.00000000000E+00 0. -1.
         -1   -1    0    0    0  501 -0.00000000000E+00 -0.00000000000E+00 -0.87104705027E+03  0.87104705027E+03  0.00000000000E+00 0.  1.
         23    2    1    2    0    0 -0.33295980498E+03 -0.25468416341E+02 -0.34556589025E+03  0.48965424613E+03  0.93992682056E+02 0.  0.
        254    2    1    2    0    0  0.33295980498E+03  0.25468416341E+02  0.59648376351E+02  0.96652234051E+03  0.90503957590E+03 0.  0.
         23    2    4    4    0    0 -0.15191137901E+02  0.41407789351E+03  0.10715735393E+03  0.43646581690E+03  0.85606298018E+02 0.  0.
         23    2    4    4    0    0  0.34815094288E+03 -0.38860947717E+03 -0.47508977580E+02  0.53005652360E+03  0.80476148590E+02 0.  0.
          4    1    3    3  502    0 -0.42821450882E+02 -0.20349915330E+02 -0.95365662983E+02  0.10650072951E+03  0.00000000000E+00 0. -1.
         -4    1    3    3    0  502 -0.29013835410E+03 -0.51185010115E+01 -0.25020022727E+03  0.38315351662E+03  0.00000000000E+00 0.  1.
         13    1    5    5    0    0  0.32933552200E+02  0.14290918279E+03  0.51926038523E+02  0.15557624132E+03  0.00000000000E+00 0.  1.
        -13    1    5    5    0    0 -0.48124690101E+02  0.27116871072E+03  0.55231315408E+02  0.28088957559E+03  0.00000000000E+00 0. -1.
          3    1    6    6  503    0  0.34897125537E+03 -0.38997925331E+03 -0.42781458508E+02  0.52506667032E+03  0.00000000000E+00 0. -1.
         -3    1    6    6    0  503 -0.82031248758E+00  0.13697761424E+01 -0.47275190719E+01  0.49898532877E+01  0.00000000000E+00 0.  1.
<mgrwt>
<rscale>  0 0.14278310E+04</rscale>
<asrwt>0</asrwt>
<pdfrwt beam="1">  1        1 0.90019929E-01 0.14278310E+04</pdfrwt>
<pdfrwt beam="2">  1       -1 0.13400724E+00 0.14278310E+04</pdfrwt>
<totfact> 0.16223176E+01</totfact>
</mgrwt>
</event>
<event>
12    3  0.4688899E-008  0.1033388E+04  0.7818608E-02  0.9272665E-01
         -1   -1    0    0    0  501 -0.00000000000E+00  0.00000000000E+00  0.20544986802E+03  0.20544986802E+03  0.00000000000E+00 0.  1.
          1   -1    0    0  501    0  0.00000000000E+00 -0.00000000000E+00 -0.12994549195E+04  0.12994549195E+04  0.00000000000E+00 0. -1.
         23    2    1    2    0    0  0.11256353885E+03  0.50557413769E+01 -0.87585167089E+02  0.16977642945E+03  0.91960663889E+02 0.  0.
        254    2    1    2    0    0 -0.11256353885E+03 -0.50557413769E+01 -0.10064198844E+04  0.13351283581E+04  0.87005208928E+03 0.  0.
         23    2    4    4    0    0 -0.96268008974E+02 -0.29872186814E+03 -0.50425746043E+02  0.33068875028E+03  0.91159254283E+02 0.  0.
         23    2    4    4    0    0 -0.16295529872E+02  0.29366612676E+03 -0.95599413837E+03  0.10044396078E+04  0.92026055318E+02 0.  0.
          1    1    3    3  502    0  0.95474113034E+00 -0.10572871105E+02 -0.49791140456E+02  0.50910262246E+02  0.00000000000E+00 0. -1.
         -1    1    3    3    0  502  0.11160879772E+03  0.15628612482E+02 -0.37794026633E+02  0.11886616720E+03  0.00000000000E+00 0.  1.
         13    1    5    5    0    0 -0.40263364021E+02 -0.21017299176E+03 -0.67813107365E+02  0.22448261063E+03  0.00000000000E+00 0.  1.
        -13    1    5    5    0    0 -0.56004644952E+02 -0.88548876381E+02  0.17387361322E+02  0.10620613965E+03  0.00000000000E+00 0. -1.
          2    1    6    6  503    0 -0.41091688166E+01 -0.59732696881E+01 -0.12704498209E+02  0.14627696124E+02  0.00000000000E+00 0. -1.
         -2    1    6    6    0  503 -0.12186361055E+02  0.29963939645E+03 -0.94328964016E+03  0.98981191170E+03  0.00000000000E+00 0.  1.
<mgrwt>
<rscale>  0 0.10333883E+04</rscale>
<asrwt>0</asrwt>
<pdfrwt beam="1">  1        1 0.19991614E+00 0.10333883E+04</pdfrwt>
<pdfrwt beam="2">  1       -1 0.31607672E-01 0.10333883E+04</pdfrwt>
<totfact> 0.84240169E+01</totfact>
</mgrwt>
</event>
<event>
12    3  0.4688899E-008  0.1838309E+04  0.7818608E-02  0.8686188E-01
          2   -1    0    0  501    0  0.00000000000E+00  0.00000000000E+00  0.33553832130E+04  0.33553832130E+04  0.00000000000E+00 0. -1.
         -2   -1    0    0    0  501 -0.00000000000E+00 -0.00000000000E+00 -0.25178797219E+03  0.25178797219E+03  0.00000000000E+00 0.  1.
         23    2    1    2    0    0  0.32740777421E+03 -0.56230964133E+03  0.70821344778E+03  0.96530270294E+03  0.82795152882E+02 0.  0.
        254    2    1    2    0    0 -0.32740777421E+03  0.56230964133E+03  0.23953817931E+04  0.26418684823E+04  0.90455909689E+03 0.  0.
         23    2    4    4    0    0 -0.52798302654E+03  0.16023380530E+03  0.18319234670E+04  0.19152945585E+04  0.89267622207E+02 0.  0.
         23    2    4    4    0    0  0.20057525233E+03  0.40207583603E+03  0.56345832610E+03  0.72657392377E+03  0.92352431914E+02 0.  0.
          4    1    3    3  502    0  0.20213940476E+02 -0.96011321665E+01  0.36200264410E+02  0.42558715580E+02  0.00000000000E+00 0. -1.
         -4    1    3    3    0  502  0.30719383373E+03 -0.55270850917E+03  0.67201318336E+03  0.92274398736E+03  0.00000000000E+00 0.  1.
         13    1    5    5    0    0 -0.14994714085E+03  0.52371572405E+02  0.39979668107E+03  0.43019101901E+03  0.00000000000E+00 0. -1.
        -13    1    5    5    0    0 -0.37803588569E+03  0.10786223289E+03  0.14321267859E+04  0.14851035395E+04  0.00000000000E+00 0.  1.
          3    1    6    6  503    0  0.13060248603E+03  0.16037742377E+03  0.26660849288E+03  0.33742853448E+03  0.00000000000E+00 0. -1.
         -3    1    6    6    0  503  0.69972766300E+02  0.24169841227E+03  0.29684983323E+03  0.38914538928E+03  0.00000000000E+00 0.  1.
<mgrwt>
<rscale>  0 0.18383092E+04</rscale>
<asrwt>0</asrwt>
<pdfrwt beam="1">  1        2 0.51621277E+00 0.18383092E+04</pdfrwt>
<pdfrwt beam="2">  1       -2 0.38736613E-01 0.18383092E+04</pdfrwt>
<totfact> 0.60975730E+00</totfact>
</mgrwt>
</event>
<event>
12    3  0.4688899E-008  0.2371703E+04  0.7818608E-02  0.8450174E-01
         -3   -1    0    0    0  501 -0.00000000000E+00  0.00000000000E+00  0.19540039462E+04  0.19540039462E+04  0.00000000000E+00 0.  1.
          3   -1    0    0  501    0  0.00000000000E+00 -0.00000000000E+00 -0.71967271679E+03  0.71967271679E+03  0.00000000000E+00 0. -1.
         23    2    1    2    0    0 -0.85698839040E+03 -0.17054388152E+03  0.11730322769E+04  0.14655329230E+04  0.90926942214E+02 0.  0.
        254    2    1    2    0    0  0.85698839040E+03  0.17054388152E+03  0.61298952511E+02  0.12081437400E+04  0.83206935901E+03 0.  0.
         23    2    4    4    0    0  0.69024848895E+03  0.47672057837E+03  0.24266432065E+02  0.84415058794E+03  0.91081661437E+02 0.  0.
         23    2    4    4    0    0  0.16673990145E+03 -0.30617669685E+03  0.37032520446E+02  0.36399315210E+03  0.97842949552E+02 0.  0.
          4    1    3    3  502    0 -0.10748337106E+03  0.13586775458E+01  0.11297953324E+03  0.15594516982E+03  0.00000000000E+00 0. -1.
         -4    1    3    3    0  502 -0.74950501935E+03 -0.17190255907E+03  0.10600527437E+04  0.13095877532E+04  0.00000000000E+00 0.  1.
         13    1    5    5    0    0  0.68615994011E+03  0.47386702759E+03  0.32506977708E+02  0.83451909916E+03  0.00000000000E+00 0.  1.
        -13    1    5    5    0    0  0.40885488346E+01  0.28535507791E+01 -0.82405456439E+01  0.96314887806E+01  0.00000000000E+00 0. -1.
          2    1    6    6  503    0  0.10312185641E+03 -0.12169033649E+03  0.53279649966E+02  0.16817067629E+03  0.00000000000E+00 0. -1.
         -2    1    6    6    0  503  0.63618045037E+02 -0.18448636036E+03 -0.16247129520E+02  0.19582247581E+03  0.00000000000E+00 0.  1.
<mgrwt>
<rscale>  0 0.23717026E+04</rscale>
<asrwt>0</asrwt>
<pdfrwt beam="1">  1        3 0.11071888E+00 0.23717026E+04</pdfrwt>
<pdfrwt beam="2">  1       -3 0.30061599E+00 0.23717026E+04</pdfrwt>
<totfact> 0.60919489E-02</totfact>
</mgrwt>
</event>
<event>
12    3  0.4688899E-008  0.2524177E+04  0.7818608E-02  0.8394423E-01
          1   -1    0    0  501    0  0.00000000000E+00  0.00000000000E+00  0.17585316115E+04  0.17585316115E+04  0.00000000000E+00 0. -1.
         -1   -1    0    0    0  501 -0.00000000000E+00 -0.00000000000E+00 -0.90579366965E+03  0.90579366965E+03  0.00000000000E+00 0.  1.
         23    2    1    2    0    0 -0.41720497333E+03 -0.10038313770E+04  0.52828914671E+03  0.12121294394E+04  0.91820107015E+02 0.  0.
        254    2    1    2    0    0  0.41720497333E+03  0.10038313770E+04  0.32444879510E+03  0.14521958417E+04  0.90656953341E+03 0.  0.
         23    2    4    4    0    0 -0.13422550140E+03  0.58253647689E+03 -0.12966533452E+03  0.61809871035E+03  0.88699969674E+02 0.  0.
         23    2    4    4    0    0  0.55143047473E+03  0.42129490011E+03  0.45411412962E+03  0.83409713139E+03  0.89069751075E+02 0.  0.
          2    1    3    3  502    0 -0.78170230828E+02 -0.17543739861E+03  0.13314783617E+03  0.23370325649E+03  0.00000000000E+00 0.  1.
         -2    1    3    3    0  502 -0.33903474250E+03 -0.82839397839E+03  0.39514131054E+03  0.97842618289E+03  0.00000000000E+00 0. -1.
         13    1    5    5    0    0 -0.13994950433E+03  0.57422727047E+03 -0.11804374345E+03  0.60270817755E+03  0.00000000000E+00 0. -1.
        -13    1    5    5    0    0  0.57240029301E+01  0.83092064240E+01 -0.11621591070E+02  0.15390532802E+02  0.00000000000E+00 0.  1.
          2    1    6    6  503    0  0.47924832108E+03  0.38860642945E+03  0.42699643394E+03  0.75034649654E+03  0.00000000000E+00 0. -1.
         -2    1    6    6    0  503  0.72182153650E+02  0.32688470654E+02  0.27117695683E+02  0.83750634854E+02  0.00000000000E+00 0.  1.
<mgrwt>
<rscale>  0 0.25241765E+04</rscale>
<asrwt>0</asrwt>
<pdfrwt beam="1">  1        1 0.27054332E+00 0.25241765E+04</pdfrwt>
<pdfrwt beam="2">  1       -1 0.13935287E+00 0.25241765E+04</pdfrwt>
<totfact> 0.16351991E+00</totfact>
</mgrwt>
</event>
<event>
12    3  0.4688899E-008  0.2812301E+04  0.7818608E-02  0.8299460E-01
         -1   -1    0    0    0  501 -0.00000000000E+00  0.00000000000E+00  0.78499219784E+03  0.78499219784E+03  0.00000000000E+00 0.  1.
          1   -1    0    0  501    0  0.00000000000E+00 -0.00000000000E+00 -0.25188264826E+04  0.25188264826E+04  0.00000000000E+00 0. -1.
         23    2    1    2    0    0  0.48024509319E+01  0.54579342425E+03 -0.21235872517E+04  0.21945001537E+04  0.91074606033E+02 0.  0.
        254    2    1    2    0    0 -0.48024509319E+01 -0.54579342425E+03  0.38975296686E+03  0.11093185267E+04  0.88361003452E+03 0.  0.
         23    2    4    4    0    0  0.16596557956E+03 -0.25422089736E+03  0.61600608065E+03  0.69269085840E+03  0.90467097098E+02 0.  0.
         23    2    4    4    0    0 -0.17076803049E+03 -0.29157252689E+03 -0.22625311379E+03  0.41662766834E+03  0.90619445245E+02 0.  0.
          3    1    3    3  502    0 -0.18049000558E+02  0.49298492203E+03 -0.18299057753E+04  0.18952348262E+04  0.00000000000E+00 0. -1.
         -3    1    3    3    0  502  0.22851451490E+02  0.52808502222E+02 -0.29368147634E+03  0.29926532757E+03  0.00000000000E+00 0.  1.
         13    1    5    5    0    0 -0.20671917149E+01 -0.22429530882E+02  0.10078779819E+03  0.10327408872E+03  0.00000000000E+00 0. -1.
        -13    1    5    5    0    0  0.16803277127E+03 -0.23179136648E+03  0.51521828246E+03  0.58941676968E+03  0.00000000000E+00 0.  1.
          3    1    6    6  503    0  0.31728735898E+01 -0.45728956378E+02 -0.13108829354E+02  0.47676472030E+02  0.00000000000E+00 0. -1.
         -3    1    6    6    0  503 -0.17394090408E+03 -0.24584357051E+03 -0.21314428444E+03  0.36895119631E+03  0.00000000000E+00 0.  1.
<mgrwt>
<rscale>  0 0.28123009E+04</rscale>
<asrwt>0</asrwt>
<pdfrwt beam="1">  1        1 0.38751177E+00 0.28123009E+04</pdfrwt>
<pdfrwt beam="2">  1       -1 0.12076803E+00 0.28123009E+04</pdfrwt>
<totfact> 0.69254335E-01</totfact>
</mgrwt>
</event>
<event>
12    3  0.4688899E-008  0.3409213E+04  0.7818608E-02  0.8135649E-01
         -1   -1    0    0    0  501 -0.00000000000E+00  0.00000000000E+00  0.86630434465E+03  0.86630434465E+03  0.00000000000E+00 0.  1.
          1   -1    0    0  501    0  0.00000000000E+00 -0.00000000000E+00 -0.33541137734E+04  0.33541137734E+04  0.00000000000E+00 0. -1.
         23    2    1    2    0    0  0.12332928446E+04  0.88940776811E+03 -0.58260172731E+03  0.16308700488E+04  0.90856616687E+02 0.  0.
        254    2    1    2    0    0 -0.12332928446E+04 -0.88940776811E+03 -0.19052077014E+04  0.25895480693E+04  0.87400537691E+03 0.  0.
         23    2    4    4    0    0  0.52182126321E+01 -0.38462573594E+03 -0.28896316567E+03  0.48973710127E+03  0.91534314631E+02 0.  0.
         23    2    4    4    0    0 -0.12385110572E+04 -0.50478203217E+03 -0.16162445358E+04  0.20998109680E+04  0.90802879952E+02 0.  0.
          1    1    3    3  502    0  0.40362055232E+03  0.24039954773E+03 -0.18868425798E+03  0.50626400427E+03  0.00000000000E+00 0. -1.
         -1    1    3    3    0  502  0.82967229229E+03  0.64900822038E+03 -0.39391746933E+03  0.11246060445E+04  0.00000000000E+00 0.  1.
         13    1    5    5    0    0 -0.26782525868E+02 -0.29940405155E+03 -0.19172015133E+03  0.35653429877E+03  0.00000000000E+00 0. -1.
        -13    1    5    5    0    0  0.32000738500E+02 -0.85221684393E+02 -0.97243014339E+02  0.13320280250E+03  0.00000000000E+00 0.  1.
          2    1    6    6  503    0 -0.78745059001E+03 -0.36764010270E+03 -0.10430841164E+04  0.13576679089E+04  0.00000000000E+00 0. -1.
         -2    1    6    6    0  503 -0.45106046724E+03 -0.13714192947E+03 -0.57316041932E+03  0.74214305912E+03  0.00000000000E+00 0.  1.
<mgrwt>
<rscale>  0 0.34092130E+04</rscale>
<asrwt>0</asrwt>
<pdfrwt beam="1">  1        1 0.51601750E+00 0.34092130E+04</pdfrwt>
<pdfrwt beam="2">  1       -1 0.13327759E+00 0.34092130E+04</pdfrwt>
<totfact> 0.12687664E-01</totfact>
</mgrwt>
</event>
<event>
12    3  0.4688899E-008  0.1332027E+04  0.7818608E-02  0.9004546E-01
          2   -1    0    0  501    0  0.00000000000E+00  0.00000000000E+00  0.77082282647E+03  0.77082282647E+03  0.00000000000E+00 0. -1.
         -2   -1    0    0    0  501 -0.00000000000E+00 -0.00000000000E+00 -0.57545526179E+03  0.57545526179E+03  0.00000000000E+00 0.  1.
         23    2    1    2    0    0 -0.14855287873E+03 -0.27777078087E+03  0.20856400526E+03  0.38874491365E+03  0.91646599037E+02 0.  0.
        254    2    1    2    0    0  0.14855287873E+03  0.27777078087E+03 -0.13196440581E+02  0.95753317461E+03  0.90414106750E+03 0.  0.
         23    2    4    4    0    0 -0.13171446693E+03  0.53285234380E+03 -0.79188511704E+02  0.56210641109E+03  0.91719550305E+02 0.  0.
         23    2    4    4    0    0  0.28026734566E+03 -0.25508156293E+03  0.65992071124E+02  0.39542676351E+03  0.91602309250E+02 0.  0.
          1    1    3    3  502    0 -0.83144333346E+02 -0.23414515063E+03  0.14534101218E+03  0.28785576519E+03  0.00000000000E+00 0. -1.
         -1    1    3    3    0  502 -0.65408545386E+02 -0.43625630238E+02  0.63222993076E+02  0.10088914846E+03  0.00000000000E+00 0.  1.
         13    1    5    5    0    0 -0.10311316515E+03  0.50874838903E+03 -0.73325410858E+02  0.52424599573E+03  0.00000000000E+00 0.  1.
        -13    1    5    5    0    0 -0.28601301783E+02  0.24103954775E+02 -0.58631008460E+01  0.37860415357E+02  0.00000000000E+00 0. -1.
          1    1    6    6  503    0  0.21437719406E+03 -0.17222321180E+03  0.85095884292E+02  0.28785365299E+03  0.00000000000E+00 0. -1.
         -1    1    6    6    0  503  0.65890151598E+02 -0.82858351130E+02 -0.19103813168E+02  0.10757311052E+03  0.00000000000E+00 0.  1.
<mgrwt>
<rscale>  0 0.13320271E+04</rscale>
<asrwt>0</asrwt>
<pdfrwt beam="1">  1        2 0.11858813E+00 0.13320271E+04</pdfrwt>
<pdfrwt beam="2">  1       -2 0.88531579E-01 0.13320271E+04</pdfrwt>
<totfact> 0.38856364E+01</totfact>
</mgrwt>
</event>
<event>
12    3  0.4688899E-008  0.1355594E+04  0.7818608E-02  0.8986604E-01
         -2   -1    0    0    0  501 -0.00000000000E+00  0.00000000000E+00  0.54735041732E+03  0.54735041732E+03  0.00000000000E+00 0.  1.
          2   -1    0    0  501    0  0.00000000000E+00 -0.00000000000E+00 -0.83933187411E+03  0.83933187411E+03  0.00000000000E+00 0. -1.
         23    2    1    2    0    0  0.32036426912E+03  0.20852112769E+02 -0.26088059874E+03  0.42427887907E+03  0.94264547392E+02 0.  0.
        254    2    1    2    0    0 -0.32036426912E+03 -0.20852112769E+02 -0.31100858047E+02  0.96240341235E+03  0.90674416966E+03 0.  0.
         23    2    4    4    0    0  0.18622600967E+03 -0.30573968047E+03  0.34857070566E+02  0.37090550893E+03  0.90548342292E+02 0.  0.
         23    2    4    4    0    0 -0.50659027879E+03  0.28488756770E+03 -0.65957928613E+02  0.59149790343E+03  0.87890185002E+02 0.  0.
          3    1    3    3  502    0  0.29188644011E+03  0.10433629140E+02 -0.26411800340E+03  0.39378277547E+03  0.00000000000E+00 0. -1.
         -3    1    3    3    0  502  0.28477829002E+02  0.10418483629E+02  0.32374046602E+01  0.30496103599E+02  0.00000000000E+00 0.  1.
         13    1    5    5    0    0  0.76670281186E+02 -0.20476018891E+03  0.36293239565E+01  0.21867381867E+03  0.00000000000E+00 0.  1.
        -13    1    5    5    0    0  0.10955572848E+03 -0.10097949155E+03  0.31227746610E+02  0.15223169025E+03  0.00000000000E+00 0. -1.
          1    1    6    6  503    0 -0.26314558666E+03  0.97633207299E+02 -0.30417592010E+02  0.28231732652E+03  0.00000000000E+00 0. -1.
         -1    1    6    6    0  503 -0.24344469212E+03  0.18725436040E+03 -0.35540336603E+02  0.30918057691E+03  0.00000000000E+00 0.  1.
<mgrwt>
<rscale>  0 0.13555938E+04</rscale>
<asrwt>0</asrwt>
<pdfrwt beam="1">  1        2 0.12912798E+00 0.13555938E+04</pdfrwt>
<pdfrwt beam="2">  1       -2 0.84207757E-01 0.13555938E+04</pdfrwt>
<totfact> 0.38821088E+01</totfact>
</mgrwt>
</event>
<event>
12    3  0.4688899E-008  0.1395013E+04  0.7818608E-02  0.8957436E-01
          2   -1    0    0  501    0  0.00000000000E+00  0.00000000000E+00  0.18358301336E+04  0.18358301336E+04  0.00000000000E+00 0. -1.
         -2   -1    0    0    0  501 -0.00000000000E+00 -0.00000000000E+00 -0.26501116960E+03  0.26501116960E+03  0.00000000000E+00 0.  1.
         23    2    1    2    0    0  0.81196822157E+02  0.22498362532E+03 -0.23212195764E+02  0.25692067681E+03  0.90878339273E+02 0.  0.
        254    2    1    2    0    0 -0.81196822157E+02 -0.22498362532E+03  0.15940311598E+04  0.18439206264E+04  0.89548723193E+03 0.  0.
         23    2    4    4    0    0 -0.26683008694E+03 -0.21554673510E+03  0.14598452262E+03  0.38115082572E+03  0.79408946599E+02 0.  0.
         23    2    4    4    0    0  0.18563326478E+03 -0.94368902248E+01  0.14480466371E+04  0.14627698007E+04  0.91146379564E+02 0.  0.
          3    1    3    3  502    0  0.35060837796E+01  0.61254591662E+02 -0.42549969304E+02  0.74665370226E+02  0.00000000000E+00 0. -1.
         -3    1    3    3    0  502  0.77690738377E+02  0.16372903366E+03  0.19337773540E+02  0.18225530659E+03  0.00000000000E+00 0.  1.
         13    1    5    5    0    0 -0.84411338374E+02 -0.45012639206E+02  0.83765698243E+01  0.96029051106E+02  0.00000000000E+00 0. -1.
        -13    1    5    5    0    0 -0.18241874856E+03 -0.17053409589E+03  0.13760795279E+03  0.28512177462E+03  0.00000000000E+00 0.  1.
          3    1    6    6  503    0  0.75089681936E+02  0.32707705476E+02  0.41776294214E+03  0.42571602055E+03  0.00000000000E+00 0. -1.
         -3    1    6    6    0  503  0.11054358284E+03 -0.42144595700E+02  0.10302836950E+04  0.10370537801E+04  0.00000000000E+00 0.  1.
<mgrwt>
<rscale>  0 0.13950132E+04</rscale>
<asrwt>0</asrwt>
<pdfrwt beam="1">  1        2 0.28243540E+00 0.13950132E+04</pdfrwt>
<pdfrwt beam="2">  1       -2 0.40770950E-01 0.13950132E+04</pdfrwt>
<totfact> 0.45722964E+01</totfact>
</mgrwt>
</event>
<event>
12    3  0.4688899E-008  0.2750196E+04  0.7818608E-02  0.8318899E-01
         -2   -1    0    0    0  501 -0.00000000000E+00  0.00000000000E+00  0.14968574876E+04  0.14968574876E+04  0.00000000000E+00 0.  1.
          2   -1    0    0  501    0  0.00000000000E+00 -0.00000000000E+00 -0.12632428225E+04  0.12632428225E+04  0.00000000000E+00 0. -1.
         23    2    1    2    0    0 -0.35579910938E+03  0.84811433461E+03 -0.70846447874E+03  0.11645158662E+04  0.91018428207E+02 0.  0.
        254    2    1    2    0    0  0.35579910938E+03 -0.84811433461E+03  0.94207914380E+03  0.15955844439E+04  0.90137987199E+03 0.  0.
         23    2    4    4    0    0 -0.24062999047E+03 -0.38687563634E+03  0.60546112697E+03  0.76431301397E+03  0.10007825307E+03 0.  0.
         23    2    4    4    0    0  0.59642909985E+03 -0.46123869827E+03  0.33661801683E+03  0.83127142993E+03  0.96081699793E+02 0.  0.
          2    1    3    3  502    0 -0.33161444405E+03  0.72004186680E+03 -0.58759236890E+03  0.98675894799E+03  0.00000000000E+00 0. -1.
         -2    1    3    3    0  502 -0.24184665338E+02  0.12807246781E+03 -0.12087210984E+03  0.17775691825E+03  0.00000000000E+00 0.  1.
         13    1    5    5    0    0 -0.20138999812E+02  0.94850794466E+00  0.22017147783E+02  0.29853538772E+02  0.00000000000E+00 0. -1.
        -13    1    5    5    0    0 -0.22049099066E+03 -0.38782414428E+03  0.58344397919E+03  0.73445947519E+03  0.00000000000E+00 0.  1.
          3    1    6    6  503    0  0.16290917923E+02 -0.13521037784E+02  0.30420062457E+02  0.37062011135E+02  0.00000000000E+00 0. -1.
         -3    1    6    6    0  503  0.58013818193E+03 -0.44771766049E+03  0.30619795437E+03  0.79420941880E+03  0.00000000000E+00 0.  1.
<mgrwt>
<rscale>  0 0.27501960E+04</rscale>
<asrwt>0</asrwt>
<pdfrwt beam="1">  1        2 0.19434505E+00 0.27501960E+04</pdfrwt>
<pdfrwt beam="2">  1       -2 0.23028577E+00 0.27501960E+04</pdfrwt>
<totfact> 0.12924057E+00</totfact>
</mgrwt>
</event>
<event>
12    3  0.4688899E-008  0.3743031E+04  0.7818608E-02  0.8058492E-01
         -2   -1    0    0    0  501 -0.00000000000E+00  0.00000000000E+00  0.12561592377E+04  0.12561592377E+04  0.00000000000E+00 0.  1.
          2   -1    0    0  501    0  0.00000000000E+00 -0.00000000000E+00 -0.27883167817E+04  0.27883167817E+04  0.00000000000E+00 0. -1.
         23    2    1    2    0    0 -0.27702499491E+03 -0.63281146009E+03 -0.24733356232E+04  0.25696272272E+04  0.91661277906E+02 0.  0.
        254    2    1    2    0    0  0.27702499491E+03  0.63281146009E+03  0.94117807921E+03  0.14748487923E+04  0.90120452253E+03 0.  0.
         23    2    4    4    0    0 -0.30295572949E+03  0.28877776456E+03  0.22209133407E+03  0.48494971834E+03  0.10332907294E+03 0.  0.
         23    2    4    4    0    0  0.57998072440E+03  0.34403369553E+03  0.71908674514E+03  0.98989907392E+03  0.89875498274E+02 0.  0.
          3    1    3    3  502    0 -0.20820089761E+03 -0.55441970896E+03 -0.20749803586E+04  0.21578397336E+04  0.00000000000E+00 0. -1.
         -3    1    3    3    0  502 -0.68824097297E+02 -0.78391751132E+02 -0.39835526460E+03  0.41178749356E+03  0.00000000000E+00 0.  1.
         13    1    5    5    0    0 -0.26424841856E+03  0.25277476406E+03  0.14929122870E+03  0.39498123883E+03  0.00000000000E+00 0.  1.
        -13    1    5    5    0    0 -0.38707310924E+02  0.36003000499E+02  0.72800105365E+02  0.89968479508E+02  0.00000000000E+00 0. -1.
          2    1    6    6  503    0  0.29518170979E+03  0.21313431772E+03  0.43076007513E+03  0.56401482383E+03  0.00000000000E+00 0. -1.
         -2    1    6    6    0  503  0.28479901461E+03  0.13089937781E+03  0.28832667001E+03  0.42588425009E+03  0.00000000000E+00 0.  1.
<mgrwt>
<rscale>  0 0.37430308E+04</rscale>
<asrwt>0</asrwt>
<pdfrwt beam="1">  1        2 0.42897180E+00 0.37430308E+04</pdfrwt>
<pdfrwt beam="2">  1       -2 0.19325527E+00 0.37430308E+04</pdfrwt>
<totfact> 0.27901154E-01</totfact>
</mgrwt>
</event>
<event>
12    3  0.4688899E-008  0.2554790E+04  0.7818608E-02  0.8383722E-01
          2   -1    0    0  501    0  0.00000000000E+00  0.00000000000E+00  0.27826170827E+04  0.27826170827E+04  0.00000000000E+00 0. -1.
         -2   -1    0    0    0  501 -0.00000000000E+00 -0.00000000000E+00 -0.58640407173E+03  0.58640407173E+03  0.00000000000E+00 0.  1.
         23    2    1    2    0    0  0.27395335290E+03 -0.90238671321E+03  0.17503625345E+04  0.19902696980E+04  0.89734322981E+02 0.  0.
        254    2    1    2    0    0 -0.27395335290E+03  0.90238671321E+03  0.44585047645E+03  0.13787514564E+04  0.90156570007E+03 0.  0.
         23    2    4    4    0    0 -0.32943878634E+03  0.53320831967E+03 -0.16690711726E+03  0.65493903417E+03  0.90808185653E+02 0.  0.
         23    2    4    4    0    0  0.55485433441E+02  0.36917839355E+03  0.61275759371E+03  0.72381242227E+03  0.95190516309E+02 0.  0.
          1    1    3    3  502    0  0.22252499161E+03 -0.59360701443E+03  0.11964817480E+04  0.13540514144E+04  0.00000000000E+00 0. -1.
         -1    1    3    3    0  502  0.51428361285E+02 -0.30877969878E+03  0.55388078651E+03  0.63621828360E+03  0.00000000000E+00 0.  1.
         13    1    5    5    0    0 -0.32150652717E+03  0.53211771303E+03 -0.15524670050E+03  0.64079423027E+03  0.00000000000E+00 0. -1.
        -13    1    5    5    0    0 -0.79322591630E+01  0.10906066388E+01 -0.11660416761E+02  0.14144803898E+02  0.00000000000E+00 0.  1.
          2    1    6    6  503    0 -0.48084033748E+01  0.22911500237E+03  0.41524881471E+03  0.47428723699E+03  0.00000000000E+00 0. -1.
         -2    1    6    6    0  503  0.60293836816E+02  0.14006339118E+03  0.19750877900E+03  0.24952518528E+03  0.00000000000E+00 0.  1.
<mgrwt>
<rscale>  0 0.25547900E+04</rscale>
<asrwt>0</asrwt>
<pdfrwt beam="1">  1        2 0.42809493E+00 0.25547900E+04</pdfrwt>
<pdfrwt beam="2">  1       -2 0.90216012E-01 0.25547900E+04</pdfrwt>
<totfact> 0.22103122E+00</totfact>
</mgrwt>
</event>
<event>
12    3  0.4688899E-008  0.1516406E+04  0.7818608E-02  0.8873616E-01
          1   -1    0    0  501    0  0.00000000000E+00  0.00000000000E+00  0.12947748176E+04  0.12947748176E+04  0.00000000000E+00 0. -1.
         -1   -1    0    0    0  501 -0.00000000000E+00 -0.00000000000E+00 -0.44399367196E+03  0.44399367196E+03  0.00000000000E+00 0.  1.
         23    2    1    2    0    0 -0.43842008244E+03 -0.43464358145E+02  0.50043646509E+03  0.67293366640E+03  0.91113910375E+02 0.  0.
        254    2    1    2    0    0  0.43842008244E+03  0.43464358145E+02  0.35034468052E+03  0.10658348231E+04  0.90507522115E+03 0.  0.
         23    2    4    4    0    0  0.22529642344E+02 -0.38329176499E+03  0.73868359843E+02  0.40273512973E+03  0.96534388897E+02 0.  0.
         23    2    4    4    0    0  0.41589044009E+03  0.42675612314E+03  0.27647632068E+03  0.66309969341E+03  0.90423452186E+02 0.  0.
          2    1    3    3  502    0 -0.43805918000E+03 -0.42357867627E+02  0.47528195242E+03  0.64775224309E+03  0.00000000000E+00 0. -1.
         -2    1    3    3    0  502 -0.36090243261E+00 -0.11064905185E+01  0.25154512673E+02  0.25181423305E+02  0.00000000000E+00 0.  1.
         13    1    5    5    0    0  0.31566942903E+02 -0.35815827061E+03  0.91152781003E+02  0.37092135039E+03  0.00000000000E+00 0.  1.
        -13    1    5    5    0    0 -0.90373005590E+01 -0.25133494383E+02 -0.17284421159E+02  0.31813779344E+02  0.00000000000E+00 0. -1.
          4    1    6    6  503    0  0.11298789043E+02  0.45169999872E+02  0.21044780964E+02  0.51096715434E+02  0.00000000000E+00 0. -1.
         -4    1    6    6    0  503  0.40459165105E+03  0.38158612326E+03  0.25543153972E+03  0.61200297797E+03  0.00000000000E+00 0.  1.
<mgrwt>
<rscale>  0 0.15164060E+04</rscale>
<asrwt>0</asrwt>
<pdfrwt beam="1">  1        1 0.19919612E+00 0.15164060E+04</pdfrwt>
<pdfrwt beam="2">  1       -1 0.68306719E-01 0.15164060E+04</pdfrwt>
<totfact> 0.19122605E+01</totfact>
</mgrwt>
</event>
<event>
12    3  0.4688899E-008  0.1422895E+04  0.7818608E-02  0.8937411E-01
          1   -1    0    0  501    0  0.00000000000E+00  0.00000000000E+00  0.86422817609E+03  0.86422817609E+03  0.00000000000E+00 0. -1.
         -1   -1    0    0    0  501 -0.00000000000E+00 -0.00000000000E+00 -0.58567601340E+03  0.58567601340E+03  0.00000000000E+00 0.  1.
         23    2    1    2    0    0  0.11745563666E+03 -0.35644759543E+03 -0.91257647074E+02  0.40292713402E+03  0.11476760130E+03 0.  0.
        254    2    1    2    0    0 -0.11745563666E+03  0.35644759543E+03  0.36980980977E+03  0.10469770555E+04  0.90473805293E+03 0.  0.
         23    2    4    4    0    0  0.28493439385E+03  0.11845735959E+03  0.46086783937E+03  0.56182562978E+03  0.89605346233E+02 0.  0.
         23    2    4    4    0    0 -0.40239003052E+03  0.23799023584E+03 -0.91058029599E+02  0.48515142570E+03  0.92321460610E+02 0.  0.
          4    1    3    3  502    0 -0.59190048833E+01 -0.12987496886E+03 -0.22830085273E+01  0.13002982074E+03  0.00000000000E+00 0. -1.
         -4    1    3    3    0  502  0.12337464155E+03 -0.22657262657E+03 -0.88974638547E+02  0.27289731327E+03  0.00000000000E+00 0.  1.
         13    1    5    5    0    0  0.13410148614E+03  0.79902976104E+01  0.18919995981E+03  0.23204240611E+03  0.00000000000E+00 0. -1.
        -13    1    5    5    0    0  0.15083290771E+03  0.11046706198E+03  0.27166787955E+03  0.32978322367E+03  0.00000000000E+00 0.  1.
          3    1    6    6  503    0 -0.10393378630E+03  0.97810291645E+02 -0.56919117615E+02  0.15365178501E+03  0.00000000000E+00 0. -1.
         -3    1    6    6    0  503 -0.29845624422E+03  0.14017994419E+03 -0.34138911985E+02  0.33149964069E+03  0.00000000000E+00 0.  1.
<mgrwt>
<rscale>  0 0.14228952E+04</rscale>
<asrwt>0</asrwt>
<pdfrwt beam="1">  1        1 0.13295818E+00 0.14228952E+04</pdfrwt>
<pdfrwt beam="2">  1       -1 0.90104002E-01 0.14228952E+04</pdfrwt>
<totfact> 0.22856452E+01</totfact>
</mgrwt>
</event>
<event>
12    3  0.4688899E-008  0.1214232E+04  0.7818608E-02  0.9100490E-01
          2   -1    0    0  501    0  0.00000000000E+00  0.00000000000E+00  0.14804882142E+04  0.14804882142E+04  0.00000000000E+00 0.  1.
         -2   -1    0    0    0  501 -0.00000000000E+00 -0.00000000000E+00 -0.24896501311E+03  0.24896501311E+03  0.00000000000E+00 0. -1.
         23    2    1    2    0    0 -0.16984611508E+03  0.16960106888E+03  0.11188410137E+03  0.27982423711E+03  0.90395387948E+02 0.  0.
        254    2    1    2    0    0  0.16984611508E+03 -0.16960106888E+03  0.11196390997E+04  0.14496289902E+04  0.88894334479E+03 0.  0.
         23    2    4    4    0    0  0.39161139335E+03  0.15359167968E+03  0.26539354687E+03  0.50540141908E+03  0.89704917474E+02 0.  0.
         23    2    4    4    0    0 -0.22176527827E+03 -0.32319274857E+03  0.85424555288E+03  0.94422757115E+03  0.90536457459E+02 0.  0.
          3    1    3    3  502    0 -0.77823279984E+02  0.13864854080E+03  0.61866421597E+02  0.17060871869E+03  0.00000000000E+00 0. -1.
         -3    1    3    3    0  502 -0.92022835094E+02  0.30952528087E+02  0.50017679778E+02  0.10921551842E+03  0.00000000000E+00 0.  1.
         13    1    5    5    0    0  0.37054715905E+02  0.45391028203E+02  0.25870065466E+02  0.64051992158E+02  0.00000000000E+00 0. -1.
        -13    1    5    5    0    0  0.35455667744E+03  0.10820065148E+03  0.23952348140E+03  0.44134942692E+03  0.00000000000E+00 0.  1.
          1    1    6    6  503    0 -0.11735575044E+03 -0.18543596011E+03  0.37158337113E+03  0.43154729655E+03  0.00000000000E+00 0. -1.
         -1    1    6    6    0  503 -0.10440952784E+03 -0.13775678846E+03  0.48266218175E+03  0.51268027459E+03  0.00000000000E+00 0.  1.
<mgrwt>
<rscale>  0 0.12142319E+04</rscale>
<asrwt>0</asrwt>
<pdfrwt beam="1">  1        2 0.22776741E+00 0.12142319E+04</pdfrwt>
<pdfrwt beam="2">  1       -2 0.38302311E-01 0.12142319E+04</pdfrwt>
<totfact> 0.82581108E+01</totfact>
</mgrwt>
</event>
<event>
12    3  0.4688899E-008  0.1011517E+04  0.7818608E-02  0.9296002E-01
         -2   -1    0    0    0  501 -0.00000000000E+00  0.00000000000E+00  0.14411504835E+03  0.14411504835E+03  0.00000000000E+00 0.  1.
          2   -1    0    0  501    0  0.00000000000E+00 -0.00000000000E+00 -0.17749143366E+04  0.17749143366E+04  0.00000000000E+00 0. -1.
         23    2    1    2    0    0  0.30530553922E+02 -0.96651116162E+01 -0.55304964066E+02  0.10989459640E+03  0.89401645186E+02 0.  0.
        254    2    1    2    0    0 -0.30530553922E+02  0.96651116162E+01 -0.15754943242E+04  0.18091347886E+04  0.88868486458E+03 0.  0.
         23    2    4    4    0    0  0.12344335834E+03  0.11263822488E+03  0.27845466476E+02  0.19251779104E+03  0.91444504705E+02 0.  0.
         23    2    4    4    0    0 -0.15397391226E+03 -0.10297311327E+03 -0.16033397907E+04  0.16166169975E+04  0.91872763267E+02 0.  0.
          3    1    3    3  502    0 -0.71982908417E+01 -0.10307454108E+01 -0.68589568619E+02  0.68973957046E+02  0.00000000000E+00 0. -1.
         -3    1    3    3    0  502  0.37728844764E+02 -0.86343662054E+01  0.13284604553E+02  0.40920639354E+02  0.00000000000E+00 0.  1.
         13    1    5    5    0    0  0.10018433565E+03  0.12260165707E+03  0.49697938758E+01  0.15840696410E+03  0.00000000000E+00 0.  1.
        -13    1    5    5    0    0  0.23259022695E+02 -0.99634321848E+01  0.22875672600E+02  0.34110826940E+02  0.00000000000E+00 0. -1.
          1    1    6    6  503    0 -0.11980925792E+03 -0.26107702197E+02 -0.96417696130E+03  0.97194294230E+03  0.00000000000E+00 0. -1.
         -1    1    6    6    0  503 -0.34164654346E+02 -0.76865411069E+02 -0.63916282939E+03  0.64467405524E+03  0.00000000000E+00 0.  1.
<mgrwt>
<rscale>  0 0.10115174E+04</rscale>
<asrwt>0</asrwt>
<pdfrwt beam="1">  1        2 0.27306373E+00 0.10115174E+04</pdfrwt>
<pdfrwt beam="2">  1       -2 0.22171547E-01 0.10115174E+04</pdfrwt>
<totfact> 0.15846798E+02</totfact>
</mgrwt>
</event>
<event>
12    3  0.4688899E-008  0.1578111E+04  0.7818608E-02  0.8834109E-01
         -2   -1    0    0    0  501 -0.00000000000E+00  0.00000000000E+00  0.86278223365E+03  0.86278223365E+03  0.00000000000E+00 0.  1.
          2   -1    0    0  501    0  0.00000000000E+00 -0.00000000000E+00 -0.72162868025E+03  0.72162868025E+03  0.00000000000E+00 0. -1.
         23    2    1    2    0    0  0.28395368623E+03  0.38165239044E+03  0.26819361271E+03  0.55367481521E+03  0.91322199039E+02 0.  0.
        254    2    1    2    0    0 -0.28395368623E+03 -0.38165239044E+03 -0.12704005932E+03  0.10307360987E+04  0.90553270810E+03 0.  0.
         23    2    4    4    0    0 -0.76108686617E+02 -0.33443797969E+03 -0.48712746104E+03  0.60254841023E+03  0.90167227597E+02 0.  0.
         23    2    4    4    0    0 -0.20784499961E+03 -0.47214410750E+02  0.36008740172E+03  0.42818768847E+03  0.90846107393E+02 0.  0.
          4    1    3    3  502    0  0.24938165583E+03  0.36196641929E+03  0.22112094710E+03  0.49204204312E+03  0.00000000000E+00 0. -1.
         -4    1    3    3    0  502  0.34572030401E+02  0.19685971159E+02  0.47072665616E+02  0.61632772084E+02  0.00000000000E+00 0.  1.
         13    1    5    5    0    0 -0.42242312836E+02 -0.41658382179E+02 -0.95069197741E+02  0.11206242081E+03  0.00000000000E+00 0.  1.
        -13    1    5    5    0    0 -0.33866373782E+02 -0.29277959752E+03 -0.39205826330E+03  0.49048598942E+03  0.00000000000E+00 0. -1.
          2    1    6    6  503    0 -0.19103718610E+03 -0.29132188390E+02  0.25338023561E+03  0.31866194418E+03  0.00000000000E+00 0. -1.
         -2    1    6    6    0  503 -0.16807813511E+02 -0.18082222360E+02  0.10670716611E+03  0.10952574428E+03  0.00000000000E+00 0.  1.
<mgrwt>
<rscale>  0 0.15781108E+04</rscale>
<asrwt>0</asrwt>
<pdfrwt beam="1">  1        2 0.11101980E+00 0.15781108E+04</pdfrwt>
<pdfrwt beam="2">  1       -2 0.13273573E+00 0.15781108E+04</pdfrwt>
<totfact> 0.15589544E+01</totfact>
</mgrwt>
</event>
<event>
12    3  0.4688899E-008  0.1978089E+04  0.7818608E-02  0.8616934E-01
         -2   -1    0    0    0  501 -0.00000000000E+00  0.00000000000E+00  0.79397346379E+03  0.79397346379E+03  0.00000000000E+00 0.  1.
          2   -1    0    0  501    0  0.00000000000E+00 -0.00000000000E+00 -0.12320423328E+04  0.12320423328E+04  0.00000000000E+00 0. -1.
         23    2    1    2    0    0 -0.16669731823E+03  0.74186087113E+03 -0.32199254398E+03  0.83050525860E+03  0.88962004115E+02 0.  0.
        254    2    1    2    0    0  0.16669731823E+03 -0.74186087113E+03 -0.11607632501E+03  0.11955105380E+04  0.91521920061E+03 0.  0.
         23    2    4    4    0    0 -0.30412108348E+03 -0.55577519237E+03 -0.20796416703E+03  0.67317530293E+03  0.92413179975E+02 0.  0.
         23    2    4    4    0    0  0.47081840171E+03 -0.18608567876E+03  0.91887842023E+02  0.52233523504E+03  0.89960408146E+02 0.  0.
          2    1    3    3  502    0 -0.76634414134E+02  0.52646918893E+03 -0.22876225204E+03  0.57911553966E+03  0.00000000000E+00 0. -1.
         -2    1    3    3    0  502 -0.90062904092E+02  0.21539168220E+03 -0.93230291942E+02  0.25138971894E+03  0.00000000000E+00 0.  1.
         13    1    5    5    0    0  0.12200444236E+01 -0.43186251271E+02 -0.20152168190E+02  0.47672326249E+02  0.00000000000E+00 0. -1.
        -13    1    5    5    0    0 -0.30534112790E+03 -0.51258894110E+03 -0.18781199884E+03  0.62550297668E+03  0.00000000000E+00 0.  1.
          3    1    6    6  503    0  0.99615083998E+02 -0.43606104969E+02  0.58111850603E+02  0.12329494933E+03  0.00000000000E+00 0. -1.
         -3    1    6    6    0  503  0.37120331771E+03 -0.14247957379E+03  0.33775991420E+02  0.39904028571E+03  0.00000000000E+00 0.  1.
<mgrwt>
<rscale>  0 0.19780889E+04</rscale>
<asrwt>0</asrwt>
<pdfrwt beam="1">  1        2 0.18954497E+00 0.19780889E+04</pdfrwt>
<pdfrwt beam="2">  1       -2 0.12214976E+00 0.19780889E+04</pdfrwt>
<totfact> 0.85714938E+00</totfact>
</mgrwt>
</event>
<event>
12    3  0.4688899E-008  0.1382176E+04  0.7818608E-02  0.8966822E-01
         -2   -1    0    0    0  501 -0.00000000000E+00  0.00000000000E+00  0.57715001209E+03  0.57715001209E+03  0.00000000000E+00 0.  1.
          2   -1    0    0  501    0  0.00000000000E+00 -0.00000000000E+00 -0.82751932544E+03  0.82751932544E+03  0.00000000000E+00 0. -1.
         23    2    1    2    0    0 -0.27460066802E+02  0.16598670858E+03  0.28677042455E+03  0.34524854070E+03  0.93024920125E+02 0.  0.
        254    2    1    2    0    0  0.27460066802E+02 -0.16598670858E+03 -0.53713973790E+03  0.10594207968E+04  0.89752308273E+03 0.  0.
         23    2    4    4    0    0  0.11987780633E+02 -0.45005816803E+03 -0.16987711460E+02  0.45954883633E+03  0.90556552125E+02 0.  0.
         23    2    4    4    0    0  0.15472286169E+02  0.28407145945E+03 -0.52015202644E+03  0.59987196050E+03  0.91390659689E+02 0.  0.
          4    1    3    3  502    0  0.83325378296E+01 -0.97136916729E+01  0.22590023139E+02  0.25963361455E+02  0.00000000000E+00 0. -1.
         -4    1    3    3    0  502 -0.35792604632E+02  0.17570040026E+03  0.26418040141E+03  0.31928517924E+03  0.00000000000E+00 0.  1.
         13    1    5    5    0    0  0.13717276116E+02 -0.11900148533E+02 -0.11226084119E+02  0.21349523737E+02  0.00000000000E+00 0.  1.
        -13    1    5    5    0    0 -0.17294954824E+01 -0.43815801950E+03 -0.57616273413E+01  0.43819931259E+03  0.00000000000E+00 0. -1.
          3    1    6    6  503    0  0.35485946725E+02  0.22119939510E+03 -0.45491348452E+03  0.50708451289E+03  0.00000000000E+00 0. -1.
         -3    1    6    6    0  503 -0.20013660555E+02  0.62872064345E+02 -0.65238541911E+02  0.92787447613E+02  0.00000000000E+00 0.  1.
<mgrwt>
<rscale>  0 0.13821762E+04</rscale>
<asrwt>0</asrwt>
<pdfrwt beam="1">  1        2 0.12731067E+00 0.13821762E+04</pdfrwt>
<pdfrwt beam="2">  1       -2 0.88792309E-01 0.13821762E+04</pdfrwt>
<totfact> 0.34986222E+01</totfact>
</mgrwt>
</event>
<event>
12    3  0.4688899E-008  0.1970917E+04  0.7818608E-02  0.8620340E-01
          1   -1    0    0  501    0  0.00000000000E+00  0.00000000000E+00  0.93064564791E+03  0.93064564791E+03  0.00000000000E+00 0. -1.
         -1   -1    0    0    0  501 -0.00000000000E+00 -0.00000000000E+00 -0.10434998041E+04  0.10434998041E+04  0.00000000000E+00 0.  1.
         23    2    1    2    0    0 -0.39595542566E+03 -0.13310524299E+03  0.61079906817E+03  0.74567142828E+03  0.91938416700E+02 0.  0.
        254    2    1    2    0    0  0.39595542566E+03  0.13310524299E+03 -0.72365322438E+03  0.12284740238E+04  0.90054246599E+03 0.  0.
         23    2    4    4    0    0  0.65280059854E+03  0.13099549137E+03 -0.32933910209E+03  0.74882560469E+03  0.94694782622E+02 0.  0.
         23    2    4    4    0    0 -0.25684517288E+03  0.21097516216E+01 -0.39431412229E+03  0.47964841906E+03  0.92763597315E+02 0.  0.
          3    1    3    3  502    0 -0.24684602174E+03 -0.12662843999E+03  0.42156310813E+03  0.50466144533E+03  0.00000000000E+00 0. -1.
         -3    1    3    3    0  502 -0.14910940392E+03 -0.64768030040E+01  0.18923596003E+03  0.24100998295E+03  0.00000000000E+00 0.  1.
         13    1    5    5    0    0  0.46173333079E+03  0.89167373666E+02 -0.18328808585E+03  0.50472072644E+03  0.00000000000E+00 0.  1.
        -13    1    5    5    0    0  0.19106726775E+03  0.41828117705E+02 -0.14605101625E+03  0.24410487825E+03  0.00000000000E+00 0. -1.
          2    1    6    6  503    0 -0.30847445169E+02 -0.17208800480E+02 -0.16523227660E+02  0.38996470862E+02  0.00000000000E+00 0. -1.
         -2    1    6    6    0  503 -0.22599772771E+03  0.19318552102E+02 -0.37779089463E+03  0.44065194820E+03  0.00000000000E+00 0.  1.
<mgrwt>
<rscale>  0 0.19709171E+04</rscale>
<asrwt>0</asrwt>
<pdfrwt beam="1">  1        1 0.14317625E+00 0.19709171E+04</pdfrwt>
<pdfrwt beam="2">  1       -1 0.16053843E+00 0.19709171E+04</pdfrwt>
<totfact> 0.46255674E+00</totfact>
</mgrwt>
</event>
<event>
12    3  0.4688899E-008  0.2287089E+04  0.7818608E-02  0.8483029E-01
         -2   -1    0    0    0  501 -0.00000000000E+00  0.00000000000E+00  0.10201485003E+04  0.10201485003E+04  0.00000000000E+00 0.  1.
          2   -1    0    0  501    0  0.00000000000E+00 -0.00000000000E+00 -0.12818665771E+04  0.12818665771E+04  0.00000000000E+00 0. -1.
         23    2    1    2    0    0  0.42360275605E+03  0.24697663145E+03  0.72480891561E+03  0.87964335881E+03  0.89374063010E+02 0.  0.
        254    2    1    2    0    0 -0.42360275605E+03 -0.24697663145E+03 -0.98652699236E+03  0.14223717186E+04  0.89970497814E+03 0.  0.
         23    2    4    4    0    0 -0.64688924907E+03 -0.33935718195E+03 -0.56482145426E+03  0.92777414679E+03  0.90069943671E+02 0.  0.
         23    2    4    4    0    0  0.22328649303E+03  0.92380550503E+02 -0.42170553810E+03  0.49459757176E+03  0.91652457991E+02 0.  0.
          1    1    3    3  502    0  0.31877245176E+02  0.49780234688E+02  0.71287499504E+02  0.92607440906E+02  0.00000000000E+00 0. -1.
         -1    1    3    3    0  502  0.39172551087E+03  0.19719639676E+03  0.65352141610E+03  0.78703591790E+03  0.00000000000E+00 0.  1.
         13    1    5    5    0    0 -0.60300726295E+03 -0.30333287951E+03 -0.49122579301E+03  0.83482415794E+03  0.00000000000E+00 0.  1.
        -13    1    5    5    0    0 -0.43881986125E+02 -0.36024302439E+02 -0.73595661253E+02  0.92949988853E+02  0.00000000000E+00 0. -1.
          3    1    6    6  503    0  0.74872844697E+01  0.33764096629E+02 -0.63991409210E+02  0.72739082360E+02  0.00000000000E+00 0. -1.
         -3    1    6    6    0  503  0.21579920856E+03  0.58616453874E+02 -0.35771412889E+03  0.42185848940E+03  0.00000000000E+00 0.  1.
<mgrwt>
<rscale>  0 0.22870892E+04</rscale>
<asrwt>0</asrwt>
<pdfrwt beam="1">  1        2 0.19721024E+00 0.22870892E+04</pdfrwt>
<pdfrwt beam="2">  1       -2 0.15694592E+00 0.22870892E+04</pdfrwt>
<totfact> 0.40812802E+00</totfact>
</mgrwt>
</event>
<event>
12    3  0.4688899E-008  0.1678775E+04  0.7818608E-02  0.8773563E-01
         -1   -1    0    0    0  501 -0.00000000000E+00  0.00000000000E+00  0.13659600618E+04  0.13659600618E+04  0.00000000000E+00 0.  1.
          1   -1    0    0  501    0  0.00000000000E+00 -0.00000000000E+00 -0.51580674130E+03  0.51580674130E+03  0.00000000000E+00 0. -1.
         23    2    1    2    0    0  0.22086871958E+03 -0.41453574225E+03 -0.82585219669E+02  0.48502674195E+03  0.88361467912E+02 0.  0.
        254    2    1    2    0    0 -0.22086871958E+03  0.41453574225E+03  0.93273854014E+03  0.13967400611E+04  0.92750134295E+03 0.  0.
         23    2    4    4    0    0 -0.27069588484E+03 -0.24255870663E+02  0.90047381728E+03  0.94501019934E+03  0.91250051602E+02 0.  0.
         23    2    4    4    0    0  0.49827165253E+02  0.43879161291E+03  0.32264722859E+02  0.45172986178E+03  0.89431704249E+02 0.  0.
          3    1    3    3  502    0  0.21020765550E+03 -0.38547059340E+03 -0.53076958211E+02  0.44225784368E+03  0.00000000000E+00 0. -1.
         -3    1    3    3    0  502  0.10661064081E+02 -0.29065148848E+02 -0.29508261458E+02  0.42768898269E+02  0.00000000000E+00 0.  1.
         13    1    5    5    0    0 -0.52536717004E+02 -0.21669545942E+02  0.31755190812E+03  0.32259710198E+03  0.00000000000E+00 0.  1.
        -13    1    5    5    0    0 -0.21815916783E+03 -0.25863247210E+01  0.58292190916E+03  0.62241309736E+03  0.00000000000E+00 0. -1.
          1    1    6    6  503    0  0.73288427326E+02  0.29047904684E+03  0.34458775140E+02  0.30155708816E+03  0.00000000000E+00 0. -1.
         -1    1    6    6    0  503 -0.23461262073E+02  0.14831256607E+03 -0.21940522818E+01  0.15017277362E+03  0.00000000000E+00 0.  1.
<mgrwt>
<rscale>  0 0.16787750E+04</rscale>
<asrwt>0</asrwt>
<pdfrwt beam="1">  1        1 0.79354884E-01 0.16787750E+04</pdfrwt>
<pdfrwt beam="2">  1       -1 0.21014770E+00 0.16787750E+04</pdfrwt>
<totfact> 0.51893908E+00</totfact>
</mgrwt>
</event>
<event>
12    3  0.4688899E-008  0.1722468E+04  0.7818608E-02  0.8748653E-01
         -2   -1    0    0    0  501 -0.00000000000E+00  0.00000000000E+00  0.39366274664E+03  0.39366274664E+03  0.00000000000E+00 0.  1.
          2   -1    0    0  501    0  0.00000000000E+00 -0.00000000000E+00 -0.18841608912E+04  0.18841608912E+04  0.00000000000E+00 0. -1.
         23    2    1    2    0    0  0.50966803441E+03  0.28817636683E+03 -0.29749817312E+03  0.66372199172E+03  0.95992685052E+02 0.  0.
        254    2    1    2    0    0 -0.50966803441E+03 -0.28817636683E+03 -0.11929999715E+04  0.16141016462E+04  0.91611575059E+03 0.  0.
         23    2    4    4    0    0 -0.43981513751E+02  0.15182417689E+03  0.64813690909E+02  0.19907433764E+03  0.10219991752E+03 0.  0.
         23    2    4    4    0    0 -0.46568652066E+03 -0.44000054372E+03 -0.12578136624E+04  0.14150273085E+04  0.98704916607E+02 0.  0.
          1    1    3    3  502    0  0.24766229630E+03  0.12170704157E+03 -0.89666198909E+02  0.29015382851E+03  0.00000000000E+00 0. -1.
         -1    1    3    3    0  502  0.26200573812E+03  0.16646932526E+03 -0.20783197421E+03  0.37356816321E+03  0.00000000000E+00 0.  1.
         13    1    5    5    0    0 -0.29582848428E+02  0.13510293510E+03  0.90445684365E+02  0.16525244269E+03  0.00000000000E+00 0. -1.
        -13    1    5    5    0    0 -0.14398665322E+02  0.16721241781E+02 -0.25631993456E+02  0.33821894954E+02  0.00000000000E+00 0.  1.
          1    1    6    6  503    0 -0.34471978072E+03 -0.34562924419E+03 -0.10369404657E+04  0.11460963446E+04  0.00000000000E+00 0. -1.
         -1    1    6    6    0  503 -0.12096673994E+03 -0.94371299525E+02 -0.22087319666E+03  0.26893096391E+03  0.00000000000E+00 0.  1.
<mgrwt>
<rscale>  0 0.17224679E+04</rscale>
<asrwt>0</asrwt>
<pdfrwt beam="1">  1        2 0.28987091E+00 0.17224679E+04</pdfrwt>
<pdfrwt beam="2">  1       -2 0.60563499E-01 0.17224679E+04</pdfrwt>
<totfact> 0.18688205E+01</totfact>
</mgrwt>
</event>
<event>
12    3  0.4688899E-008  0.1639090E+04  0.7818608E-02  0.8796887E-01
         -1   -1    0    0    0  501 -0.00000000000E+00  0.00000000000E+00  0.11341482553E+04  0.11341482553E+04  0.00000000000E+00 0.  1.
          1   -1    0    0  501    0  0.00000000000E+00 -0.00000000000E+00 -0.59221033410E+03  0.59221033410E+03  0.00000000000E+00 0. -1.
         23    2    1    2    0    0  0.37410685215E+03  0.41026446129E+02  0.68223034017E+03  0.78470070641E+03  0.93155007836E+02 0.  0.
        254    2    1    2    0    0 -0.37410685215E+03 -0.41026446129E+02 -0.14029241897E+03  0.94165788299E+03  0.85170329322E+03 0.  0.
         23    2    4    4    0    0 -0.35758869834E+03  0.10738251649E+03 -0.44680031550E+03  0.58987151576E+03  0.94430933198E+02 0.  0.
         23    2    4    4    0    0 -0.16518153814E+02 -0.14840896262E+03  0.30650789653E+03  0.35178636724E+03  0.86651531706E+02 0.  0.
          4    1    3    3  502    0  0.28469692397E+02 -0.12553257145E+02  0.10745439466E+03  0.11186847001E+03  0.00000000000E+00 0. -1.
         -4    1    3    3    0  502  0.34563715976E+03  0.53579703274E+02  0.57477594551E+03  0.67283223640E+03  0.00000000000E+00 0.  1.
         13    1    5    5    0    0 -0.33029343363E+03  0.74859307342E+02 -0.42051022988E+03  0.53993196018E+03  0.00000000000E+00 0.  1.
        -13    1    5    5    0    0 -0.27295264710E+02  0.32523209153E+02 -0.26290085621E+02  0.49939555577E+02  0.00000000000E+00 0. -1.
          4    1    6    6  503    0  0.20729146278E+02 -0.12012471674E+01  0.39221526437E+02  0.44378695748E+02  0.00000000000E+00 0. -1.
         -4    1    6    6    0  503 -0.37247300092E+02 -0.14720771546E+03  0.26728637009E+03  0.30740767149E+03  0.00000000000E+00 0.  1.
<mgrwt>
<rscale>  0 0.16390904E+04</rscale>
<asrwt>0</asrwt>
<pdfrwt beam="1">  1        1 0.91109282E-01 0.16390904E+04</pdfrwt>
<pdfrwt beam="2">  1       -1 0.17448435E+00 0.16390904E+04</pdfrwt>
<totfact> 0.76153136E+00</totfact>
</mgrwt>
</event>
<event>
12    3  0.4688899E-008  0.1521444E+04  0.7818608E-02  0.8870317E-01
         -1   -1    0    0    0  501 -0.00000000000E+00  0.00000000000E+00  0.96718734617E+03  0.96718734617E+03  0.00000000000E+00 0.  1.
          1   -1    0    0  501    0  0.00000000000E+00 -0.00000000000E+00 -0.59833059276E+03  0.59833059276E+03  0.00000000000E+00 0. -1.
         23    2    1    2    0    0 -0.35184439319E+03 -0.48687977511E+02  0.49427935995E+03  0.61668280069E+03  0.99098914353E+02 0.  0.
        254    2    1    2    0    0  0.35184439319E+03  0.48687977511E+02 -0.12542260653E+03  0.94883513824E+03  0.87085721743E+03 0.  0.
         23    2    4    4    0    0 -0.80152847039E+02 -0.20441202789E+03 -0.32400524204E+03  0.40229335871E+03  0.93015017917E+02 0.  0.
         23    2    4    4    0    0  0.43199724023E+03  0.25310000541E+03  0.19858263550E+03  0.54654177953E+03  0.92691020826E+02 0.  0.
          4    1    3    3  502    0 -0.42656811026E+02  0.26894976810E+02  0.70866945001E+02  0.86977394755E+02  0.00000000000E+00 0. -1.
         -4    1    3    3    0  502 -0.30918758217E+03 -0.75582954321E+02  0.42341241495E+03  0.52970540594E+03  0.00000000000E+00 0.  1.
         13    1    5    5    0    0 -0.17705530039E+02 -0.47550226432E+01 -0.74356739337E+02  0.76583423265E+02  0.00000000000E+00 0. -1.
        -13    1    5    5    0    0 -0.62447317001E+02 -0.19965700525E+03 -0.24964850270E+03  0.32570993544E+03  0.00000000000E+00 0.  1.
          1    1    6    6  503    0  0.71937979205E+02  0.26218733850E+02  0.65153820991E+02  0.10053613901E+03  0.00000000000E+00 0. -1.
         -1    1    6    6    0  503  0.36005926103E+03  0.22688127156E+03  0.13342881451E+03  0.44600564052E+03  0.00000000000E+00 0.  1.
<mgrwt>
<rscale>  0 0.15214438E+04</rscale>
<asrwt>0</asrwt>
<pdfrwt beam="1">  1        1 0.92050860E-01 0.15214438E+04</pdfrwt>
<pdfrwt beam="2">  1       -1 0.14879805E+00 0.15214438E+04</pdfrwt>
<totfact> 0.11840698E+01</totfact>
</mgrwt>
</event>
<event>
12    3  0.4688899E-008  0.1624213E+04  0.7818608E-02  0.8805810E-01
          2   -1    0    0  501    0  0.00000000000E+00  0.00000000000E+00  0.15421040951E+04  0.15421040951E+04  0.00000000000E+00 0. -1.
         -2   -1    0    0    0  501 -0.00000000000E+00 -0.00000000000E+00 -0.42767333747E+03  0.42767333747E+03  0.00000000000E+00 0.  1.
         23    2    1    2    0    0  0.31004813718E+03 -0.10752284098E+03  0.94167656223E+03  0.99946549600E+03  0.66974033291E+02 0.  0.
        254    2    1    2    0    0 -0.31004813718E+03  0.10752284098E+03  0.17275419539E+03  0.97031193656E+03  0.89664387217E+03 0.  0.
         23    2    4    4    0    0 -0.17391272662E+03  0.22236395241E+03 -0.32140573216E+03  0.43778296938E+03  0.93064062889E+02 0.  0.
         23    2    4    4    0    0 -0.13613541056E+03 -0.11484111143E+03  0.49415992755E+03  0.53252896718E+03  0.87588446775E+02 0.  0.
          1    1    3    3  502    0  0.29272917822E+03 -0.88946245540E+02  0.90084304485E+03  0.95137794689E+03  0.00000000000E+00 0. -1.
         -1    1    3    3    0  502  0.17318958956E+02 -0.18576595436E+02  0.40833517387E+02  0.48087549111E+02  0.00000000000E+00 0.  1.
         13    1    5    5    0    0 -0.17973791985E+03  0.22717930373E+03 -0.31335384664E+03  0.42673972054E+03  0.00000000000E+00 0.  1.
        -13    1    5    5    0    0  0.58251932314E+01 -0.48153513272E+01 -0.80518855157E+01  0.11043248840E+02  0.00000000000E+00 0. -1.
          1    1    6    6  503    0 -0.96708601686E+02 -0.46198700102E+02  0.18904804217E+03  0.21731552126E+03  0.00000000000E+00 0. -1.
         -1    1    6    6    0  503 -0.39426808871E+02 -0.68642411328E+02  0.30511188538E+03  0.31521344592E+03  0.00000000000E+00 0.  1.
<mgrwt>
<rscale>  0 0.16242128E+04</rscale>
<asrwt>0</asrwt>
<pdfrwt beam="1">  1        2 0.23724678E+00 0.16242128E+04</pdfrwt>
<pdfrwt beam="2">  1       -2 0.65795899E-01 0.16242128E+04</pdfrwt>
<totfact> 0.24461208E+01</totfact>
</mgrwt>
</event>
<event>
12    3  0.4688899E-008  0.1784372E+04  0.7818608E-02  0.8714655E-01
         -1   -1    0    0    0  501 -0.00000000000E+00  0.00000000000E+00  0.64207581867E+03  0.64207581867E+03  0.00000000000E+00 0.  1.
          1   -1    0    0  501    0  0.00000000000E+00 -0.00000000000E+00 -0.12397223345E+04  0.12397223345E+04  0.00000000000E+00 0. -1.
         23    2    1    2    0    0  0.64756066881E+03 -0.14216231843E+03 -0.18356133211E+03  0.69357551857E+03  0.88358886037E+02 0.  0.
        254    2    1    2    0    0 -0.64756066881E+03  0.14216231843E+03 -0.41408518371E+03  0.11882226346E+04  0.89490867992E+03 0.  0.
         23    2    4    4    0    0 -0.74572236071E+02 -0.19776429318E+03 -0.45955411580E+03  0.51406913192E+03  0.91680712237E+02 0.  0.
         23    2    4    4    0    0 -0.57298843274E+03  0.33992661161E+03  0.45468932094E+02  0.67415350266E+03  0.92464458189E+02 0.  0.
          4    1    3    3  502    0  0.19893564800E+03 -0.52387924053E+02 -0.99029192958E+02  0.22831265337E+03  0.00000000000E+00 0. -1.
         -4    1    3    3    0  502  0.44862502081E+03 -0.89774394372E+02 -0.84532139156E+02  0.46526286520E+03  0.00000000000E+00 0.  1.
         13    1    5    5    0    0 -0.36395524825E+02 -0.98066877688E+01 -0.59848212470E+02  0.70729158684E+02  0.00000000000E+00 0.  1.
        -13    1    5    5    0    0 -0.38176711246E+02 -0.18795760541E+03 -0.39970590333E+03  0.44333997324E+03  0.00000000000E+00 0. -1.
          3    1    6    6  503    0 -0.43525441275E+03  0.29579773192E+03  0.15680072208E+02  0.52648700525E+03  0.00000000000E+00 0. -1.
         -3    1    6    6    0  503 -0.13773401999E+03  0.44128879686E+02  0.29788859886E+02  0.14766649741E+03  0.00000000000E+00 0.  1.
<mgrwt>
<rscale>  0 0.17843719E+04</rscale>
<asrwt>0</asrwt>
<pdfrwt beam="1">  1        1 0.19072651E+00 0.17843719E+04</pdfrwt>
<pdfrwt beam="2">  1       -1 0.98780896E-01 0.17843719E+04</pdfrwt>
<totfact> 0.92593809E+00</totfact>
</mgrwt>
</event>
<event>
12    3  0.4688899E-008  0.1748554E+04  0.7818608E-02  0.8734147E-01
          1   -1    0    0  501    0  0.00000000000E+00  0.00000000000E+00  0.28640590034E+04  0.28640590034E+04  0.00000000000E+00 0. -1.
         -1   -1    0    0    0  501 -0.00000000000E+00 -0.00000000000E+00 -0.26688004852E+03  0.26688004852E+03  0.00000000000E+00 0.  1.
         23    2    1    2    0    0  0.27397742465E+03 -0.55027298180E+03  0.11208145685E+04  0.12815598887E+04  0.91139825643E+02 0.  0.
        254    2    1    2    0    0 -0.27397742465E+03  0.55027298180E+03  0.14763643865E+04  0.18493791632E+04  0.92880972436E+03 0.  0.
         23    2    4    4    0    0 -0.56920922500E+03  0.47930551589E+03  0.12592750294E+04  0.14653175985E+04  0.87459394018E+02 0.  0.
         23    2    4    4    0    0  0.29523180035E+03  0.70967465909E+02  0.21708935711E+03  0.38406156471E+03  0.90428421188E+02 0.  0.
          1    1    3    3  502    0  0.17610825600E+03 -0.35827149413E+03  0.81396937122E+03  0.90659732992E+03  0.00000000000E+00 0. -1.
         -1    1    3    3    0  502  0.97869168651E+02 -0.19200148767E+03  0.30684519724E+03  0.37496255881E+03  0.00000000000E+00 0.  1.
         13    1    5    5    0    0 -0.28264836200E+03  0.27331408274E+03  0.73043391387E+03  0.82953263161E+03  0.00000000000E+00 0. -1.
        -13    1    5    5    0    0 -0.28656086300E+03  0.20599143315E+03  0.52884111549E+03  0.63578496692E+03  0.00000000000E+00 0.  1.
          4    1    6    6  503    0  0.39903514124E+01 -0.12695177342E+02  0.51056416320E+01  0.14253350786E+02  0.00000000000E+00 0. -1.
         -4    1    6    6    0  503  0.29124144894E+03  0.83662643251E+02  0.21198371548E+03  0.36980821392E+03  0.00000000000E+00 0.  1.
<mgrwt>
<rscale>  0 0.17485539E+04</rscale>
<asrwt>0</asrwt>
<pdfrwt beam="1">  1        1 0.44062444E+00 0.17485539E+04</pdfrwt>
<pdfrwt beam="2">  1       -1 0.41058471E-01 0.17485539E+04</pdfrwt>
<totfact> 0.41375309E+00</totfact>
</mgrwt>
</event>
<event>
12    3  0.4688899E-008  0.1413296E+04  0.7818608E-02  0.8944250E-01
          2   -1    0    0  501    0  0.00000000000E+00  0.00000000000E+00  0.29037001568E+04  0.29037001568E+04  0.00000000000E+00 0. -1.
         -2   -1    0    0    0  501 -0.00000000000E+00 -0.00000000000E+00 -0.17197059985E+03  0.17197059985E+03  0.00000000000E+00 0.  1.
         23    2    1    2    0    0  0.94738587677E+02 -0.16766851952E+03  0.15689446020E+04  0.15833022286E+04  0.90391651006E+02 0.  0.
        254    2    1    2    0    0 -0.94738587677E+02  0.16766851952E+03  0.11627849550E+04  0.14923685280E+04  0.91542713505E+03 0.  0.
         23    2    4    4    0    0  0.41464866491E+02  0.26080985817E+03  0.12526057293E+04  0.12834235839E+04  0.91727123480E+02 0.  0.
         23    2    4    4    0    0 -0.13620345417E+03 -0.93141338658E+02 -0.89820774373E+02  0.20894494418E+03  0.91452327994E+02 0.  0.
          3    1    3    3  502    0  0.50468801621E+02 -0.41462076524E+02  0.28391689219E+03  0.29133315190E+03  0.00000000000E+00 0. -1.
         -3    1    3    3    0  502  0.44269786055E+02 -0.12620644299E+03  0.12850277098E+04  0.12919690767E+04  0.00000000000E+00 0.  1.
         13    1    5    5    0    0 -0.88944799445E+01  0.20077332108E+03  0.92418973910E+03  0.94578840768E+03  0.00000000000E+00 0. -1.
        -13    1    5    5    0    0  0.50359346436E+02  0.60036537099E+02  0.32841599024E+03  0.33763517619E+03  0.00000000000E+00 0.  1.
          3    1    6    6  503    0 -0.29449317840E+02 -0.50945749563E+02 -0.71662765547E+02  0.92726930746E+02  0.00000000000E+00 0. -1.
         -3    1    6    6    0  503 -0.10675413633E+03 -0.42195589095E+02 -0.18158008826E+02  0.11621801343E+03  0.00000000000E+00 0.  1.
<mgrwt>
<rscale>  0 0.14132955E+04</rscale>
<asrwt>0</asrwt>
<pdfrwt beam="1">  1        2 0.44672306E+00 0.14132955E+04</pdfrwt>
<pdfrwt beam="2">  1       -2 0.26457018E-01 0.14132955E+04</pdfrwt>
<totfact> 0.25337013E+01</totfact>
</mgrwt>
</event>
<event>
12    3  0.4688899E-008  0.1273000E+04  0.7818608E-02  0.9051254E-01
          1   -1    0    0  501    0  0.00000000000E+00  0.00000000000E+00  0.45597901725E+03  0.45597901725E+03  0.00000000000E+00 0. -1.
         -1   -1    0    0    0  501 -0.00000000000E+00 -0.00000000000E+00 -0.88848935461E+03  0.88848935461E+03  0.00000000000E+00 0.  1.
         23    2    1    2    0    0 -0.42194454051E+01  0.32198777541E+03 -0.34734239964E+03  0.48232870788E+03  0.91106029609E+02 0.  0.
        254    2    1    2    0    0  0.42194454051E+01 -0.32198777541E+03 -0.85167937719E+02  0.86213966398E+03  0.79519638540E+03 0.  0.
         23    2    4    4    0    0 -0.34125454779E+03 -0.96401723074E+01 -0.14810747563E+03  0.38325067148E+03  0.91638712011E+02 0.  0.
         23    2    4    4    0    0  0.34547399320E+03 -0.31234760310E+03  0.62939537915E+02  0.47888899250E+03  0.91978130917E+02 0.  0.
          3    1    3    3  502    0  0.11140841196E+02  0.60960906459E+02 -0.12328919244E+03  0.13798759159E+03  0.00000000000E+00 0. -1.
         -3    1    3    3    0  502 -0.15360286601E+02  0.26102686895E+03 -0.22405320719E+03  0.34434111630E+03  0.00000000000E+00 0.  1.
         13    1    5    5    0    0  0.35805584496E+01  0.70622582138E+01 -0.58787414767E+01  0.98618198746E+01  0.00000000000E+00 0. -1.
        -13    1    5    5    0    0 -0.34483510624E+03 -0.16702430521E+02 -0.14222873416E+03  0.37338885160E+03  0.00000000000E+00 0.  1.
          2    1    6    6  503    0  0.11403435470E+03 -0.16396585680E+03  0.21812462178E+02  0.20090898376E+03  0.00000000000E+00 0. -1.
         -2    1    6    6    0  503  0.23143963849E+03 -0.14838174630E+03  0.41127075737E+02  0.27798000874E+03  0.00000000000E+00 0.  1.
<mgrwt>
<rscale>  0 0.12730004E+04</rscale>
<asrwt>0</asrwt>
<pdfrwt beam="1">  1        1 0.70150618E-01 0.12730004E+04</pdfrwt>
<pdfrwt beam="2">  1       -1 0.13669067E+00 0.12730004E+04</pdfrwt>
<totfact> 0.22093517E+01</totfact>
</mgrwt>
</event>
<event>
12    3  0.4688899E-008  0.1654675E+04  0.7818608E-02  0.8787645E-01
         -2   -1    0    0    0  501 -0.00000000000E+00  0.00000000000E+00  0.79439510335E+03  0.79439510335E+03  0.00000000000E+00 0.  1.
          2   -1    0    0  501    0  0.00000000000E+00 -0.00000000000E+00 -0.86164644484E+03  0.86164644484E+03  0.00000000000E+00 0. -1.
         23    2    1    2    0    0 -0.44323584659E+03 -0.93106364929E+02 -0.38058537903E+03  0.59902525287E+03  0.94123386869E+02 0.  0.
        254    2    1    2    0    0  0.44323584659E+03  0.93106364929E+02  0.31333403754E+03  0.10570162953E+04  0.90220752524E+03 0.  0.
         23    2    4    4    0    0 -0.11231641979E+02 -0.19560886551E+03  0.44589041847E+03  0.49491384615E+03  0.87934474351E+02 0.  0.
         23    2    4    4    0    0  0.45446748857E+03  0.28871523043E+03 -0.13255638093E+03  0.56210244917E+03  0.92145465357E+02 0.  0.
          2    1    3    3  502    0 -0.53783682858E+02  0.13903776490E+02 -0.25021075337E+02  0.60926625981E+02  0.00000000000E+00 0.  1.
         -2    1    3    3    0  502 -0.38945216373E+03 -0.10701014142E+03 -0.35556430370E+03  0.53809862689E+03  0.00000000000E+00 0. -1.
         13    1    5    5    0    0 -0.28357654406E+02 -0.15173249411E+03  0.25312791320E+03  0.29648043236E+03  0.00000000000E+00 0. -1.
        -13    1    5    5    0    0  0.17126012427E+02 -0.43876371393E+02  0.19276250527E+03  0.19843341379E+03  0.00000000000E+00 0.  1.
          3    1    6    6  503    0  0.37886834088E+03  0.21672483732E+03 -0.74929915425E+02  0.44286043745E+03  0.00000000000E+00 0. -1.
         -3    1    6    6    0  503  0.75599147685E+02  0.71990393110E+02 -0.57626465508E+02  0.11924201171E+03  0.00000000000E+00 0.  1.
<mgrwt>
<rscale>  0 0.16546755E+04</rscale>
<asrwt>0</asrwt>
<pdfrwt beam="1">  1        2 0.13256099E+00 0.16546755E+04</pdfrwt>
<pdfrwt beam="2">  1       -2 0.12221463E+00 0.16546755E+04</pdfrwt>
<totfact> 0.15090945E+01</totfact>
</mgrwt>
</event>
<event>
12    3  0.4688899E-008  0.1992121E+04  0.7818608E-02  0.8610313E-01
          1   -1    0    0  501    0  0.00000000000E+00  0.00000000000E+00  0.71386948806E+03  0.71386948806E+03  0.00000000000E+00 0. -1.
         -1   -1    0    0    0  501 -0.00000000000E+00 -0.00000000000E+00 -0.13898005669E+04  0.13898005669E+04  0.00000000000E+00 0.  1.
         23    2    1    2    0    0  0.63345092375E+03  0.34105150191E+02 -0.74508279700E+03  0.98275156554E+03  0.90714007345E+02 0.  0.
        254    2    1    2    0    0 -0.63345092375E+03 -0.34105150191E+02  0.69151718203E+02  0.11209184894E+04  0.92154927467E+03 0.  0.
         23    2    4    4    0    0 -0.67277450320E+03 -0.36626339078E+03  0.65790320080E+02  0.77403236465E+03  0.89573052475E+02 0.  0.
         23    2    4    4    0    0  0.39323579453E+02  0.33215824059E+03  0.33613981229E+01  0.34688612473E+03  0.91887125527E+02 0.  0.
          4    1    3    3  502    0  0.51289257525E+03  0.22971786640E+02 -0.65289864730E+03  0.83058000239E+03  0.00000000000E+00 0. -1.
         -4    1    3    3    0  502  0.12055834850E+03  0.11133363551E+02 -0.92184149702E+02  0.15217156315E+03  0.00000000000E+00 0.  1.
         13    1    5    5    0    0 -0.18441532283E+03 -0.11041501619E+03  0.58109828353E+02  0.22265946925E+03  0.00000000000E+00 0.  1.
        -13    1    5    5    0    0 -0.48835918037E+03 -0.25584837460E+03  0.76804917270E+01  0.55137289541E+03  0.00000000000E+00 0. -1.
          1    1    6    6  503    0  0.45707849501E+02  0.13494376435E+03  0.35839644297E+02  0.14691326402E+03  0.00000000000E+00 0. -1.
         -1    1    6    6    0  503 -0.63842700481E+01  0.19721447624E+03 -0.32478246174E+02  0.19997286071E+03  0.00000000000E+00 0.  1.
<mgrwt>
<rscale>  0 0.19921207E+04</rscale>
<asrwt>0</asrwt>
<pdfrwt beam="1">  1        1 0.10982608E+00 0.19921207E+04</pdfrwt>
<pdfrwt beam="2">  1       -1 0.21381547E+00 0.19921207E+04</pdfrwt>
<totfact> 0.29723128E+00</totfact>
</mgrwt>
</event>
<event>
12    3  0.4688899E-008  0.1557536E+04  0.7818608E-02  0.8847068E-01
          2   -1    0    0  501    0  0.00000000000E+00  0.00000000000E+00  0.10971994716E+04  0.10971994716E+04  0.00000000000E+00 0. -1.
         -2   -1    0    0    0  501 -0.00000000000E+00 -0.00000000000E+00 -0.55275261633E+03  0.55275261633E+03  0.00000000000E+00 0.  1.
         23    2    1    2    0    0 -0.41691569071E+03  0.26906717136E+03  0.80424574281E+02  0.51111048917E+03  0.92466124269E+02 0.  0.
        254    2    1    2    0    0  0.41691569071E+03 -0.26906717136E+03  0.46402228104E+03  0.11388415988E+04  0.91401732696E+03 0.  0.
         23    2    4    4    0    0  0.48747576551E+03 -0.45226769856E+03  0.58498745829E+03  0.89011263049E+03  0.88946475335E+02 0.  0.
         23    2    4    4    0    0 -0.70560074808E+02  0.18320052721E+03 -0.12096517725E+03  0.24872896831E+03  0.93232871038E+02 0.  0.
          1    1    3    3  502    0 -0.28748339960E+03  0.13984412749E+03  0.73766515157E+02  0.32809234035E+03  0.00000000000E+00 0. -1.
         -1    1    3    3    0  502 -0.12943229111E+03  0.12922304387E+03  0.66580591240E+01  0.18301814883E+03  0.00000000000E+00 0.  1.
         13    1    5    5    0    0  0.11047990621E+03 -0.12802503951E+03  0.19543749440E+03  0.25844154974E+03  0.00000000000E+00 0. -1.
        -13    1    5    5    0    0  0.37699585931E+03 -0.32424265906E+03  0.38954996389E+03  0.63167108075E+03  0.00000000000E+00 0.  1.
          3    1    6    6  503    0 -0.29846876603E+01  0.13311396508E+03 -0.71011226707E+02  0.15090006752E+03  0.00000000000E+00 0. -1.
         -3    1    6    6    0  503 -0.67575387148E+02  0.50086562127E+02 -0.49953950542E+02  0.97828900785E+02  0.00000000000E+00 0.  1.
<mgrwt>
<rscale>  0 0.15575364E+04</rscale>
<asrwt>0</asrwt>
<pdfrwt beam="1">  1        2 0.16879992E+00 0.15575364E+04</pdfrwt>
<pdfrwt beam="2">  1       -2 0.85038864E-01 0.15575364E+04</pdfrwt>
<totfact> 0.25333025E+01</totfact>
</mgrwt>
</event>
<event>
12    3  0.4688899E-008  0.1794387E+04  0.7818608E-02  0.8709290E-01
          1   -1    0    0  501    0  0.00000000000E+00  0.00000000000E+00  0.16795867627E+04  0.16795867627E+04  0.00000000000E+00 0. -1.
         -1   -1    0    0    0  501 -0.00000000000E+00 -0.00000000000E+00 -0.47925863341E+03  0.47925863341E+03  0.00000000000E+00 0.  1.
         23    2    1    2    0    0  0.44538322269E+02 -0.16101021010E+03 -0.32675819705E+03  0.37658089042E+03  0.84464772422E+02 0.  0.
        254    2    1    2    0    0 -0.44538322269E+02  0.16101021010E+03  0.15270863263E+04  0.17822645057E+04  0.90364050938E+03 0.  0.
         23    2    4    4    0    0  0.29494049027E+03 -0.19488818958E+03  0.95718877716E+03  0.10241486416E+04  0.87742724289E+02 0.  0.
         23    2    4    4    0    0 -0.33947881254E+03  0.35589839967E+03  0.56989754917E+03  0.75811586410E+03  0.89704580716E+02 0.  0.
          4    1    3    3  502    0  0.29069277196E+02 -0.45456954427E+01 -0.62658804825E+02  0.69222915612E+02  0.00000000000E+00 0. -1.
         -4    1    3    3    0  502  0.15469045074E+02 -0.15646451465E+03 -0.26409939223E+03  0.30735797481E+03  0.00000000000E+00 0.  1.
         13    1    5    5    0    0  0.30069280086E+03 -0.19124737723E+03  0.94757536422E+03  0.10123689005E+04  0.00000000000E+00 0.  1.
        -13    1    5    5    0    0 -0.57523105922E+01 -0.36408123443E+01  0.96134129478E+01  0.11779741091E+02  0.00000000000E+00 0. -1.
          2    1    6    6  503    0 -0.37686383382E+02  0.61439365168E+02  0.13086083465E+03  0.14939751380E+03  0.00000000000E+00 0. -1.
         -2    1    6    6    0  503 -0.30179242916E+03  0.29445903450E+03  0.43903671452E+03  0.60871835030E+03  0.00000000000E+00 0.  1.
<mgrwt>
<rscale>  0 0.17943873E+04</rscale>
<asrwt>0</asrwt>
<pdfrwt beam="1">  1        1 0.25839796E+00 0.17943873E+04</pdfrwt>
<pdfrwt beam="2">  1       -1 0.73732098E-01 0.17943873E+04</pdfrwt>
<totfact> 0.86077906E+00</totfact>
</mgrwt>
</event>
<event>
12    3  0.4688899E-008  0.1497064E+04  0.7818608E-02  0.8886408E-01
          2   -1    0    0  501    0  0.00000000000E+00  0.00000000000E+00  0.15546050085E+04  0.15546050085E+04  0.00000000000E+00 0. -1.
         -2   -1    0    0    0  501 -0.00000000000E+00 -0.00000000000E+00 -0.36041328303E+03  0.36041328303E+03  0.00000000000E+00 0.  1.
         23    2    1    2    0    0  0.30631713919E+02 -0.30898958098E+03 -0.18655310144E+02  0.32480753903E+03  0.93482906258E+02 0.  0.
        254    2    1    2    0    0 -0.30631713919E+02  0.30898958098E+03  0.12128470356E+04  0.15902107525E+04  0.98048938927E+03 0.  0.
         23    2    4    4    0    0 -0.33865633373E+03  0.52880088273E+03  0.67665071188E+03  0.92776766668E+03  0.92618418783E+02 0.  0.
         23    2    4    4    0    0  0.30802461981E+03 -0.21981130175E+03  0.53619632369E+03  0.66244308577E+03  0.90156361746E+02 0.  0.
          4    1    3    3  502    0 -0.31353686963E+02 -0.13160725634E+03  0.52495876128E+01  0.13539232540E+03  0.00000000000E+00 0. -1.
         -4    1    3    3    0  502  0.61985400882E+02 -0.17738232464E+03 -0.23904897757E+02  0.18941521363E+03  0.00000000000E+00 0.  1.
         13    1    5    5    0    0 -0.17928457392E+03  0.22381788468E+03  0.35880180188E+03  0.45932138746E+03  0.00000000000E+00 0. -1.
        -13    1    5    5    0    0 -0.15937175980E+03  0.30498299805E+03  0.31784891001E+03  0.46844627922E+03  0.00000000000E+00 0.  1.
          3    1    6    6  503    0  0.14123556378E+02 -0.35326018579E+02  0.28707243792E+02  0.47660342839E+02  0.00000000000E+00 0. -1.
         -3    1    6    6    0  503  0.29390106343E+03 -0.18448528317E+03  0.50748907990E+03  0.61478274293E+03  0.00000000000E+00 0.  1.
<mgrwt>
<rscale>  0 0.14970642E+04</rscale>
<asrwt>0</asrwt>
<pdfrwt beam="1">  1        2 0.23917000E+00 0.14970642E+04</pdfrwt>
<pdfrwt beam="2">  1       -2 0.55448198E-01 0.14970642E+04</pdfrwt>
<totfact> 0.34928335E+01</totfact>
</mgrwt>
</event>
<event>
12    3  0.4688899E-008  0.1857308E+04  0.7818608E-02  0.8676403E-01
          1   -1    0    0  501    0  0.00000000000E+00  0.00000000000E+00  0.36070548780E+03  0.36070548780E+03  0.00000000000E+00 0. -1.
         -1   -1    0    0    0  501 -0.00000000000E+00 -0.00000000000E+00 -0.23908663221E+04  0.23908663221E+04  0.00000000000E+00 0.  1.
         23    2    1    2    0    0 -0.29671220794E+03  0.21142194467E+03 -0.16937314859E+04  0.17347962616E+04  0.89746029410E+02 0.  0.
        254    2    1    2    0    0  0.29671220794E+03 -0.21142194467E+03 -0.33642934835E+03  0.10167755483E+04  0.88764319190E+03 0.  0.
         23    2    4    4    0    0  0.14613007635E+03  0.66185347830E+02 -0.57972823010E+03  0.60802955503E+03  0.88772853575E+02 0.  0.
         23    2    4    4    0    0  0.15058213160E+03 -0.27760729250E+03  0.24329888175E+03  0.40874599326E+03  0.90211717299E+02 0.  0.
          1    1    3    3  502    0 -0.92754806384E+02  0.58817549340E+02 -0.33974910331E+03  0.35706079513E+03  0.00000000000E+00 0. -1.
         -1    1    3    3    0  502 -0.20395740156E+03  0.15260439533E+03 -0.13539823826E+04  0.13777354665E+04  0.00000000000E+00 0.  1.
         13    1    5    5    0    0  0.71483973665E+02  0.79619887926E+02 -0.36104310730E+03  0.37656528036E+03  0.00000000000E+00 0. -1.
        -13    1    5    5    0    0  0.74646102680E+02 -0.13434540096E+02 -0.21868512280E+03  0.23146427467E+03  0.00000000000E+00 0.  1.
          4    1    6    6  503    0  0.10144116630E+03 -0.19057401765E+03  0.11046662158E+03  0.24251111502E+03  0.00000000000E+00 0. -1.
         -4    1    6    6    0  503  0.49140965298E+02 -0.87033274847E+02  0.13283226017E+03  0.16623487824E+03  0.00000000000E+00 0.  1.
<mgrwt>
<rscale>  0 0.18573084E+04</rscale>
<asrwt>0</asrwt>
<pdfrwt beam="1">  1        1 0.55493152E-01 0.18573084E+04</pdfrwt>
<pdfrwt beam="2">  1       -1 0.36782559E+00 0.18573084E+04</pdfrwt>
<totfact> 0.76559293E-01</totfact>
</mgrwt>
</event>
<event>
12    3  0.4688899E-008  0.1964019E+04  0.7818608E-02  0.8623630E-01
          2   -1    0    0  501    0  0.00000000000E+00  0.00000000000E+00  0.17414557216E+04  0.17414557216E+04  0.00000000000E+00 0. -1.
         -2   -1    0    0    0  501 -0.00000000000E+00 -0.00000000000E+00 -0.55375645291E+03  0.55375645291E+03  0.00000000000E+00 0.  1.
         23    2    1    2    0    0  0.44415842906E+03 -0.24396875937E+02  0.11816270627E+04  0.12658489096E+04  0.90879200233E+02 0.  0.
        254    2    1    2    0    0 -0.44415842906E+03  0.24396875937E+02  0.60722059446E+01  0.10293632648E+04  0.92826717149E+03 0.  0.
         23    2    4    4    0    0  0.10999039888E+03 -0.92504665497E+02 -0.32464644810E+03  0.36713058162E+03  0.93458796847E+02 0.  0.
         23    2    4    4    0    0 -0.55414882795E+03  0.11690154143E+03  0.33071865405E+03  0.66223268323E+03  0.91817235312E+02 0.  0.
          3    1    3    3  502    0  0.42745405592E+03 -0.27611608403E+02  0.11679539900E+04  0.12440240728E+04  0.00000000000E+00 0. -1.
         -3    1    3    3    0  502  0.16704373148E+02  0.32147324659E+01  0.13673072676E+02  0.21824836849E+02  0.00000000000E+00 0.  1.
         13    1    5    5    0    0  0.21841560734E+01  0.16943889573E+02 -0.43765343772E+02  0.46981605412E+02  0.00000000000E+00 0. -1.
        -13    1    5    5    0    0  0.10780624281E+03 -0.10944855507E+03 -0.28088110433E+03  0.32014897620E+03  0.00000000000E+00 0.  1.
          1    1    6    6  503    0 -0.74901699540E+02  0.43445062065E+02  0.72388528753E+02  0.11286202686E+03  0.00000000000E+00 0. -1.
         -1    1    6    6    0  503 -0.47924712841E+03  0.73456479368E+02  0.25833012529E+03  0.54937065637E+03  0.00000000000E+00 0.  1.
<mgrwt>
<rscale>  0 0.19640187E+04</rscale>
<asrwt>0</asrwt>
<pdfrwt beam="1">  1        2 0.26791626E+00 0.19640187E+04</pdfrwt>
<pdfrwt beam="2">  1       -2 0.85193301E-01 0.19640187E+04</pdfrwt>
<totfact> 0.10386331E+01</totfact>
</mgrwt>
</event>
<event>
12    3  0.4688899E-008  0.1738373E+04  0.7818608E-02  0.8739777E-01
         -1   -1    0    0    0  501 -0.00000000000E+00  0.00000000000E+00  0.46318170450E+03  0.46318170450E+03  0.00000000000E+00 0.  1.
          1   -1    0    0  501    0  0.00000000000E+00 -0.00000000000E+00 -0.16310769764E+04  0.16310769764E+04  0.00000000000E+00 0. -1.
         23    2    1    2    0    0  0.85751942469E+02 -0.20945932404E+03  0.28526313506E+03  0.37493582870E+03  0.89304061264E+02 0.  0.
        254    2    1    2    0    0 -0.85751942469E+02  0.20945932404E+03 -0.14531584070E+04  0.17193228522E+04  0.89060378975E+03 0.  0.
         23    2    4    4    0    0 -0.46646404781E+03  0.49146094921E+02 -0.60568944239E+03  0.77208834714E+03  0.96211582625E+02 0.  0.
         23    2    4    4    0    0  0.38071210534E+03  0.16031322912E+03 -0.84746896460E+03  0.94723450508E+03  0.91692546440E+02 0.  0.
          1    1    3    3  502    0 -0.18912131758E+02 -0.33493753005E+02  0.41089162181E+02  0.56283385353E+02  0.00000000000E+00 0. -1.
         -1    1    3    3    0  502  0.10466407423E+03 -0.17596557104E+03  0.24417397288E+03  0.31865244335E+03  0.00000000000E+00 0.  1.
         13    1    5    5    0    0 -0.42320704810E+03  0.27475776217E+02 -0.49854920945E+03  0.65453070064E+03  0.00000000000E+00 0. -1.
        -13    1    5    5    0    0 -0.43256999701E+02  0.21670318704E+02 -0.10714023294E+03  0.11755764650E+03  0.00000000000E+00 0.  1.
          3    1    6    6  503    0  0.35019843032E+03  0.14362233137E+03 -0.81919508026E+03  0.90241170991E+03  0.00000000000E+00 0. -1.
         -3    1    6    6    0  503  0.30513675022E+02  0.16690897751E+02 -0.28273884341E+02  0.44822795170E+02  0.00000000000E+00 0.  1.
<mgrwt>
<rscale>  0 0.17383728E+04</rscale>
<asrwt>0</asrwt>
<pdfrwt beam="1">  1        1 0.25093492E+00 0.17383728E+04</pdfrwt>
<pdfrwt beam="2">  1       -1 0.71258723E-01 0.17383728E+04</pdfrwt>
<totfact> 0.10021505E+01</totfact>
</mgrwt>
</event>
<event>
12    3  0.4688899E-008  0.1125466E+04  0.7818608E-02  0.9180721E-01
          1   -1    0    0  501    0  0.00000000000E+00  0.00000000000E+00  0.99688554351E+03  0.99688554351E+03  0.00000000000E+00 0. -1.
         -1   -1    0    0    0  501 -0.00000000000E+00 -0.00000000000E+00 -0.31765762445E+03  0.31765762445E+03  0.00000000000E+00 0.  1.
         23    2    1    2    0    0  0.91876563918E+02  0.14509253633E+02 -0.61832656592E+02  0.14438941056E+03  0.91505207621E+02 0.  0.
        254    2    1    2    0    0 -0.91876563918E+02 -0.14509253633E+02  0.74106057565E+03  0.11701537574E+04  0.90079810044E+03 0.  0.
         23    2    4    4    0    0  0.23396226991E+03  0.21338742025E+03  0.68263870398E+03  0.75790264044E+03  0.90267809060E+02 0.  0.
         23    2    4    4    0    0 -0.32583883383E+03 -0.22789667388E+03  0.58421871666E+02  0.41225111697E+03  0.91815188037E+02 0.  0.
          4    1    3    3  502    0  0.17950073870E+02 -0.34949728623E+02 -0.70229969752E+01  0.39912544009E+02  0.00000000000E+00 0. -1.
         -4    1    3    3    0  502  0.73926490048E+02  0.49458982256E+02 -0.54809659617E+02  0.10447686655E+03  0.00000000000E+00 0.  1.
         13    1    5    5    0    0  0.13889723135E+03  0.18142266749E+03  0.49304650316E+03  0.54341648800E+03  0.00000000000E+00 0.  1.
        -13    1    5    5    0    0  0.95065038556E+02  0.31964752756E+02  0.18959220082E+03  0.21448615244E+03  0.00000000000E+00 0. -1.
          1    1    6    6  503    0 -0.18533890836E+02  0.70556441414E+01 -0.44989283384E+01  0.20335377547E+02  0.00000000000E+00 0. -1.
         -1    1    6    6    0  503 -0.30730494299E+03 -0.23495231802E+03  0.62920800005E+02  0.39191573942E+03  0.00000000000E+00 0.  1.
<mgrwt>
<rscale>  0 0.11254658E+04</rscale>
<asrwt>0</asrwt>
<pdfrwt beam="1">  1        1 0.15336701E+00 0.11254658E+04</pdfrwt>
<pdfrwt beam="2">  1       -1 0.48870404E-01 0.11254658E+04</pdfrwt>
<totfact> 0.63435310E+01</totfact>
</mgrwt>
</event>
<event>
12    3  0.4688899E-008  0.2099544E+04  0.7818608E-02  0.8561444E-01
         -1   -1    0    0    0  501 -0.00000000000E+00  0.00000000000E+00  0.97593996891E+03  0.97593996891E+03  0.00000000000E+00 0.  1.
          1   -1    0    0  501    0  0.00000000000E+00 -0.00000000000E+00 -0.11291897216E+04  0.11291897216E+04  0.00000000000E+00 0. -1.
         23    2    1    2    0    0 -0.46772041677E+03  0.61939419410E+02  0.65363723919E+03  0.81036608847E+03  0.82780897279E+02 0.  0.
        254    2    1    2    0    0  0.46772041677E+03 -0.61939419410E+02 -0.80688699188E+03  0.12947636020E+04  0.89596165518E+03 0.  0.
         23    2    4    4    0    0  0.21227683191E+03 -0.46870350323E+03 -0.38499074503E+03  0.64921437100E+03  0.92287585592E+02 0.  0.
         23    2    4    4    0    0  0.25544358486E+03  0.40676408382E+03 -0.42189624685E+03  0.64554923104E+03  0.89604250173E+02 0.  0.
          4    1    3    3  502    0 -0.41847135185E+03  0.72845485171E+02  0.54838073088E+03  0.69364700174E+03  0.00000000000E+00 0.  1.
         -4    1    3    3    0  502 -0.49249064925E+02 -0.10906065760E+02  0.10525650831E+03  0.11671908673E+03  0.00000000000E+00 0. -1.
         13    1    5    5    0    0  0.17954702754E+03 -0.42451005499E+03 -0.30706058437E+03  0.55383402239E+03  0.00000000000E+00 0.  1.
        -13    1    5    5    0    0  0.32729804365E+02 -0.44193448244E+02 -0.77930160652E+02  0.95380348609E+02  0.00000000000E+00 0. -1.
          4    1    6    6  503    0  0.35805038120E+01  0.24369885264E+02 -0.49714023417E+02  0.55481487360E+02  0.00000000000E+00 0. -1.
         -4    1    6    6    0  503  0.25186308105E+03  0.38239419855E+03 -0.37218222344E+03  0.59006774368E+03  0.00000000000E+00 0.  1.
<mgrwt>
<rscale>  0 0.20995441E+04</rscale>
<asrwt>0</asrwt>
<pdfrwt beam="1">  1        1 0.17372150E+00 0.20995441E+04</pdfrwt>
<pdfrwt beam="2">  1       -1 0.15014461E+00 0.20995441E+04</pdfrwt>
<totfact> 0.38585811E+00</totfact>
</mgrwt>
</event>
<event>
12    3  0.4688899E-008  0.2580401E+04  0.7818608E-02  0.8374889E-01
         -1   -1    0    0    0  501 -0.00000000000E+00  0.00000000000E+00  0.10877974979E+04  0.10877974979E+04  0.00000000000E+00 0.  1.
          1   -1    0    0  501    0  0.00000000000E+00 -0.00000000000E+00 -0.15302643786E+04  0.15302643786E+04  0.00000000000E+00 0. -1.
         23    2    1    2    0    0 -0.96244433774E+03 -0.84863200809E+02 -0.78199542002E+03  0.12464404285E+04  0.92714825067E+02 0.  0.
        254    2    1    2    0    0  0.96244433774E+03  0.84863200809E+02  0.33952853932E+03  0.13716214480E+04  0.91244994464E+03 0.  0.
         23    2    4    4    0    0  0.74279651945E+03  0.44970517776E+03  0.33859661690E+03  0.93642437708E+03  0.90892952379E+02 0.  0.
         23    2    4    4    0    0  0.21964781829E+03 -0.36484197696E+03  0.93192241396E+00  0.43519707091E+03  0.89670451219E+02 0.  0.
          4    1    3    3  502    0 -0.26256531987E+03 -0.32345940852E+02 -0.26743149997E+03  0.37617338325E+03  0.00000000000E+00 0.  1.
         -4    1    3    3    0  502 -0.69987901787E+03 -0.52517259957E+02 -0.51456392005E+03  0.87026704526E+03  0.00000000000E+00 0. -1.
         13    1    5    5    0    0  0.55789162282E+03  0.38192024681E+03  0.26550290477E+03  0.72635936710E+03  0.00000000000E+00 0.  1.
        -13    1    5    5    0    0  0.18490489663E+03  0.67784930952E+02  0.73093712134E+02  0.21006500998E+03  0.00000000000E+00 0. -1.
          1    1    6    6  503    0  0.16927694850E+03 -0.33644445898E+03  0.94561450312E+01  0.37674789708E+03  0.00000000000E+00 0. -1.
         -1    1    6    6    0  503  0.50370869794E+02 -0.28397517973E+02 -0.85242226172E+01  0.58449173836E+02  0.00000000000E+00 0.  1.
<mgrwt>
<rscale>  0 0.25804013E+04</rscale>
<asrwt>0</asrwt>
<pdfrwt beam="1">  1        1 0.23542529E+00 0.25804013E+04</pdfrwt>
<pdfrwt beam="2">  1       -1 0.16735346E+00 0.25804013E+04</pdfrwt>
<totfact> 0.14155543E+00</totfact>
</mgrwt>
</event>
<event>
12    3  0.4688899E-008  0.2004424E+04  0.7818608E-02  0.8604555E-01
          1   -1    0    0  501    0  0.00000000000E+00  0.00000000000E+00  0.12156294249E+04  0.12156294249E+04  0.00000000000E+00 0. -1.
         -1   -1    0    0    0  501 -0.00000000000E+00 -0.00000000000E+00 -0.82626202692E+03  0.82626202692E+03  0.00000000000E+00 0.  1.
         23    2    1    2    0    0  0.48355664708E+03 -0.58750272455E+03  0.42656305571E+03  0.87740863073E+03  0.94357736852E+02 0.  0.
        254    2    1    2    0    0 -0.48355664708E+03  0.58750272455E+03 -0.37195657714E+02  0.11644828211E+04  0.88071007796E+03 0.  0.
         23    2    4    4    0    0 -0.12560595277E+03  0.78416127218E+02  0.37441038411E+03  0.41271389914E+03  0.90684521482E+02 0.  0.
         23    2    4    4    0    0 -0.35795069431E+03  0.50908659733E+03 -0.41160604183E+03  0.75176892196E+03  0.91864657121E+02 0.  0.
          4    1    3    3  502    0  0.29842561079E+03 -0.41040116427E+03  0.24560052765E+03  0.56374336359E+03  0.00000000000E+00 0. -1.
         -4    1    3    3    0  502  0.18513103629E+03 -0.17710156027E+03  0.18096252806E+03  0.31366526714E+03  0.00000000000E+00 0.  1.
         13    1    5    5    0    0 -0.41446745804E+02  0.58307365388E+02  0.87400798290E+02  0.11294459322E+03  0.00000000000E+00 0.  1.
        -13    1    5    5    0    0 -0.84159206967E+02  0.20108761830E+02  0.28700958582E+03  0.29976930592E+03  0.00000000000E+00 0. -1.
          4    1    6    6  503    0 -0.36108625927E+03  0.49553882015E+03 -0.39202994386E+03  0.72775647423E+03  0.00000000000E+00 0. -1.
         -4    1    6    6    0  503  0.31355649675E+01  0.13547777179E+02 -0.19576097969E+02  0.24012447727E+02  0.00000000000E+00 0.  1.
<mgrwt>
<rscale>  0 0.20044235E+04</rscale>
<asrwt>0</asrwt>
<pdfrwt beam="1">  1        1 0.18701991E+00 0.20044235E+04</pdfrwt>
<pdfrwt beam="2">  1       -1 0.12711723E+00 0.20044235E+04</pdfrwt>
<totfact> 0.51796274E+00</totfact>
</mgrwt>
</event>
<event>
12    3  0.4688899E-008  0.1519145E+04  0.7818608E-02  0.8871820E-01
          2   -1    0    0  501    0  0.00000000000E+00  0.00000000000E+00  0.16691639393E+04  0.16691639393E+04  0.00000000000E+00 0. -1.
         -2   -1    0    0    0  501 -0.00000000000E+00 -0.00000000000E+00 -0.34565253918E+03  0.34565253918E+03  0.00000000000E+00 0.  1.
         23    2    1    2    0    0  0.17450607963E+03 -0.73556536275E+02  0.10243075842E+04  0.10456861198E+04  0.91599663275E+02 0.  0.
        254    2    1    2    0    0 -0.17450607963E+03  0.73556536275E+02  0.29920381600E+03  0.96913035871E+03  0.90212404513E+03 0.  0.
         23    2    4    4    0    0  0.22704696204E+03  0.13292998049E+03  0.44791006179E+03  0.52716582955E+03  0.89775752369E+02 0.  0.
         23    2    4    4    0    0 -0.40155304167E+03 -0.59373444214E+02 -0.14870624579E+03  0.44196452916E+03  0.91918694199E+02 0.  0.
          4    1    3    3  502    0  0.17379029166E+03 -0.46906519525E+02  0.81213943276E+03  0.83184959295E+03  0.00000000000E+00 0. -1.
         -4    1    3    3    0  502  0.71578797237E+00 -0.26650016751E+02  0.21216815140E+03  0.21383652685E+03  0.00000000000E+00 0.  1.
         13    1    5    5    0    0  0.20189148152E+03  0.14593582329E+03  0.39129687354E+03  0.46386493516E+03  0.00000000000E+00 0. -1.
        -13    1    5    5    0    0  0.25155480515E+02 -0.13005842802E+02  0.56613188249E+02  0.63300894390E+02  0.00000000000E+00 0.  1.
          3    1    6    6  503    0 -0.78056581865E+01 -0.20865286563E+01  0.10631773170E+02  0.13353520221E+02  0.00000000000E+00 0.  1.
         -3    1    6    6    0  503 -0.39374738348E+03 -0.57286915557E+02 -0.15933801896E+03  0.42861100894E+03  0.00000000000E+00 0. -1.
<mgrwt>
<rscale>  0 0.15191455E+04</rscale>
<asrwt>0</asrwt>
<pdfrwt beam="1">  1        2 0.25679445E+00 0.15191455E+04</pdfrwt>
<pdfrwt beam="2">  1       -2 0.53177315E-01 0.15191455E+04</pdfrwt>
<totfact> 0.32815043E+01</totfact>
</mgrwt>
</event>
<event>
12    3  0.4688899E-008  0.2601157E+04  0.7818608E-02  0.8367808E-01
          1   -1    0    0  501    0  0.00000000000E+00  0.00000000000E+00  0.26287061129E+04  0.26287061129E+04  0.00000000000E+00 0. -1.
         -1   -1    0    0    0  501 -0.00000000000E+00 -0.00000000000E+00 -0.64347406325E+03  0.64347406325E+03  0.00000000000E+00 0.  1.
         23    2    1    2    0    0  0.19766205158E+03  0.10979239870E+04  0.51484787459E+03  0.12322132959E+04  0.93669123204E+02 0.  0.
        254    2    1    2    0    0 -0.19766205158E+03 -0.10979239870E+04  0.14703841750E+04  0.20399668802E+04  0.86886585983E+03 0.  0.
         23    2    4    4    0    0 -0.10059397103E+03  0.97900514848E+02  0.42625320318E+02  0.17283023338E+03  0.91376768508E+02 0.  0.
         23    2    4    4    0    0 -0.97068080549E+02 -0.11958245019E+04  0.14277588547E+04  0.18671366468E+04  0.91024498345E+02 0.  0.
          1    1    3    3  502    0  0.74987155355E+02  0.25581608216E+03  0.92475822672E+02  0.28216434775E+03  0.00000000000E+00 0. -1.
         -1    1    3    3    0  502  0.12267489622E+03  0.84210790486E+03  0.42237205192E+03  0.95004894813E+03  0.00000000000E+00 0.  1.
         13    1    5    5    0    0 -0.50520038609E+02 -0.65292844423E+01  0.56295297036E+01  0.51250341083E+02  0.00000000000E+00 0. -1.
        -13    1    5    5    0    0 -0.50073932421E+02  0.10442979929E+03  0.36995790615E+02  0.12157989230E+03  0.00000000000E+00 0.  1.
          1    1    6    6  503    0  0.90109247262E+01 -0.17050477766E+03  0.23869790689E+03  0.29347873300E+03  0.00000000000E+00 0. -1.
         -1    1    6    6    0  503 -0.10607900527E+03 -0.10253197242E+04  0.11890609478E+04  0.15736579138E+04  0.00000000000E+00 0.  1.
<mgrwt>
<rscale>  0 0.26011568E+04</rscale>
<asrwt>0</asrwt>
<pdfrwt beam="1">  1        1 0.40441632E+00 0.26011568E+04</pdfrwt>
<pdfrwt beam="2">  1       -1 0.98996011E-01 0.26011568E+04</pdfrwt>
<totfact> 0.94585559E-01</totfact>
</mgrwt>
</event>
<event>
12    3  0.4688899E-008  0.1739504E+04  0.7818608E-02  0.8739149E-01
          2   -1    0    0  501    0  0.00000000000E+00  0.00000000000E+00  0.22502580705E+04  0.22502580705E+04  0.00000000000E+00 0. -1.
         -2   -1    0    0    0  501 -0.00000000000E+00 -0.00000000000E+00 -0.33616964214E+03  0.33616964214E+03  0.00000000000E+00 0.  1.
         23    2    1    2    0    0 -0.41391918545E+03  0.20830149303E+03  0.64306998896E+02  0.47676284867E+03  0.91917461302E+02 0.  0.
        254    2    1    2    0    0  0.41391918545E+03 -0.20830149303E+03  0.18497814295E+04  0.21096648640E+04  0.90237237179E+03 0.  0.
         23    2    4    4    0    0 -0.73450469314E+02  0.28825019146E+03  0.51912134308E+03  0.60507589255E+03  0.90259196647E+02 0.  0.
         23    2    4    4    0    0  0.48736965476E+03 -0.49655168448E+03  0.13306600864E+04  0.15045889714E+04  0.95073401491E+02 0.  0.
          3    1    3    3  502    0 -0.20376923889E+03  0.60076327511E+02  0.54929258337E+02  0.21942718898E+03  0.00000000000E+00 0. -1.
         -3    1    3    3    0  502 -0.21014994656E+03  0.14822516551E+03  0.93777405592E+01  0.25733565969E+03  0.00000000000E+00 0.  1.
         13    1    5    5    0    0 -0.47127694649E+02  0.26967960703E+03  0.42450931174E+03  0.50512994942E+03  0.00000000000E+00 0. -1.
        -13    1    5    5    0    0 -0.26322774665E+02  0.18570584429E+02  0.94612031343E+02  0.99945943124E+02  0.00000000000E+00 0.  1.
          1    1    6    6  503    0  0.38607388145E+03 -0.41348694103E+03  0.11479389172E+04  0.12797610128E+04  0.00000000000E+00 0. -1.
         -1    1    6    6    0  503  0.10129577331E+03 -0.83064743449E+02  0.18272116922E+03  0.22482795862E+03  0.00000000000E+00 0.  1.
<mgrwt>
<rscale>  0 0.17395039E+04</rscale>
<asrwt>0</asrwt>
<pdfrwt beam="1">  1        2 0.34619354E+00 0.17395039E+04</pdfrwt>
<pdfrwt beam="2">  1       -2 0.51718408E-01 0.17395039E+04</pdfrwt>
<totfact> 0.16212346E+01</totfact>
</mgrwt>
</event>
<event>
12    3  0.4688899E-008  0.1671373E+04  0.7818608E-02  0.8777862E-01
          1   -1    0    0  501    0  0.00000000000E+00  0.00000000000E+00  0.26482167293E+04  0.26482167293E+04  0.00000000000E+00 0. -1.
         -1   -1    0    0    0  501 -0.00000000000E+00 -0.00000000000E+00 -0.26371416216E+03  0.26371416216E+03  0.00000000000E+00 0.  1.
         23    2    1    2    0    0 -0.42832815884E+03 -0.79951352905E+02  0.15452644958E+04  0.16081573672E+04  0.92035456313E+02 0.  0.
        254    2    1    2    0    0  0.42832815884E+03  0.79951352905E+02  0.83923807132E+03  0.13037735242E+04  0.89757876070E+03 0.  0.
         23    2    4    4    0    0  0.91830179068E+02  0.35045161360E+03  0.21104966721E+02  0.37439253994E+03  0.92061061683E+02 0.  0.
         23    2    4    4    0    0  0.33649797978E+03 -0.27050026069E+03  0.81813310460E+03  0.92938098430E+03  0.89476006350E+02 0.  0.
          3    1    3    3  502    0 -0.21109644628E+03 -0.18621977974E+02  0.89790506850E+03  0.92257357416E+03  0.00000000000E+00 0. -1.
         -3    1    3    3    0  502 -0.21723171256E+03 -0.61329374931E+02  0.64735942733E+03  0.68558379307E+03  0.00000000000E+00 0.  1.
         13    1    5    5    0    0  0.45460717696E+02  0.14113195171E+03  0.53366753170E+02  0.15758462803E+03  0.00000000000E+00 0. -1.
        -13    1    5    5    0    0  0.46369461373E+02  0.20931966189E+03 -0.32261786448E+02  0.21680791191E+03  0.00000000000E+00 0.  1.
          2    1    6    6  503    0  0.15306863245E+03 -0.15769237391E+03  0.33793602096E+03  0.40310996675E+03  0.00000000000E+00 0. -1.
         -2    1    6    6    0  503  0.18342934733E+03 -0.11280788678E+03  0.48019708363E+03  0.52627101755E+03  0.00000000000E+00 0.  1.
<mgrwt>
<rscale>  0 0.16713734E+04</rscale>
<asrwt>0</asrwt>
<pdfrwt beam="1">  1        1 0.40741794E+00 0.16713734E+04</pdfrwt>
<pdfrwt beam="2">  1       -1 0.40571411E-01 0.16713734E+04</pdfrwt>
<totfact> 0.60561725E+00</totfact>
</mgrwt>
</event>
<event>
12    3  0.4688899E-008  0.2815640E+04  0.7818608E-02  0.8298429E-01
          2   -1    0    0  501    0  0.00000000000E+00  0.00000000000E+00  0.12800968052E+04  0.12800968052E+04  0.00000000000E+00 0. -1.
         -2   -1    0    0    0  501 -0.00000000000E+00 -0.00000000000E+00 -0.15482873203E+04  0.15482873203E+04  0.00000000000E+00 0.  1.
         23    2    1    2    0    0  0.61760309557E+03  0.59150939696E+03 -0.10523043788E+04  0.13589411700E+04  0.89775538971E+02 0.  0.
        254    2    1    2    0    0 -0.61760309557E+03 -0.59150939696E+03  0.78411386377E+03  0.14694429555E+04  0.90172673116E+03 0.  0.
         23    2    4    4    0    0 -0.15317395211E+03  0.15562496396E+03 -0.61963131020E+02  0.24515683059E+03  0.92633973062E+02 0.  0.
         23    2    4    4    0    0 -0.46442914347E+03 -0.74713436093E+03  0.84607699479E+03  0.12242861249E+04  0.95530371646E+02 0.  0.
          1    1    3    3  502    0  0.35785304723E+03  0.38130453490E+03 -0.58789486276E+03  0.78681149039E+03  0.00000000000E+00 0. -1.
         -1    1    3    3    0  502  0.25975004834E+03  0.21020486206E+03 -0.46440951609E+03  0.57212967960E+03  0.00000000000E+00 0.  1.
         13    1    5    5    0    0 -0.14557691043E+03  0.99770530735E+02 -0.26247383195E+02  0.17842567298E+03  0.00000000000E+00 0. -1.
        -13    1    5    5    0    0 -0.75970416823E+01  0.55854433228E+02 -0.35715747825E+02  0.66731157612E+02  0.00000000000E+00 0.  1.
          2    1    6    6  503    0 -0.37767534245E+03 -0.53085998277E+03  0.63851683948E+03  0.91222515856E+03  0.00000000000E+00 0. -1.
         -2    1    6    6    0  503 -0.86753801021E+02 -0.21627437815E+03  0.20756015530E+03  0.31206096633E+03  0.00000000000E+00 0.  1.
<mgrwt>
<rscale>  0 0.28156404E+04</rscale>
<asrwt>0</asrwt>
<pdfrwt beam="1">  1        2 0.19693797E+00 0.28156404E+04</pdfrwt>
<pdfrwt beam="2">  1       -2 0.23819805E+00 0.28156404E+04</pdfrwt>
<totfact> 0.11216318E+00</totfact>
</mgrwt>
</event>
<event>
12    3  0.4688899E-008  0.1411157E+04  0.7818608E-02  0.8945782E-01
         -1   -1    0    0    0  501 -0.00000000000E+00  0.00000000000E+00  0.25253549379E+03  0.25253549379E+03  0.00000000000E+00 0.  1.
          1   -1    0    0  501    0  0.00000000000E+00 -0.00000000000E+00 -0.19713699046E+04  0.19713699046E+04  0.00000000000E+00 0. -1.
         23    2    1    2    0    0  0.19127394331E+03  0.33465972852E+02  0.59075339152E+02  0.22362270134E+03  0.93869718929E+02 0.  0.
        254    2    1    2    0    0 -0.19127394331E+03 -0.33465972852E+02 -0.17779097500E+04  0.20002826971E+04  0.89580248738E+03 0.  0.
         23    2    4    4    0    0  0.21040996518E+03 -0.17486989622E+03 -0.17134050746E+03  0.33574718137E+03  0.92286327553E+02 0.  0.
         23    2    4    4    0    0 -0.40168390849E+03  0.14140392337E+03 -0.16065692425E+04  0.16645355157E+04  0.90932503127E+02 0.  0.
          4    1    3    3  502    0  0.10642870133E+02  0.25384908859E+02 -0.11087694342E+02  0.29674926255E+02  0.00000000000E+00 0. -1.
         -4    1    3    3    0  502  0.18063107318E+03  0.80810639928E+01  0.70163033494E+02  0.19394777509E+03  0.00000000000E+00 0.  1.
         13    1    5    5    0    0  0.20884570176E+03 -0.16142068641E+03 -0.18016824463E+03  0.31958373162E+03  0.00000000000E+00 0. -1.
        -13    1    5    5    0    0  0.15642634206E+01 -0.13449209804E+02  0.88277371660E+01  0.16163449751E+02  0.00000000000E+00 0.  1.
          3    1    6    6  503    0 -0.39085684184E+03  0.12028696413E+03 -0.15530779819E+04  0.16060165760E+04  0.00000000000E+00 0. -1.
         -3    1    6    6    0  503 -0.10827066648E+02  0.21116959237E+02 -0.53491260630E+02  0.58518939699E+02  0.00000000000E+00 0.  1.
<mgrwt>
<rscale>  0 0.14111568E+04</rscale>
<asrwt>0</asrwt>
<pdfrwt beam="1">  1        1 0.30328769E+00 0.14111568E+04</pdfrwt>
<pdfrwt beam="2">  1       -1 0.38851613E-01 0.14111568E+04</pdfrwt>
<totfact> 0.19519199E+01</totfact>
</mgrwt>
</event>
<event>
12    3  0.4688899E-008  0.1194710E+04  0.7818608E-02  0.9117499E-01
          2   -1    0    0  501    0  0.00000000000E+00  0.00000000000E+00  0.17662592699E+04  0.17662592699E+04  0.00000000000E+00 0. -1.
         -2   -1    0    0    0  501 -0.00000000000E+00 -0.00000000000E+00 -0.20202754674E+03  0.20202754674E+03  0.00000000000E+00 0.  1.
         23    2    1    2    0    0 -0.18111828939E+03 -0.11770482079E+03  0.14527846240E+03  0.27428958318E+03  0.86433119898E+02 0.  0.
        254    2    1    2    0    0  0.18111828939E+03  0.11770482079E+03  0.14189532608E+04  0.16939972335E+04  0.89974441435E+03 0.  0.
         23    2    4    4    0    0 -0.18482704032E+03 -0.25936244871E+03  0.27153811398E+03  0.42859820900E+03  0.92377284979E+02 0.  0.
         23    2    4    4    0    0  0.36594532970E+03  0.37706726950E+03  0.11474151468E+04  0.12653990245E+04  0.92614588399E+02 0.  0.
          3    1    3    3  502    0 -0.28433148897E+02  0.13371823708E+02  0.19011811812E+02  0.36724632249E+02  0.00000000000E+00 0. -1.
         -3    1    3    3    0  502 -0.15268514049E+03 -0.13107664450E+03  0.12626665059E+03  0.23756495093E+03  0.00000000000E+00 0.  1.
         13    1    5    5    0    0 -0.18768277078E+03 -0.21108109933E+03  0.22092504154E+03  0.35859158791E+03  0.00000000000E+00 0. -1.
        -13    1    5    5    0    0  0.28557304600E+01 -0.48281349378E+02  0.50613072440E+02  0.70006621087E+02  0.00000000000E+00 0.  1.
          2    1    6    6  503    0  0.35084337618E+03  0.32239858431E+03  0.10105663990E+04  0.11172628914E+04  0.00000000000E+00 0. -1.
         -2    1    6    6    0  503  0.15101953526E+02  0.54668685194E+02  0.13684874781E+03  0.14813613306E+03  0.00000000000E+00 0.  1.
<mgrwt>
<rscale>  0 0.11947101E+04</rscale>
<asrwt>0</asrwt>
<pdfrwt beam="1">  1        2 0.27173218E+00 0.11947101E+04</pdfrwt>
<pdfrwt beam="2">  1       -2 0.31081162E-01 0.11947101E+04</pdfrwt>
<totfact> 0.85347269E+01</totfact>
</mgrwt>
</event>
<event>
12    3  0.4688899E-008  0.1786251E+04  0.7818608E-02  0.8713645E-01
          2   -1    0    0  501    0  0.00000000000E+00  0.00000000000E+00  0.12552163546E+04  0.12552163546E+04  0.00000000000E+00 0. -1.
         -2   -1    0    0    0  501 -0.00000000000E+00 -0.00000000000E+00 -0.63548667054E+03  0.63548667054E+03  0.00000000000E+00 0.  1.
         23    2    1    2    0    0  0.49425631351E+03 -0.36543458143E+03  0.49314075636E+03  0.79332478467E+03  0.91349174319E+02 0.  0.
        254    2    1    2    0    0 -0.49425631351E+03  0.36543458143E+03  0.12658892773E+03  0.10973782405E+04  0.90021248011E+03 0.  0.
         23    2    4    4    0    0  0.85802982574E+02 -0.14026796799E+03 -0.18342007693E+03  0.26265972854E+03  0.91158947501E+02 0.  0.
         23    2    4    4    0    0 -0.58005929608E+03  0.50570254942E+03  0.31000900467E+03  0.83471851195E+03  0.91899704934E+02 0.  0.
          1    1    3    3  502    0  0.34500505490E+03 -0.25705135230E+03  0.39655023616E+03  0.58511193410E+03  0.00000000000E+00 0. -1.
         -1    1    3    3    0  502  0.14925125860E+03 -0.10838322913E+03  0.96590520195E+02  0.20821285057E+03  0.00000000000E+00 0.  1.
         13    1    5    5    0    0  0.86805013764E+02 -0.85995918780E+02 -0.16504220077E+03  0.20535173848E+03  0.00000000000E+00 0.  1.
        -13    1    5    5    0    0 -0.10020311901E+01 -0.54272049214E+02 -0.18377876166E+02  0.57307990060E+02  0.00000000000E+00 0. -1.
          4    1    6    6  503    0 -0.66413324223E+02  0.10196359921E+03  0.47889745121E+02  0.13076977053E+03  0.00000000000E+00 0. -1.
         -4    1    6    6    0  503 -0.51364597186E+03  0.40373895021E+03  0.26211925955E+03  0.70394874142E+03  0.00000000000E+00 0.  1.
<mgrwt>
<rscale>  0 0.17862511E+04</rscale>
<asrwt>0</asrwt>
<pdfrwt beam="1">  1        2 0.19311021E+00 0.17862511E+04</pdfrwt>
<pdfrwt beam="2">  1       -2 0.97767180E-01 0.17862511E+04</pdfrwt>
<totfact> 0.14464113E+01</totfact>
</mgrwt>
</event>
<event>
12    3  0.4688899E-008  0.2809456E+04  0.7818608E-02  0.8300339E-01
         -1   -1    0    0    0  501 -0.00000000000E+00  0.00000000000E+00  0.17880259802E+04  0.17880259802E+04  0.00000000000E+00 0.  1.
          1   -1    0    0  501    0  0.00000000000E+00 -0.00000000000E+00 -0.11035973390E+04  0.11035973390E+04  0.00000000000E+00 0. -1.
         23    2    1    2    0    0  0.58508657025E+03 -0.95965990172E+03  0.87736531637E+03  0.14287754479E+04  0.91410943732E+02 0.  0.
        254    2    1    2    0    0 -0.58508657025E+03  0.95965990172E+03 -0.19293667514E+03  0.14628478712E+04  0.91620189484E+03 0.  0.
         23    2    4    4    0    0 -0.29791762303E+03  0.69642207601E+02  0.26722950635E+03  0.41648706315E+03  0.91896232315E+02 0.  0.
         23    2    4    4    0    0 -0.28716894722E+03  0.89001769412E+03 -0.46016618149E+03  0.10463608081E+04  0.92306695454E+02 0.  0.
          1    1    3    3  502    0  0.54716709042E+02 -0.15070269227E+03  0.12185276632E+03  0.20137853998E+03  0.00000000000E+00 0. -1.
         -1    1    3    3    0  502  0.53036986121E+03 -0.80895720945E+03  0.75551255005E+03  0.12273969080E+04  0.00000000000E+00 0.  1.
         13    1    5    5    0    0 -0.11293917190E+03  0.26387947762E+02  0.45700610299E+02  0.12466004219E+03  0.00000000000E+00 0.  1.
        -13    1    5    5    0    0 -0.18497845113E+03  0.43254259839E+02  0.22152889605E+03  0.29182702096E+03  0.00000000000E+00 0. -1.
          1    1    6    6  503    0 -0.70619319207E+02  0.14126533756E+03 -0.10616452604E+03  0.19029947564E+03  0.00000000000E+00 0. -1.
         -1    1    6    6    0  503 -0.21654962802E+03  0.74875235656E+03 -0.35400165545E+03  0.85606133245E+03  0.00000000000E+00 0.  1.
<mgrwt>
<rscale>  0 0.28094560E+04</rscale>
<asrwt>0</asrwt>
<pdfrwt beam="1">  1        1 0.16978421E+00 0.28094560E+04</pdfrwt>
<pdfrwt beam="2">  1       -1 0.27508092E+00 0.28094560E+04</pdfrwt>
<totfact> 0.52197871E-01</totfact>
</mgrwt>
</event>
<event>
12    3  0.4688899E-008  0.1602264E+04  0.7818608E-02  0.8819158E-01
          2   -1    0    0  501    0  0.00000000000E+00  0.00000000000E+00  0.16542173689E+04  0.16542173689E+04  0.00000000000E+00 0.  1.
         -2   -1    0    0    0  501 -0.00000000000E+00 -0.00000000000E+00 -0.38798549878E+03  0.38798549878E+03  0.00000000000E+00 0. -1.
         23    2    1    2    0    0  0.34686720967E+03 -0.74438231405E+02 -0.96496098597E+02  0.37928100714E+03  0.93191597752E+02 0.  0.
        254    2    1    2    0    0 -0.34686720967E+03  0.74438231405E+02  0.13627279687E+04  0.16629218606E+04  0.88454716445E+03 0.  0.
         23    2    4    4    0    0 -0.88844246497E+02  0.25909011069E+03  0.12926683814E+04  0.13241584422E+04  0.85924677315E+02 0.  0.
         23    2    4    4    0    0 -0.25802296317E+03 -0.18465187928E+03  0.70059587322E+02  0.33876341836E+03  0.95813056497E+02 0.  0.
          1    1    3    3  502    0  0.20175443449E+03 -0.48608750920E+02 -0.86773556943E+01  0.20770883227E+03  0.00000000000E+00 0. -1.
         -1    1    3    3    0  502  0.14511277518E+03 -0.25829480485E+02 -0.87818742903E+02  0.17157217486E+03  0.00000000000E+00 0.  1.
         13    1    5    5    0    0  0.92621894843E+01  0.75922623312E+02  0.27170187958E+03  0.28226219062E+03  0.00000000000E+00 0.  1.
        -13    1    5    5    0    0 -0.98106435982E+02  0.18316748738E+03  0.10209665018E+04  0.10418962516E+04  0.00000000000E+00 0. -1.
          1    1    6    6  503    0 -0.15289478572E+03 -0.13322567800E+03  0.84770761514E+00  0.20279698072E+03  0.00000000000E+00 0. -1.
         -1    1    6    6    0  503 -0.10512817745E+03 -0.51426201282E+02  0.69211879707E+02  0.13596643764E+03  0.00000000000E+00 0.  1.
<mgrwt>
<rscale>  0 0.16022638E+04</rscale>
<asrwt>0</asrwt>
<pdfrwt beam="1">  1        2 0.25449498E+00 0.16022638E+04</pdfrwt>
<pdfrwt beam="2">  1       -2 0.59690078E-01 0.16022638E+04</pdfrwt>
<totfact> 0.26106848E+01</totfact>
</mgrwt>
</event>
<event>
12    3  0.4688899E-008  0.1149151E+04  0.7818608E-02  0.9158567E-01
          1   -1    0    0  501    0  0.00000000000E+00  0.00000000000E+00  0.14129177018E+04  0.14129177018E+04  0.00000000000E+00 0. -1.
         -1   -1    0    0    0  501 -0.00000000000E+00 -0.00000000000E+00 -0.23365622016E+03  0.23365622016E+03  0.00000000000E+00 0.  1.
         23    2    1    2    0    0  0.69454682767E+02  0.10271296922E+03  0.41574118451E+01  0.15223727311E+03  0.88232625741E+02 0.  0.
        254    2    1    2    0    0 -0.69454682767E+02 -0.10271296922E+03  0.11751040698E+04  0.14943366488E+04  0.91476693109E+03 0.  0.
         23    2    4    4    0    0 -0.31466278534E+03 -0.12294890776E+03  0.11798019383E+04  0.12307385491E+04  0.93035801493E+02 0.  0.
         23    2    4    4    0    0  0.24520810258E+03  0.20235938539E+02 -0.46978685227E+01  0.26359809967E+03  0.94474236720E+02 0.  0.
          3    1    3    3  502    0  0.80762310030E+02  0.10968722758E+03 -0.46598403141E+01  0.13629215945E+03  0.00000000000E+00 0. -1.
         -3    1    3    3    0  502 -0.11307627263E+02 -0.69742583571E+01  0.88172521592E+01  0.15945113659E+02  0.00000000000E+00 0.  1.
         13    1    5    5    0    0 -0.25397690620E+02  0.10097092018E+02  0.50632939697E+02  0.57538583042E+02  0.00000000000E+00 0. -1.
        -13    1    5    5    0    0 -0.28926509473E+03 -0.13304599978E+03  0.11291689986E+04  0.11731999661E+04  0.00000000000E+00 0.  1.
          4    1    6    6  503    0  0.93333383232E+02  0.50542858290E+02  0.16045481731E+02  0.10734597540E+03  0.00000000000E+00 0. -1.
         -4    1    6    6    0  503  0.15187471935E+03 -0.30306919751E+02 -0.20743350254E+02  0.15625212428E+03  0.00000000000E+00 0.  1.
<mgrwt>
<rscale>  0 0.11491510E+04</rscale>
<asrwt>0</asrwt>
<pdfrwt beam="1">  1        1 0.21737195E+00 0.11491510E+04</pdfrwt>
<pdfrwt beam="2">  1       -1 0.35947112E-01 0.11491510E+04</pdfrwt>
<totfact> 0.55246093E+01</totfact>
</mgrwt>
</event>
<event>
12    3  0.4688899E-008  0.2259884E+04  0.7818608E-02  0.8493908E-01
         -2   -1    0    0    0  501 -0.00000000000E+00  0.00000000000E+00  0.92238593706E+03  0.92238593706E+03  0.00000000000E+00 0.  1.
          2   -1    0    0  501    0  0.00000000000E+00 -0.00000000000E+00 -0.13842026762E+04  0.13842026762E+04  0.00000000000E+00 0. -1.
         23    2    1    2    0    0 -0.80574488802E+03  0.38457378488E+03  0.13173234634E+03  0.90705543548E+03  0.90963351729E+02 0.  0.
        254    2    1    2    0    0  0.80574488802E+03 -0.38457378488E+03 -0.59354908551E+03  0.13995331778E+04  0.89959478562E+03 0.  0.
         23    2    4    4    0    0 -0.13051745010E+03 -0.24775502713E+03 -0.25857369105E+03  0.39142480513E+03  0.89082355858E+02 0.  0.
         23    2    4    4    0    0  0.93626233813E+03 -0.13681875776E+03 -0.33497539446E+03  0.10081083727E+04  0.93634597882E+02 0.  0.
          4    1    3    3  502    0 -0.87243109965E+02  0.23719713798E+02 -0.88048920588E+01  0.90837829031E+02  0.00000000000E+00 0.  1.
         -4    1    3    3    0  502 -0.71850177806E+03  0.36085407109E+03  0.14053723840E+03  0.81621760644E+03  0.00000000000E+00 0. -1.
         13    1    5    5    0    0 -0.37154483301E+02 -0.12857659288E+02 -0.21195099489E+02  0.44665504297E+02  0.00000000000E+00 0. -1.
        -13    1    5    5    0    0 -0.93362966801E+02 -0.23489736784E+03 -0.23737859156E+03  0.34675930084E+03  0.00000000000E+00 0.  1.
          1    1    6    6  503    0  0.18961634329E+03 -0.49063818258E+02 -0.10331375321E+03  0.22143926370E+03  0.00000000000E+00 0. -1.
         -1    1    6    6    0  503  0.74664599483E+03 -0.87754939499E+02 -0.23166164125E+03  0.78666910899E+03  0.00000000000E+00 0.  1.
<mgrwt>
<rscale>  0 0.22598841E+04</rscale>
<asrwt>0</asrwt>
<pdfrwt beam="1">  1        2 0.21295426E+00 0.22598841E+04</pdfrwt>
<pdfrwt beam="2">  1       -2 0.14190553E+00 0.22598841E+04</pdfrwt>
<totfact> 0.46607433E+00</totfact>
</mgrwt>
</event>
<event>
12    3  0.4688899E-008  0.1850891E+04  0.7818608E-02  0.8679695E-01
         -2   -1    0    0    0  501 -0.00000000000E+00  0.00000000000E+00  0.19211526470E+04  0.19211526470E+04  0.00000000000E+00 0.  1.
          2   -1    0    0  501    0  0.00000000000E+00 -0.00000000000E+00 -0.44579987526E+03  0.44579987526E+03  0.00000000000E+00 0. -1.
         23    2    1    2    0    0 -0.23877825034E+03  0.44397702251E+03 -0.61803333648E+02  0.51597925489E+03  0.91018075513E+02 0.  0.
        254    2    1    2    0    0  0.23877825034E+03 -0.44397702251E+03  0.15371561054E+04  0.18509732673E+04  0.89951236502E+03 0.  0.
         23    2    4    4    0    0 -0.34129820317E+02  0.25573452225E+03  0.36802554457E+03  0.45856607947E+03  0.90967341828E+02 0.  0.
         23    2    4    4    0    0  0.27290807066E+03 -0.69971154476E+03  0.11691305608E+04  0.13924071879E+04  0.88636605219E+02 0.  0.
          3    1    3    3  502    0 -0.73087321608E+02  0.23161269193E+03 -0.26132116064E+02  0.24427255911E+03  0.00000000000E+00 0. -1.
         -3    1    3    3    0  502 -0.16569092873E+03  0.21236433058E+03 -0.35671217584E+02  0.27170669578E+03  0.00000000000E+00 0.  1.
         13    1    5    5    0    0 -0.52434885878E+02  0.24817257396E+03  0.33783492703E+03  0.42245885201E+03  0.00000000000E+00 0.  1.
        -13    1    5    5    0    0  0.18305065561E+02  0.75619482884E+01  0.30190617545E+02  0.36107227460E+02  0.00000000000E+00 0. -1.
          1    1    6    6  503    0  0.47683051811E+02 -0.18739089755E+03  0.35913593789E+03  0.40788189932E+03  0.00000000000E+00 0. -1.
         -1    1    6    6    0  503  0.22522501885E+03 -0.51232064721E+03  0.80999462290E+03  0.98452528856E+03  0.00000000000E+00 0.  1.
<mgrwt>
<rscale>  0 0.18508913E+04</rscale>
<asrwt>0</asrwt>
<pdfrwt beam="1">  1        2 0.68584597E-01 0.18508913E+04</pdfrwt>
<pdfrwt beam="2">  1       -2 0.29556194E+00 0.18508913E+04</pdfrwt>
<totfact> 0.22393755E+00</totfact>
</mgrwt>
</event>
<event>
12    3  0.4688899E-008  0.1545029E+04  0.7818608E-02  0.8855049E-01
         -2   -1    0    0    0  501 -0.00000000000E+00  0.00000000000E+00  0.28187969403E+03  0.28187969403E+03  0.00000000000E+00 0.  1.
          2   -1    0    0  501    0  0.00000000000E+00 -0.00000000000E+00 -0.21171404107E+04  0.21171404107E+04  0.00000000000E+00 0. -1.
         23    2    1    2    0    0  0.26034196907E+03 -0.43687106099E+03 -0.58299620022E+03  0.77886374598E+03  0.90054986239E+02 0.  0.
        254    2    1    2    0    0 -0.26034196907E+03  0.43687106099E+03 -0.12522645164E+04  0.16201563587E+04  0.89336775342E+03 0.  0.
         23    2    4    4    0    0  0.13166111337E+03  0.38586188678E+03 -0.14518927356E+03  0.44100386590E+03  0.84737477780E+02 0.  0.
         23    2    4    4    0    0 -0.39200308243E+03  0.51009174207E+02 -0.11070752429E+04  0.11791524928E+04  0.92285727398E+02 0.  0.
          2    1    3    3  502    0  0.37828211997E+02 -0.81122512990E+02 -0.15822032731E+03  0.18178423394E+03  0.00000000000E+00 0.  1.
         -2    1    3    3    0  502  0.22251375707E+03 -0.35574854800E+03 -0.42477587291E+03  0.59707951204E+03  0.00000000000E+00 0. -1.
         13    1    5    5    0    0 -0.64329402883E+01  0.60632722379E+02 -0.37683630370E+02  0.71678209671E+02  0.00000000000E+00 0. -1.
        -13    1    5    5    0    0  0.13809405366E+03  0.32522916440E+03 -0.10750564319E+03  0.36932565623E+03  0.00000000000E+00 0.  1.
          2    1    6    6  503    0 -0.12999841423E+03 -0.16452968357E+02 -0.28448552556E+03  0.31321287030E+03  0.00000000000E+00 0. -1.
         -2    1    6    6    0  503 -0.26200466821E+03  0.67462142564E+02 -0.82258971732E+03  0.86593962254E+03  0.00000000000E+00 0.  1.
<mgrwt>
<rscale>  0 0.15450293E+04</rscale>
<asrwt>0</asrwt>
<pdfrwt beam="1">  1        2 0.32571390E+00 0.15450293E+04</pdfrwt>
<pdfrwt beam="2">  1       -2 0.43366107E-01 0.15450293E+04</pdfrwt>
<totfact> 0.27922468E+01</totfact>
</mgrwt>
</event>
<event>
12    3  0.4688899E-008  0.1378185E+04  0.7818608E-02  0.8969762E-01
          1   -1    0    0  501    0  0.00000000000E+00  0.00000000000E+00  0.27936842445E+04  0.27936842445E+04  0.00000000000E+00 0. -1.
         -1   -1    0    0    0  501 -0.00000000000E+00 -0.00000000000E+00 -0.16997222095E+03  0.16997222095E+03  0.00000000000E+00 0.  1.
         23    2    1    2    0    0 -0.17608433737E+03 -0.57287281646E+02  0.34886491687E+02  0.21807045409E+03  0.10977308023E+03 0.  0.
        254    2    1    2    0    0  0.17608433737E+03  0.57287281646E+02  0.25888255319E+04  0.27455860114E+04  0.89550956713E+03 0.  0.
         23    2    4    4    0    0 -0.28534142384E+03 -0.12940643483E+03  0.16180616464E+04  0.16509245239E+04  0.96242082663E+02 0.  0.
         23    2    4    4    0    0  0.46142576120E+03  0.18669371647E+03  0.97076388544E+03  0.10946614875E+04  0.90183002612E+02 0.  0.
          3    1    3    3  502    0 -0.31897202919E+02 -0.63055575203E+02  0.61212785243E+01  0.70928888114E+02  0.00000000000E+00 0. -1.
         -3    1    3    3    0  502 -0.14418713445E+03  0.57682935577E+01  0.28765213163E+02  0.14714156598E+03  0.00000000000E+00 0.  1.
         13    1    5    5    0    0 -0.24134334029E+03 -0.11948643374E+03  0.15100276314E+04  0.15338536643E+04  0.00000000000E+00 0.  1.
        -13    1    5    5    0    0 -0.43998083549E+02 -0.99200010889E+01  0.10803401500E+03  0.11707085963E+03  0.00000000000E+00 0. -1.
          1    1    6    6  503    0  0.24288853289E+03  0.76306581738E+02  0.58166441052E+03  0.63494174559E+03  0.00000000000E+00 0. -1.
         -1    1    6    6    0  503  0.21853722832E+03  0.11038713473E+03  0.38909947492E+03  0.45971974186E+03  0.00000000000E+00 0.  1.
<mgrwt>
<rscale>  0 0.13781854E+04</rscale>
<asrwt>0</asrwt>
<pdfrwt beam="1">  1        1 0.42979754E+00 0.13781854E+04</pdfrwt>
<pdfrwt beam="2">  1       -1 0.26149574E-01 0.13781854E+04</pdfrwt>
<totfact> 0.10728422E+01</totfact>
</mgrwt>
</event>
<event>
12    3  0.4688899E-008  0.1298130E+04  0.7818608E-02  0.9031050E-01
         -2   -1    0    0    0  501 -0.00000000000E+00  0.00000000000E+00  0.27414684294E+03  0.27414684294E+03  0.00000000000E+00 0.  1.
          2   -1    0    0  501    0  0.00000000000E+00 -0.00000000000E+00 -0.15367131879E+04  0.15367131879E+04  0.00000000000E+00 0. -1.
         23    2    1    2    0    0 -0.82498744915E+02  0.11986447167E+03 -0.78739133770E+03  0.80443191272E+03  0.77149523893E+02 0.  0.
        254    2    1    2    0    0  0.82498744915E+02 -0.11986447167E+03 -0.47517500725E+03  0.10064281181E+04  0.87517583087E+03 0.  0.
         23    2    4    4    0    0  0.12092448591E+03  0.35973343023E+03 -0.14482306223E+03  0.41571852202E+03  0.88415485519E+02 0.  0.
         23    2    4    4    0    0 -0.38425740999E+02 -0.47959790190E+03 -0.33035194503E+03  0.59070959610E+03  0.91185164731E+02 0.  0.
          4    1    3    3  502    0 -0.83351721709E+02  0.58625112738E+02 -0.43663745832E+03  0.44837114466E+03  0.00000000000E+00 0. -1.
         -4    1    3    3    0  502  0.85297679422E+00  0.61239358934E+02 -0.35075387938E+03  0.35606076806E+03  0.00000000000E+00 0.  1.
         13    1    5    5    0    0  0.23099174194E+01  0.16469193048E+02 -0.30897909453E+02  0.35089184184E+02  0.00000000000E+00 0.  1.
        -13    1    5    5    0    0  0.11861456849E+03  0.34326423718E+03 -0.11392515277E+03  0.38062933783E+03  0.00000000000E+00 0. -1.
          3    1    6    6  503    0 -0.63494123907E+02 -0.42345794506E+03 -0.28688528627E+03  0.51541371973E+03  0.00000000000E+00 0. -1.
         -3    1    6    6    0  503  0.25068382908E+02 -0.56139956838E+02 -0.43466658756E+02  0.75295876374E+02  0.00000000000E+00 0.  1.
<mgrwt>
<rscale>  0 0.12981295E+04</rscale>
<asrwt>0</asrwt>
<pdfrwt beam="1">  1        2 0.23641741E+00 0.12981295E+04</pdfrwt>
<pdfrwt beam="2">  1       -2 0.42176438E-01 0.12981295E+04</pdfrwt>
<totfact> 0.63191142E+01</totfact>
</mgrwt>
</event>
<event>
12    3  0.4688899E-008  0.3388041E+04  0.7818608E-02  0.8140848E-01
          1   -1    0    0  501    0  0.00000000000E+00  0.00000000000E+00  0.31810536315E+04  0.31810536315E+04  0.00000000000E+00 0. -1.
         -1   -1    0    0    0  501 -0.00000000000E+00 -0.00000000000E+00 -0.90212409421E+03  0.90212409421E+03  0.00000000000E+00 0.  1.
         23    2    1    2    0    0  0.12607192735E+04 -0.51971389847E+03  0.12211297052E+03  0.13716383963E+04  0.83454717219E+02 0.  0.
        254    2    1    2    0    0 -0.12607192735E+04  0.51971389847E+03  0.21568165668E+04  0.27115393294E+04  0.91709989069E+03 0.  0.
         23    2    4    4    0    0 -0.13381295603E+04  0.52394777166E+03  0.21550789167E+04  0.25917279303E+04  0.87043320556E+02 0.  0.
         23    2    4    4    0    0  0.77410286776E+02 -0.42338731976E+01  0.17376500261E+01  0.11981139915E+03  0.91331668981E+02 0.  0.
          3    1    3    3  502    0  0.13933187847E+03 -0.49448661899E+02  0.38439641537E+02  0.15276173789E+03  0.00000000000E+00 0. -1.
         -3    1    3    3    0  502  0.11213873950E+04 -0.47026523657E+03  0.83673328983E+02  0.12188766584E+04  0.00000000000E+00 0.  1.
         13    1    5    5    0    0 -0.67402086427E+03  0.30673187666E+03  0.10774865722E+04  0.13074271998E+04  0.00000000000E+00 0. -1.
        -13    1    5    5    0    0 -0.66410869599E+03  0.21721589500E+03  0.10775923446E+04  0.12843007304E+04  0.00000000000E+00 0.  1.
          4    1    6    6  503    0  0.74801591310E+02  0.16715543654E+02 -0.29484328526E+02  0.82121940374E+02  0.00000000000E+00 0. -1.
         -4    1    6    6    0  503  0.26086954655E+01 -0.20949416852E+02  0.31221978552E+02  0.37689458781E+02  0.00000000000E+00 0.  1.
<mgrwt>
<rscale>  0 0.33880408E+04</rscale>
<asrwt>0</asrwt>
<pdfrwt beam="1">  1        1 0.48939286E+00 0.33880408E+04</pdfrwt>
<pdfrwt beam="2">  1       -1 0.13878832E+00 0.33880408E+04</pdfrwt>
<totfact> 0.15493436E-01</totfact>
</mgrwt>
</event>
<event>
12    3  0.4688899E-008  0.1682402E+04  0.7818608E-02  0.8771465E-01
         -1   -1    0    0    0  501 -0.00000000000E+00  0.00000000000E+00  0.12027583846E+04  0.12027583846E+04  0.00000000000E+00 0.  1.
          1   -1    0    0  501    0  0.00000000000E+00 -0.00000000000E+00 -0.58833004360E+03  0.58833004360E+03  0.00000000000E+00 0. -1.
         23    2    1    2    0    0 -0.25621515869E+03  0.23436749088E+03 -0.29316086672E+03  0.46353299167E+03  0.91352133378E+02 0.  0.
        254    2    1    2    0    0  0.25621515869E+03 -0.23436749088E+03  0.90758920767E+03  0.13275554365E+04  0.90449485280E+03 0.  0.
         23    2    4    4    0    0  0.34558793982E+02  0.28547957947E+03  0.61464708352E+03  0.68475973183E+03  0.91716697068E+02 0.  0.
         23    2    4    4    0    0  0.22165636471E+03 -0.51984707034E+03  0.29294212415E+03  0.64279570465E+03  0.89435503342E+02 0.  0.
          3    1    3    3  502    0 -0.19788284269E+03  0.22098914434E+03 -0.26336166491E+03  0.39667768766E+03  0.00000000000E+00 0. -1.
         -3    1    3    3    0  502 -0.58332316000E+02  0.13378346540E+02 -0.29799201811E+02  0.66855304013E+02  0.00000000000E+00 0.  1.
         13    1    5    5    0    0 -0.13423485522E+02  0.20221439894E+03  0.36910228501E+03  0.42107879299E+03  0.00000000000E+00 0. -1.
        -13    1    5    5    0    0  0.47982279504E+02  0.83265180529E+02  0.24554479851E+03  0.26368093884E+03  0.00000000000E+00 0.  1.
          1    1    6    6  503    0  0.20667698700E+03 -0.49880284318E+03  0.29765658687E+03  0.61653799317E+03  0.00000000000E+00 0. -1.
         -1    1    6    6    0  503  0.14979377713E+02 -0.21044227169E+02 -0.47144627166E+01  0.26257711486E+02  0.00000000000E+00 0.  1.
<mgrwt>
<rscale>  0 0.16824017E+04</rscale>
<asrwt>0</asrwt>
<pdfrwt beam="1">  1        1 0.90512315E-01 0.16824017E+04</pdfrwt>
<pdfrwt beam="2">  1       -1 0.18503975E+00 0.16824017E+04</pdfrwt>
<totfact> 0.64308982E+00</totfact>
</mgrwt>
</event>
<event>
12    3  0.4688899E-008  0.1836558E+04  0.7818608E-02  0.8687096E-01
         -1   -1    0    0    0  501 -0.00000000000E+00  0.00000000000E+00  0.32302755321E+03  0.32302755321E+03  0.00000000000E+00 0.  1.
          1   -1    0    0  501    0  0.00000000000E+00 -0.00000000000E+00 -0.26104170761E+04  0.26104170761E+04  0.00000000000E+00 0. -1.
         23    2    1    2    0    0 -0.33840526314E+03  0.11739543592E+03 -0.18507844824E+04  0.18873043235E+04  0.90634423186E+02 0.  0.
        254    2    1    2    0    0  0.33840526314E+03 -0.11739543592E+03 -0.43660504055E+03  0.10461403059E+04  0.88061669736E+03 0.  0.
         23    2    4    4    0    0 -0.11281442046E+03  0.28310667998E+03 -0.45029419854E+02  0.32152202933E+03  0.92044994330E+02 0.  0.
         23    2    4    4    0    0  0.45121968360E+03 -0.40050211590E+03 -0.39157562069E+03  0.72461827655E+03  0.87971769812E+02 0.  0.
          2    1    3    3  502    0 -0.22312090336E+03  0.12141419689E+03 -0.12514596763E+04  0.12769791173E+04  0.00000000000E+00 0. -1.
         -2    1    3    3    0  502 -0.11528435978E+03 -0.40187609700E+01 -0.59932480610E+03  0.61032520615E+03  0.00000000000E+00 0.  1.
         13    1    5    5    0    0 -0.17174582291E+02  0.14402941536E+03 -0.47764113958E+02  0.15271165427E+03  0.00000000000E+00 0. -1.
        -13    1    5    5    0    0 -0.95639838168E+02  0.13907726461E+03  0.27346941037E+01  0.16881037506E+03  0.00000000000E+00 0.  1.
          2    1    6    6  503    0  0.44300773359E+03 -0.39017317253E+03 -0.39582890727E+03  0.71075416314E+03  0.00000000000E+00 0. -1.
         -2    1    6    6    0  503  0.82119500073E+01 -0.10328943375E+02  0.42532865774E+01  0.13864113418E+02  0.00000000000E+00 0.  1.
<mgrwt>
<rscale>  0 0.18365583E+04</rscale>
<asrwt>0</asrwt>
<pdfrwt beam="1">  1        1 0.40160261E+00 0.18365583E+04</pdfrwt>
<pdfrwt beam="2">  1       -1 0.49696549E-01 0.18365583E+04</pdfrwt>
<totfact> 0.43395614E+00</totfact>
</mgrwt>
</event>
<event>
12    3  0.4688899E-008  0.1742284E+04  0.7818608E-02  0.8737609E-01
          2   -1    0    0  501    0  0.00000000000E+00  0.00000000000E+00  0.19674072562E+04  0.19674072562E+04  0.00000000000E+00 0. -1.
         -2   -1    0    0    0  501 -0.00000000000E+00 -0.00000000000E+00 -0.38573014028E+03  0.38573014028E+03  0.00000000000E+00 0.  1.
         23    2    1    2    0    0 -0.34546628062E+02  0.44152298204E+03  0.12341369531E+04  0.13148983537E+04  0.98628840893E+02 0.  0.
        254    2    1    2    0    0  0.34546628062E+02 -0.44152298204E+03  0.34754016278E+03  0.10382390428E+04  0.87236467836E+03 0.  0.
         23    2    4    4    0    0  0.15736926074E+02  0.80800639849E+02 -0.22557306394E+03  0.25738922527E+03  0.92680158980E+02 0.  0.
         23    2    4    4    0    0  0.18809701988E+02 -0.52232362189E+03  0.57311322671E+03  0.78084981752E+03  0.89954966603E+02 0.  0.
          1    1    3    3  502    0 -0.22038132099E+02  0.43977621517E+03  0.12104954217E+04  0.12880947033E+04  0.00000000000E+00 0. -1.
         -1    1    3    3    0  502 -0.12508495963E+02  0.17467668739E+01  0.23641531388E+02  0.26803650351E+02  0.00000000000E+00 0.  1.
         13    1    5    5    0    0  0.32076683942E+02  0.76183011485E+02 -0.22575102880E+03  0.24040859364E+03  0.00000000000E+00 0.  1.
        -13    1    5    5    0    0 -0.16339757868E+02  0.46176283645E+01  0.17796486768E+00  0.16980631625E+02  0.00000000000E+00 0. -1.
          2    1    6    6  503    0  0.45662538660E+02 -0.17908021148E+03  0.22608033953E+03  0.29200532445E+03  0.00000000000E+00 0. -1.
         -2    1    6    6    0  503 -0.26852836672E+02 -0.34324341041E+03  0.34703288718E+03  0.48884449308E+03  0.00000000000E+00 0.  1.
<mgrwt>
<rscale>  0 0.17422839E+04</rscale>
<asrwt>0</asrwt>
<pdfrwt beam="1">  1        2 0.30267803E+00 0.17422839E+04</pdfrwt>
<pdfrwt beam="2">  1       -2 0.59343100E-01 0.17422839E+04</pdfrwt>
<totfact> 0.17514039E+01</totfact>
</mgrwt>
</event>
<event>
12    3  0.4688899E-008  0.2545817E+04  0.7818608E-02  0.8386842E-01
          1   -1    0    0  501    0  0.00000000000E+00  0.00000000000E+00  0.20476163221E+04  0.20476163221E+04  0.00000000000E+00 0. -1.
         -1   -1    0    0    0  501 -0.00000000000E+00 -0.00000000000E+00 -0.79130863887E+03  0.79130863887E+03  0.00000000000E+00 0.  1.
         23    2    1    2    0    0  0.34459024583E+03  0.98287297118E+03  0.41683304010E+03  0.11254504105E+04  0.90039592603E+02 0.  0.
        254    2    1    2    0    0 -0.34459024583E+03 -0.98287297118E+03  0.83947464314E+03  0.17134745505E+04  0.10707453682E+04 0.  0.
         23    2    4    4    0    0 -0.18882234277E+03  0.16785302695E+02  0.64450406981E+03  0.67896567905E+03  0.98352802752E+02 0.  0.
         23    2    4    4    0    0 -0.15576790306E+03 -0.99965827388E+03  0.19497057333E+03  0.10345088714E+04  0.92815819714E+02 0.  0.
          4    1    3    3  502    0  0.22212040540E+03  0.60428066155E+03  0.30320497307E+03  0.71163603626E+03  0.00000000000E+00 0. -1.
         -4    1    3    3    0  502  0.12246984043E+03  0.37859230963E+03  0.11362806702E+03  0.41381437426E+03  0.00000000000E+00 0.  1.
         13    1    5    5    0    0 -0.43106634949E+02 -0.22121696054E+02  0.70964593259E+02  0.85927439793E+02  0.00000000000E+00 0.  1.
        -13    1    5    5    0    0 -0.14571570782E+03  0.38906998749E+02  0.57353947655E+03  0.59303823926E+03  0.00000000000E+00 0. -1.
          3    1    6    6  503    0 -0.13737054816E+03 -0.58766751534E+03  0.12130352579E+03  0.61557966296E+03  0.00000000000E+00 0. -1.
         -3    1    6    6    0  503 -0.18397354898E+02 -0.41199075854E+03  0.73667047547E+02  0.41892920844E+03  0.00000000000E+00 0.  1.
<mgrwt>
<rscale>  0 0.25458173E+04</rscale>
<asrwt>0</asrwt>
<pdfrwt beam="1">  1        1 0.31501789E+00 0.25458173E+04</pdfrwt>
<pdfrwt beam="2">  1       -1 0.12173979E+00 0.25458173E+04</pdfrwt>
<totfact> 0.14623422E+00</totfact>
</mgrwt>
</event>
<event>
12    3  0.4688899E-008  0.1481945E+04  0.7818608E-02  0.8896549E-01
         -2   -1    0    0    0  501 -0.00000000000E+00  0.00000000000E+00  0.11258248666E+04  0.11258248666E+04  0.00000000000E+00 0.  1.
          2   -1    0    0  501    0  0.00000000000E+00 -0.00000000000E+00 -0.48767796841E+03  0.48767796841E+03  0.00000000000E+00 0. -1.
         23    2    1    2    0    0 -0.49212188718E+02  0.30516664470E+03  0.56909313753E+03  0.65395127448E+03  0.90756540557E+02 0.  0.
        254    2    1    2    0    0  0.49212188718E+02 -0.30516664470E+03  0.69053760683E+02  0.95955156055E+03  0.90577163508E+03 0.  0.
         23    2    4    4    0    0 -0.35951989050E+03 -0.27474140133E+03 -0.15269703973E+03  0.48487738979E+03  0.83978020440E+02 0.  0.
         23    2    4    4    0    0  0.40873207922E+03 -0.30425243371E+02  0.22175080041E+03  0.47467417075E+03  0.90302507614E+02 0.  0.
          1    1    3    3  502    0  0.12174111504E+02  0.19134437657E+03  0.36603350205E+03  0.41320866890E+03  0.00000000000E+00 0. -1.
         -1    1    3    3    0  502 -0.61386300222E+02  0.11382226813E+03  0.20305963548E+03  0.24074260558E+03  0.00000000000E+00 0.  1.
         13    1    5    5    0    0 -0.32818866312E+03 -0.25751394265E+03 -0.11456487976E+03  0.43260413884E+03  0.00000000000E+00 0. -1.
        -13    1    5    5    0    0 -0.31331227378E+02 -0.17227458680E+02 -0.38132159970E+02  0.52273250956E+02  0.00000000000E+00 0.  1.
          2    1    6    6  503    0  0.37421877198E+03 -0.45564340277E+02  0.17789109014E+03  0.41684654053E+03  0.00000000000E+00 0. -1.
         -2    1    6    6    0  503  0.34513307245E+02  0.15139096906E+02  0.43859710268E+02  0.57827630220E+02  0.00000000000E+00 0.  1.
<mgrwt>
<rscale>  0 0.14819446E+04</rscale>
<asrwt>0</asrwt>
<pdfrwt beam="1">  1        2 0.75027380E-01 0.14819446E+04</pdfrwt>
<pdfrwt beam="2">  1       -2 0.17320383E+00 0.14819446E+04</pdfrwt>
<totfact> 0.12392865E+01</totfact>
</mgrwt>
</event>
<event>
12    3  0.4688899E-008  0.2196937E+04  0.7818608E-02  0.8519704E-01
         -1   -1    0    0    0  501 -0.00000000000E+00  0.00000000000E+00  0.16363072016E+04  0.16363072016E+04  0.00000000000E+00 0.  1.
          1   -1    0    0  501    0  0.00000000000E+00 -0.00000000000E+00 -0.73741215917E+03  0.73741215917E+03  0.00000000000E+00 0. -1.
         23    2    1    2    0    0  0.66875681659E+03  0.44321430513E+03 -0.91882544667E+02  0.81257534335E+03  0.90342053338E+02 0.  0.
        254    2    1    2    0    0 -0.66875681659E+03 -0.44321430513E+03  0.99077758708E+03  0.15611440174E+04  0.90103041901E+03 0.  0.
         23    2    4    4    0    0 -0.48399181789E+03 -0.70333228827E+03  0.82443275311E+03  0.11902507363E+04  0.89905857971E+02 0.  0.
         23    2    4    4    0    0 -0.18476499870E+03  0.26011798315E+03  0.16634483397E+03  0.37089328112E+03  0.89954167718E+02 0.  0.
          2    1    3    3  502    0  0.60129643219E+03  0.36610617832E+03 -0.93124973951E+02  0.71011505683E+03  0.00000000000E+00 0. -1.
         -2    1    3    3    0  502  0.67460384407E+02  0.77108126800E+02  0.12424292843E+01  0.10246028652E+03  0.00000000000E+00 0.  1.
         13    1    5    5    0    0 -0.71197141633E+02 -0.15418820086E+03  0.13479292361E+03  0.21682289205E+03  0.00000000000E+00 0.  1.
        -13    1    5    5    0    0 -0.41279467626E+03 -0.54914408741E+03  0.68963982950E+03  0.97342784423E+03  0.00000000000E+00 0. -1.
          3    1    6    6  503    0 -0.52223690271E+02  0.50988315073E+02  0.68328470856E+00  0.72990334823E+02  0.00000000000E+00 0. -1.
         -3    1    6    6    0  503 -0.13254130843E+03  0.20912966807E+03  0.16566154926E+03  0.29790294630E+03  0.00000000000E+00 0.  1.
<mgrwt>
<rscale>  0 0.21969368E+04</rscale>
<asrwt>0</asrwt>
<pdfrwt beam="1">  1        1 0.11344803E+00 0.21969368E+04</pdfrwt>
<pdfrwt beam="2">  1       -1 0.25173957E+00 0.21969368E+04</pdfrwt>
<totfact> 0.15575359E+00</totfact>
</mgrwt>
</event>
<event>
12    3  0.4688899E-008  0.2564755E+04  0.7818608E-02  0.8380273E-01
          1   -1    0    0  501    0  0.00000000000E+00  0.00000000000E+00  0.23777285406E+04  0.23777285406E+04  0.00000000000E+00 0. -1.
         -1   -1    0    0    0  501 -0.00000000000E+00 -0.00000000000E+00 -0.69162314337E+03  0.69162314337E+03  0.00000000000E+00 0.  1.
         23    2    1    2    0    0 -0.46942979193E+03 -0.10479715192E+04  0.56492432543E+03  0.12834561735E+04  0.97527540677E+02 0.  0.
        254    2    1    2    0    0  0.46942979193E+03  0.10479715192E+04  0.11211810718E+04  0.17858955105E+04  0.78343292231E+03 0.  0.
         23    2    4    4    0    0  0.57954353969E+03  0.37130225551E+03  0.62070470274E+03  0.93244382049E+03  0.10218155912E+03 0.  0.
         23    2    4    4    0    0 -0.11011374776E+03  0.67666926373E+03  0.50047636909E+03  0.85345168997E+03  0.88864285121E+02 0.  0.
          3    1    3    3  502    0 -0.14350568571E+03 -0.23451276981E+03  0.15999722211E+03  0.31810254968E+03  0.00000000000E+00 0. -1.
         -3    1    3    3    0  502 -0.32592410623E+03 -0.81345874944E+03  0.40492710332E+03  0.96535362384E+03  0.00000000000E+00 0.  1.
         13    1    5    5    0    0  0.45245341398E+03  0.32670193116E+03  0.53304214028E+03  0.77173970156E+03  0.00000000000E+00 0.  1.
        -13    1    5    5    0    0  0.12709012571E+03  0.44600324351E+02  0.87662562461E+02  0.16070411894E+03  0.00000000000E+00 0. -1.
          1    1    6    6  503    0 -0.85662663252E+00  0.23928206353E+03  0.19767479353E+03  0.31037390956E+03  0.00000000000E+00 0. -1.
         -1    1    6    6    0  503 -0.10925712113E+03  0.43738720020E+03  0.30280157556E+03  0.54307778041E+03  0.00000000000E+00 0.  1.
<mgrwt>
<rscale>  0 0.25647550E+04</rscale>
<asrwt>0</asrwt>
<pdfrwt beam="1">  1        1 0.36580439E+00 0.25647550E+04</pdfrwt>
<pdfrwt beam="2">  1       -1 0.10640356E+00 0.25647550E+04</pdfrwt>
<totfact> 0.11996144E+00</totfact>
</mgrwt>
</event>
<event>
12    3  0.4688899E-008  0.2213941E+04  0.7818608E-02  0.8512648E-01
          2   -1    0    0  501    0  0.00000000000E+00  0.00000000000E+00  0.11034760701E+04  0.11034760701E+04  0.00000000000E+00 0. -1.
         -2   -1    0    0    0  501 -0.00000000000E+00 -0.00000000000E+00 -0.11104761832E+04  0.11104761832E+04  0.00000000000E+00 0.  1.
         23    2    1    2    0    0 -0.88125807801E+03 -0.19264521459E+03  0.19764194479E+03  0.92725527318E+03  0.83737832147E+02 0.  0.
        254    2    1    2    0    0  0.88125807801E+03  0.19264521459E+03 -0.20464205795E+03  0.12866969801E+04  0.89441755798E+03 0.  0.
         23    2    4    4    0    0  0.35508537698E+03 -0.22467916869E+03  0.22459456721E+03  0.48501066720E+03  0.90698808601E+02 0.  0.
         23    2    4    4    0    0  0.52617270102E+03  0.41732438328E+03 -0.42923662516E+03  0.80168631293E+03  0.86252604446E+02 0.  0.
          2    1    3    3  502    0 -0.61575358559E+03 -0.10468552459E+03  0.11041260067E+03  0.63427319005E+03  0.00000000000E+00 0. -1.
         -2    1    3    3    0  502 -0.26550449242E+03 -0.87959689996E+02  0.87229344122E+02  0.29298208313E+03  0.00000000000E+00 0.  1.
         13    1    5    5    0    0  0.13067411183E+03 -0.79110832645E+02  0.13218812543E+03  0.20200977167E+03  0.00000000000E+00 0.  1.
        -13    1    5    5    0    0  0.22441126515E+03 -0.14556833605E+03  0.92406441777E+02  0.28300089552E+03  0.00000000000E+00 0. -1.
          3    1    6    6  503    0  0.42461202201E+02  0.24474840214E+02 -0.83397836178E+01  0.49714419303E+02  0.00000000000E+00 0. -1.
         -3    1    6    6    0  503  0.48371149882E+03  0.39284954307E+03 -0.42089684154E+03  0.75197189363E+03  0.00000000000E+00 0.  1.
<mgrwt>
<rscale>  0 0.22139412E+04</rscale>
<asrwt>0</asrwt>
<pdfrwt beam="1">  1        2 0.16976555E+00 0.22139412E+04</pdfrwt>
<pdfrwt beam="2">  1       -2 0.17084249E+00 0.22139412E+04</pdfrwt>
<totfact> 0.41604207E+00</totfact>
</mgrwt>
</event>
<event>
12    3  0.4688899E-008  0.1755818E+04  0.7818608E-02  0.8730154E-01
          2   -1    0    0  501    0  0.00000000000E+00  0.00000000000E+00  0.36253816834E+04  0.36253816834E+04  0.00000000000E+00 0. -1.
         -2   -1    0    0    0  501 -0.00000000000E+00 -0.00000000000E+00 -0.21259118743E+03  0.21259118743E+03  0.00000000000E+00 0.  1.
         23    2    1    2    0    0  0.25815000652E+03 -0.26521522860E+03  0.11258408375E+03  0.39769023034E+03  0.92205206225E+02 0.  0.
        254    2    1    2    0    0 -0.25815000652E+03  0.26521522860E+03  0.33002064122E+04  0.34402826404E+04  0.89844406603E+03 0.  0.
         23    2    4    4    0    0 -0.13910835771E+01 -0.31490890923E+03  0.12460035057E+04  0.12884290924E+04  0.91406968479E+02 0.  0.
         23    2    4    4    0    0 -0.25675892294E+03  0.58012413783E+03  0.20542029065E+04  0.21518535480E+04  0.90856761474E+02 0.  0.
          3    1    3    3  502    0  0.10569707760E+03 -0.82081177366E+02  0.83249055192E+02  0.15760582819E+03  0.00000000000E+00 0. -1.
         -3    1    3    3    0  502  0.15245292892E+03 -0.18313405123E+03  0.29335028556E+02  0.24008440215E+03  0.00000000000E+00 0.  1.
         13    1    5    5    0    0  0.44117356440E+02 -0.16741894073E+03  0.62593381132E+03  0.64943712475E+03  0.00000000000E+00 0.  1.
        -13    1    5    5    0    0 -0.45508440017E+02 -0.14748996850E+03  0.62006969435E+03  0.63899196769E+03  0.00000000000E+00 0. -1.
          3    1    6    6  503    0 -0.23738720307E+02  0.11847615074E+02  0.94811488239E+02  0.98453598852E+02  0.00000000000E+00 0. -1.
         -3    1    6    6    0  503 -0.23302020263E+03  0.56827652276E+03  0.19593914183E+04  0.20533999491E+04  0.00000000000E+00 0.  1.
<mgrwt>
<rscale>  0 0.17558180E+04</rscale>
<asrwt>0</asrwt>
<pdfrwt beam="1">  1        2 0.55775098E+00 0.17558180E+04</pdfrwt>
<pdfrwt beam="2">  1       -2 0.32706339E-01 0.17558180E+04</pdfrwt>
<totfact> 0.55233916E+00</totfact>
</mgrwt>
</event>
<event>
12    3  0.4688899E-008  0.1621038E+04  0.7818608E-02  0.8807727E-01
          1   -1    0    0  501    0  0.00000000000E+00  0.00000000000E+00  0.23711282437E+04  0.23711282437E+04  0.00000000000E+00 0. -1.
         -1   -1    0    0    0  501 -0.00000000000E+00 -0.00000000000E+00 -0.27705834823E+03  0.27705834823E+03  0.00000000000E+00 0.  1.
         23    2    1    2    0    0  0.47662066177E+03 -0.20777282036E+03  0.38079184363E+03  0.65081106210E+03  0.90641106961E+02 0.  0.
        254    2    1    2    0    0 -0.47662066177E+03  0.20777282036E+03  0.17132780518E+04  0.19973755298E+04  0.88535333292E+03 0.  0.
         23    2    4    4    0    0 -0.61611695695E+03 -0.10470509474E+03  0.13479642272E+04  0.14885480993E+04  0.90579384240E+02 0.  0.
         23    2    4    4    0    0  0.13949629518E+03  0.31247791511E+03  0.36531382464E+03  0.50882743044E+03  0.91375596870E+02 0.  0.
          1    1    3    3  502    0  0.25809998646E+03 -0.12496715631E+03  0.26306731418E+03  0.38914882109E+03  0.00000000000E+00 0. -1.
         -1    1    3    3    0  502  0.21852067530E+03 -0.82805664051E+02  0.11772452945E+03  0.26166224101E+03  0.00000000000E+00 0.  1.
         13    1    5    5    0    0 -0.28993023458E+03 -0.35067352896E+01  0.61601265134E+03  0.68084023436E+03  0.00000000000E+00 0.  1.
        -13    1    5    5    0    0 -0.32618672237E+03 -0.10119835945E+03  0.73195157581E+03  0.80770786497E+03  0.00000000000E+00 0. -1.
          3    1    6    6  503    0  0.10305610935E+02  0.12122550894E+03  0.10275714528E+03  0.15925093576E+03  0.00000000000E+00 0. -1.
         -3    1    6    6    0  503  0.12919068425E+03  0.19125240616E+03  0.26255667936E+03  0.34957649468E+03  0.00000000000E+00 0.  1.
<mgrwt>
<rscale>  0 0.16210378E+04</rscale>
<asrwt>0</asrwt>
<pdfrwt beam="1">  1        1 0.36478895E+00 0.16210378E+04</pdfrwt>
<pdfrwt beam="2">  1       -1 0.42624363E-01 0.16210378E+04</pdfrwt>
<totfact> 0.86430378E+00</totfact>
</mgrwt>
</event>
<event>
12    3  0.4688899E-008  0.1305937E+04  0.7818608E-02  0.9024871E-01
          3   -1    0    0  501    0  0.00000000000E+00  0.00000000000E+00  0.65241570271E+03  0.65241570271E+03  0.00000000000E+00 0. -1.
         -3   -1    0    0    0  501 -0.00000000000E+00 -0.00000000000E+00 -0.65352126923E+03  0.65352126923E+03  0.00000000000E+00 0.  1.
         23    2    1    2    0    0 -0.24829428704E+03  0.22299061114E+03  0.16842318695E+02  0.34652642858E+03  0.91771653427E+02 0.  0.
        254    2    1    2    0    0  0.24829428704E+03 -0.22299061114E+03 -0.17947885216E+02  0.95941054337E+03  0.89931729579E+03 0.  0.
         23    2    4    4    0    0  0.55609513191E+03 -0.11008035279E+03  0.12603839047E+03  0.58917532318E+03  0.99410290009E+02 0.  0.
         23    2    4    4    0    0 -0.30780084487E+03 -0.11291025834E+03 -0.14398627569E+03  0.37023522019E+03  0.94084983616E+02 0.  0.
          1    1    3    3  502    0 -0.20140936509E+03  0.19801311766E+03  0.45626695835E+02  0.28610613849E+03  0.00000000000E+00 0. -1.
         -1    1    3    3    0  502 -0.46884921955E+02  0.24977493481E+02 -0.28784377140E+02  0.60420290091E+02  0.00000000000E+00 0.  1.
         13    1    5    5    0    0  0.33848911144E+03 -0.11354800653E+03  0.62496611042E+02  0.36245531413E+03  0.00000000000E+00 0. -1.
        -13    1    5    5    0    0  0.21760602047E+03  0.34676537369E+01  0.63541779433E+02  0.22672000904E+03  0.00000000000E+00 0.  1.
          3    1    6    6  503    0 -0.26963487260E+03 -0.65431127001E+02 -0.99334633281E+02  0.29470589793E+03  0.00000000000E+00 0. -1.
         -3    1    6    6    0  503 -0.38165972270E+02 -0.47479131343E+02 -0.44651642409E+02  0.75529322267E+02  0.00000000000E+00 0.  1.
<mgrwt>
<rscale>  0 0.13059365E+04</rscale>
<asrwt>0</asrwt>
<pdfrwt beam="1">  1        3 0.10037165E+00 0.13059365E+04</pdfrwt>
<pdfrwt beam="2">  1       -3 0.10054173E+00 0.13059365E+04</pdfrwt>
<totfact> 0.19219040E+00</totfact>
</mgrwt>
</event>
<event>
12    3  0.4688899E-008  0.1651890E+04  0.7818608E-02  0.8789289E-01
         -2   -1    0    0    0  501 -0.00000000000E+00  0.00000000000E+00  0.31095467187E+03  0.31095467187E+03  0.00000000000E+00 0.  1.
          2   -1    0    0  501    0  0.00000000000E+00 -0.00000000000E+00 -0.21938419823E+04  0.21938419823E+04  0.00000000000E+00 0. -1.
         23    2    1    2    0    0 -0.13267187106E+03  0.42061415581E+03 -0.12201840442E+04  0.13004226085E+04  0.87930458238E+02 0.  0.
        254    2    1    2    0    0  0.13267187106E+03 -0.42061415581E+03 -0.66270326623E+03  0.12043740457E+04  0.90378267820E+03 0.  0.
         23    2    4    4    0    0 -0.32450614519E+03 -0.71976771115E+02 -0.48559414736E+03  0.59569981806E+03  0.92583494478E+02 0.  0.
         23    2    4    4    0    0  0.45717801625E+03 -0.34863738470E+03 -0.17710911887E+03  0.60867422762E+03  0.92503571967E+02 0.  0.
          2    1    3    3  502    0 -0.13519345017E+03  0.30814782696E+03 -0.94553693653E+03  0.10036296381E+04  0.00000000000E+00 0. -1.
         -2    1    3    3    0  502  0.25215791088E+01  0.11246632885E+03 -0.27464710771E+03  0.29679297037E+03  0.00000000000E+00 0.  1.
         13    1    5    5    0    0 -0.10944728120E+02  0.13569036363E+02 -0.44493912915E+02  0.47787175141E+02  0.00000000000E+00 0.  1.
        -13    1    5    5    0    0 -0.31356141707E+03 -0.85545807479E+02 -0.44110023444E+03  0.54791264292E+03  0.00000000000E+00 0. -1.
          4    1    6    6  503    0  0.33032889810E+03 -0.20894873840E+03 -0.14701367949E+03  0.41760002174E+03  0.00000000000E+00 0. -1.
         -4    1    6    6    0  503  0.12684911815E+03 -0.13968864630E+03 -0.30095439377E+02  0.19107420588E+03  0.00000000000E+00 0.  1.
<mgrwt>
<rscale>  0 0.16518903E+04</rscale>
<asrwt>0</asrwt>
<pdfrwt beam="1">  1        2 0.33751416E+00 0.16518903E+04</pdfrwt>
<pdfrwt beam="2">  1       -2 0.47839179E-01 0.16518903E+04</pdfrwt>
<totfact> 0.20595681E+01</totfact>
</mgrwt>
</event>
<event>
12    3  0.4688899E-008  0.1881700E+04  0.7818608E-02  0.8664020E-01
         -2   -1    0    0    0  501 -0.00000000000E+00  0.00000000000E+00  0.58659613304E+03  0.58659613304E+03  0.00000000000E+00 0.  1.
          2   -1    0    0  501    0  0.00000000000E+00 -0.00000000000E+00 -0.15090421657E+04  0.15090421657E+04  0.00000000000E+00 0. -1.
         23    2    1    2    0    0 -0.37623650670E+03  0.19526272930E+02 -0.10633398562E+04  0.11318318557E+04  0.91741569234E+02 0.  0.
        254    2    1    2    0    0  0.37623650670E+03 -0.19526272930E+02  0.14089382356E+03  0.96380644300E+03  0.87586334879E+03 0.  0.
         23    2    4    4    0    0  0.51898715317E+03 -0.28700261412E+03  0.21902092920E+03  0.63860439121E+03  0.90151180680E+02 0.  0.
         23    2    4    4    0    0 -0.14275064648E+03  0.26747634119E+03 -0.78127105646E+02  0.32520205179E+03  0.87927183971E+02 0.  0.
          2    1    3    3  502    0 -0.31336667399E+03  0.45422053585E+02 -0.92480971559E+03  0.97751462668E+03  0.00000000000E+00 0. -1.
         -2    1    3    3    0  502 -0.62869832709E+02 -0.25895780654E+02 -0.13853014058E+03  0.15431722901E+03  0.00000000000E+00 0.  1.
         13    1    5    5    0    0  0.23141247223E+02  0.14906991379E+01  0.22232190471E+02  0.32124909340E+02  0.00000000000E+00 0. -1.
        -13    1    5    5    0    0  0.49584590595E+03 -0.28849331326E+03  0.19678873873E+03  0.60647948187E+03  0.00000000000E+00 0.  1.
          2    1    6    6  503    0 -0.35087000287E+01  0.44919932127E+02  0.13678146687E+02  0.47087184827E+02  0.00000000000E+00 0. -1.
         -2    1    6    6    0  503 -0.13924194645E+03  0.22255640907E+03 -0.91805252334E+02  0.27811486696E+03  0.00000000000E+00 0.  1.
<mgrwt>
<rscale>  0 0.18816995E+04</rscale>
<asrwt>0</asrwt>
<pdfrwt beam="1">  1        2 0.23216033E+00 0.18816995E+04</pdfrwt>
<pdfrwt beam="2">  1       -2 0.90245559E-01 0.18816995E+04</pdfrwt>
<totfact> 0.12357790E+01</totfact>
</mgrwt>
</event>
<event>
12    3  0.4688899E-008  0.1415471E+04  0.7818608E-02  0.8942695E-01
          1   -1    0    0  501    0  0.00000000000E+00  0.00000000000E+00  0.11495226786E+04  0.11495226786E+04  0.00000000000E+00 0. -1.
         -1   -1    0    0    0  501 -0.00000000000E+00 -0.00000000000E+00 -0.43573707937E+03  0.43573707937E+03  0.00000000000E+00 0.  1.
         23    2    1    2    0    0 -0.34756052845E+02 -0.23294700850E+03 -0.18359279340E+03  0.31259494581E+03  0.92395856926E+02 0.  0.
        254    2    1    2    0    0  0.34756052845E+02  0.23294700850E+03  0.89737839262E+03  0.12726648121E+04  0.87115753600E+03 0.  0.
         23    2    4    4    0    0  0.26201648809E+03 -0.24157523066E+03  0.36381612557E+03  0.51782297062E+03  0.93633453304E+02 0.  0.
         23    2    4    4    0    0 -0.22726043525E+03  0.47452223916E+03  0.53356226704E+03  0.75484184151E+03  0.90988197020E+02 0.  0.
          3    1    3    3  502    0 -0.18329816633E+02 -0.57010799881E+02 -0.30380151746E+01  0.59962013117E+02  0.00000000000E+00 0. -1.
         -3    1    3    3    0  502 -0.16426236212E+02 -0.17593620862E+03 -0.18055477823E+03  0.25263293269E+03  0.00000000000E+00 0.  1.
         13    1    5    5    0    0  0.95937338857E+02 -0.15059943903E+03  0.16237764376E+03  0.24135174169E+03  0.00000000000E+00 0. -1.
        -13    1    5    5    0    0  0.16607914924E+03 -0.90975791629E+02  0.20143848181E+03  0.27647122894E+03  0.00000000000E+00 0.  1.
          1    1    6    6  503    0 -0.22294297950E+03  0.39938873242E+03  0.47554997687E+03  0.65982021202E+03  0.00000000000E+00 0. -1.
         -1    1    6    6    0  503 -0.43174557448E+01  0.75133506747E+02  0.58012290177E+02  0.95021629495E+02  0.00000000000E+00 0.  1.
<mgrwt>
<rscale>  0 0.14154712E+04</rscale>
<asrwt>0</asrwt>
<pdfrwt beam="1">  1        1 0.17684964E+00 0.14154712E+04</pdfrwt>
<pdfrwt beam="2">  1       -1 0.67036474E-01 0.14154712E+04</pdfrwt>
<totfact> 0.25558813E+01</totfact>
</mgrwt>
</event>
<event>
12    3  0.4688899E-008  0.2312553E+04  0.7818608E-02  0.8472988E-01
         -3   -1    0    0    0  501 -0.00000000000E+00  0.00000000000E+00  0.16689241711E+04  0.16689241711E+04  0.00000000000E+00 0.  1.
          3   -1    0    0  501    0  0.00000000000E+00 -0.00000000000E+00 -0.80109980282E+03  0.80109980282E+03  0.00000000000E+00 0. -1.
         23    2    1    2    0    0 -0.42690928032E+03  0.53180308024E+02 -0.56907305157E+03  0.71955536539E+03  0.94000569481E+02 0.  0.
        254    2    1    2    0    0  0.42690928032E+03 -0.53180308024E+02  0.14368974198E+04  0.17504686085E+04  0.90243364047E+03 0.  0.
         23    2    4    4    0    0  0.60610801478E+03  0.20611648973E+03  0.11259027313E+04  0.12984742076E+04  0.92343784116E+02 0.  0.
         23    2    4    4    0    0 -0.17919873447E+03 -0.25929679775E+03  0.31099468854E+03  0.45199440094E+03  0.90742638374E+02 0.  0.
          3    1    3    3  502    0 -0.40761786771E+03  0.61415912705E+02 -0.56288743445E+03  0.69768653726E+03  0.00000000000E+00 0. -1.
         -3    1    3    3    0  502 -0.19291412609E+02 -0.82356046804E+01 -0.61856171179E+01  0.21868828136E+02  0.00000000000E+00 0.  1.
         13    1    5    5    0    0  0.41101884185E+03  0.12264387856E+03  0.83093530725E+03  0.93511041816E+03  0.00000000000E+00 0. -1.
        -13    1    5    5    0    0  0.19508917293E+03  0.83472611167E+02  0.29496742403E+03  0.36336378940E+03  0.00000000000E+00 0.  1.
          3    1    6    6  503    0 -0.12427943727E+03 -0.10024440481E+03  0.15572009777E+03  0.22303154053E+03  0.00000000000E+00 0. -1.
         -3    1    6    6    0  503 -0.54919297203E+02 -0.15905239294E+03  0.15527459078E+03  0.22896286041E+03  0.00000000000E+00 0.  1.
<mgrwt>
<rscale>  0 0.23125526E+04</rscale>
<asrwt>0</asrwt>
<pdfrwt beam="1">  1        3 0.12324612E+00 0.23125526E+04</pdfrwt>
<pdfrwt beam="2">  1       -3 0.25675756E+00 0.23125526E+04</pdfrwt>
<totfact> 0.83757748E-02</totfact>
</mgrwt>
</event>
<event>
12    3  0.4688899E-008  0.2258429E+04  0.7818608E-02  0.8494495E-01
          1   -1    0    0  501    0  0.00000000000E+00  0.00000000000E+00  0.11327882206E+04  0.11327882206E+04  0.00000000000E+00 0. -1.
         -1   -1    0    0    0  501 -0.00000000000E+00 -0.00000000000E+00 -0.11256520344E+04  0.11256520344E+04  0.00000000000E+00 0.  1.
         23    2    1    2    0    0 -0.19983916264E+03 -0.47939746884E+03 -0.78714243073E+03  0.94745257521E+03  0.91189648288E+02 0.  0.
        254    2    1    2    0    0  0.19983916264E+03  0.47939746884E+03  0.79427861695E+03  0.13109876797E+04  0.90446257578E+03 0.  0.
         23    2    4    4    0    0  0.16200425822E+03 -0.24752328426E+03  0.21304041053E+03  0.37563420638E+03  0.90563152275E+02 0.  0.
         23    2    4    4    0    0  0.37834904426E+02  0.72692075310E+03  0.58123820642E+03  0.93535347335E+03  0.84870526202E+02 0.  0.
          2    1    3    3  502    0  0.59098444015E+01 -0.89896357611E+01 -0.50463691733E+01  0.11882998519E+02  0.00000000000E+00 0. -1.
         -2    1    3    3    0  502 -0.20574900705E+03 -0.47040783308E+03 -0.78209606156E+03  0.93556957669E+03  0.00000000000E+00 0.  1.
         13    1    5    5    0    0  0.79780348303E+02 -0.47066852129E+02  0.59811586756E+02  0.11026159102E+03  0.00000000000E+00 0.  1.
        -13    1    5    5    0    0  0.82223909914E+02 -0.20045643213E+03  0.15322882377E+03  0.26537261535E+03  0.00000000000E+00 0. -1.
          2    1    6    6  503    0  0.44399360672E+02  0.20998808872E+03  0.19560122835E+03  0.29038963680E+03  0.00000000000E+00 0. -1.
         -2    1    6    6    0  503 -0.65644562462E+01  0.51693266438E+03  0.38563697807E+03  0.64496383654E+03  0.00000000000E+00 0.  1.
<mgrwt>
<rscale>  0 0.22584290E+04</rscale>
<asrwt>0</asrwt>
<pdfrwt beam="1">  1        1 0.17427511E+00 0.22584290E+04</pdfrwt>
<pdfrwt beam="2">  1       -1 0.17317723E+00 0.22584290E+04</pdfrwt>
<totfact> 0.25347611E+00</totfact>
</mgrwt>
</event>
<event>
12    3  0.4688899E-008  0.1434856E+04  0.7818608E-02  0.8928967E-01
         -2   -1    0    0    0  501 -0.00000000000E+00  0.00000000000E+00  0.52739047028E+03  0.52739047028E+03  0.00000000000E+00 0.  1.
          2   -1    0    0  501    0  0.00000000000E+00 -0.00000000000E+00 -0.97594320446E+03  0.97594320446E+03  0.00000000000E+00 0. -1.
         23    2    1    2    0    0  0.36431022229E+03  0.60872649962E+02  0.10577993440E+03  0.39506710849E+03  0.91984825454E+02 0.  0.
        254    2    1    2    0    0 -0.36431022229E+03 -0.60872649962E+02 -0.55433266858E+03  0.11082665662E+04  0.88574412605E+03 0.  0.
         23    2    4    4    0    0 -0.53482733467E+03  0.23876910782E+03 -0.42047374749E+03  0.72655255492E+03  0.89607354424E+02 0.  0.
         23    2    4    4    0    0  0.17051711238E+03 -0.29964175778E+03 -0.13385892109E+03  0.38171401133E+03  0.94478077181E+02 0.  0.
          2    1    3    3  502    0  0.22060009262E+03  0.60818685467E+02  0.10397754915E+03  0.25134566655E+03  0.00000000000E+00 0. -1.
         -2    1    3    3    0  502  0.14371012967E+03  0.53964494774E-01  0.18023852489E+01  0.14372144194E+03  0.00000000000E+00 0.  1.
         13    1    5    5    0    0 -0.29147263536E+03  0.15161864226E+03 -0.18590926140E+03  0.37750067990E+03  0.00000000000E+00 0.  1.
        -13    1    5    5    0    0 -0.24335469931E+03  0.87150465562E+02 -0.23456448609E+03  0.34905187502E+03  0.00000000000E+00 0. -1.
          1    1    6    6  503    0 -0.12632441750E+01 -0.92937425034E+01 -0.25832053527E+02  0.27482074612E+02  0.00000000000E+00 0. -1.
         -1    1    6    6    0  503  0.17178035656E+03 -0.29034801528E+03 -0.10802686756E+03  0.35423193672E+03  0.00000000000E+00 0.  1.
<mgrwt>
<rscale>  0 0.14348563E+04</rscale>
<asrwt>0</asrwt>
<pdfrwt beam="1">  1        2 0.15014511E+00 0.14348563E+04</pdfrwt>
<pdfrwt beam="2">  1       -2 0.81136996E-01 0.14348563E+04</pdfrwt>
<totfact> 0.33948948E+01</totfact>
</mgrwt>
</event>
<event>
12    3  0.4688899E-008  0.3834440E+04  0.7818608E-02  0.8038804E-01
         -1   -1    0    0    0  501 -0.00000000000E+00  0.00000000000E+00  0.10860101756E+04  0.10860101756E+04  0.00000000000E+00 0.  1.
          1   -1    0    0  501    0  0.00000000000E+00 -0.00000000000E+00 -0.33846212224E+04  0.33846212224E+04  0.00000000000E+00 0. -1.
         23    2    1    2    0    0 -0.16687346718E+04 -0.12044907474E+03 -0.18915399965E+04  0.25270678271E+04  0.94682943157E+02 0.  0.
        254    2    1    2    0    0  0.16687346718E+04  0.12044907474E+03 -0.40707105026E+03  0.19435635709E+04  0.90141507078E+03 0.  0.
         23    2    4    4    0    0  0.10899049175E+04 -0.13643465030E+03 -0.62620743567E+03  0.12672578483E+04  0.85437454389E+02 0.  0.
         23    2    4    4    0    0  0.57882975425E+03  0.25688372504E+03  0.21913638541E+03  0.67630572259E+03  0.91299191655E+02 0.  0.
          1    1    3    3  502    0 -0.10347346854E+04 -0.63530327594E+02 -0.12385244307E+04  0.16151330401E+04  0.00000000000E+00 0. -1.
         -1    1    3    3    0  502 -0.63399998645E+03 -0.56918747150E+02 -0.65301556579E+03  0.91193478701E+03  0.00000000000E+00 0.  1.
         13    1    5    5    0    0  0.41786829144E+03 -0.83142960197E+02 -0.21024459206E+03  0.47510993392E+03  0.00000000000E+00 0. -1.
        -13    1    5    5    0    0  0.67203662611E+03 -0.53291690102E+02 -0.41596284360E+03  0.79214791442E+03  0.00000000000E+00 0.  1.
          2    1    6    6  503    0  0.11332890666E+03  0.40290339232E+02  0.60812974546E+01  0.12043145228E+03  0.00000000000E+00 0. -1.
         -2    1    6    6    0  503  0.46550084760E+03  0.21659338581E+03  0.21305508795E+03  0.55587427031E+03  0.00000000000E+00 0.  1.
<mgrwt>
<rscale>  0 0.38344403E+04</rscale>
<asrwt>0</asrwt>
<pdfrwt beam="1">  1        1 0.52071095E+00 0.38344403E+04</pdfrwt>
<pdfrwt beam="2">  1       -1 0.16707849E+00 0.38344403E+04</pdfrwt>
<totfact> 0.63009201E-02</totfact>
</mgrwt>
</event>
<event>
12    3  0.4688899E-008  0.1826420E+04  0.7818608E-02  0.8692374E-01
         -2   -1    0    0    0  501 -0.00000000000E+00  0.00000000000E+00  0.90331862859E+03  0.90331862859E+03  0.00000000000E+00 0.  1.
          2   -1    0    0  501    0  0.00000000000E+00 -0.00000000000E+00 -0.92320979247E+03  0.92320979247E+03  0.00000000000E+00 0. -1.
         23    2    1    2    0    0 -0.62126530590E+03  0.25265681885E+03  0.15325264520E+03  0.69369946307E+03  0.89031024781E+02 0.  0.
        254    2    1    2    0    0  0.62126530590E+03 -0.25265681885E+03 -0.17314380908E+03  0.11328289580E+04  0.89639088628E+03 0.  0.
         23    2    4    4    0    0  0.36720850196E+03 -0.22918929645E+03  0.33722360784E+03  0.55593830447E+03  0.89318638480E+02 0.  0.
         23    2    4    4    0    0  0.25405680394E+03 -0.23467522404E+02 -0.51036741692E+03  0.57689065351E+03  0.85043175030E+02 0.  0.
          2    1    3    3  502    0 -0.13390975967E+03  0.77684139311E+02  0.42330435504E+01  0.15486951893E+03  0.00000000000E+00 0. -1.
         -2    1    3    3    0  502 -0.48735554623E+03  0.17497267954E+03  0.14901960165E+03  0.53882994414E+03  0.00000000000E+00 0.  1.
         13    1    5    5    0    0  0.11374925598E+02 -0.72991737757E+01 -0.52641763477E+01  0.14504427696E+02  0.00000000000E+00 0.  1.
        -13    1    5    5    0    0  0.35583357636E+03 -0.22189012267E+03  0.34248778419E+03  0.54143387678E+03  0.00000000000E+00 0. -1.
          1    1    6    6  503    0  0.17809372410E+03 -0.53673429012E+02 -0.37859844252E+03  0.42182341356E+03  0.00000000000E+00 0. -1.
         -1    1    6    6    0  503  0.75963079843E+02  0.30205906609E+02 -0.13176897440E+03  0.15506723996E+03  0.00000000000E+00 0.  1.
<mgrwt>
<rscale>  0 0.18264201E+04</rscale>
<asrwt>0</asrwt>
<pdfrwt beam="1">  1        2 0.14203228E+00 0.18264201E+04</pdfrwt>
<pdfrwt beam="2">  1       -2 0.13897210E+00 0.18264201E+04</pdfrwt>
<totfact> 0.97542740E+00</totfact>
</mgrwt>
</event>
<event>
12    3  0.4688899E-008  0.1452141E+04  0.7818608E-02  0.8916917E-01
          2   -1    0    0  501    0  0.00000000000E+00  0.00000000000E+00  0.45798648177E+03  0.45798648177E+03  0.00000000000E+00 0. -1.
         -2   -1    0    0    0  501 -0.00000000000E+00 -0.00000000000E+00 -0.11510790656E+04  0.11510790656E+04  0.00000000000E+00 0.  1.
         23    2    1    2    0    0  0.84813965380E+02  0.10291924736E+03  0.25043048542E+03  0.29814290438E+03  0.91585933424E+02 0.  0.
        254    2    1    2    0    0 -0.84813965380E+02 -0.10291924736E+03 -0.94352306926E+03  0.13109226430E+04  0.90027585409E+03 0.  0.
         23    2    4    4    0    0 -0.99982620042E+02  0.35280680596E+03 -0.18411540923E+03  0.42032354690E+03  0.91127567302E+02 0.  0.
         23    2    4    4    0    0  0.15168654662E+02 -0.45572605332E+03 -0.75940766003E+03  0.89059909608E+03  0.92468546432E+02 0.  0.
          1    1    3    3  502    0  0.56268956627E+02  0.10842169310E+03  0.23588313693E+03  0.26563567777E+03  0.00000000000E+00 0. -1.
         -1    1    3    3    0  502  0.28545008753E+02 -0.55024457384E+01  0.14547348493E+02  0.32507226612E+02  0.00000000000E+00 0.  1.
         13    1    5    5    0    0  0.10509687028E+02  0.99255693731E+02 -0.32829465014E+02  0.10507102375E+03  0.00000000000E+00 0. -1.
        -13    1    5    5    0    0 -0.11049230707E+03  0.25355111222E+03 -0.15128594422E+03  0.31525252315E+03  0.00000000000E+00 0.  1.
          1    1    6    6  503    0 -0.13998592054E+02 -0.52626832788E+02 -0.14787472965E+03  0.15758324713E+03  0.00000000000E+00 0. -1.
         -1    1    6    6    0  503  0.29167246715E+02 -0.40309922053E+03 -0.61153293038E+03  0.73301584895E+03  0.00000000000E+00 0.  1.
<mgrwt>
<rscale>  0 0.14521414E+04</rscale>
<asrwt>0</asrwt>
<pdfrwt beam="1">  1        2 0.70459459E-01 0.14521414E+04</pdfrwt>
<pdfrwt beam="2">  1       -2 0.17708909E+00 0.14521414E+04</pdfrwt>
<totfact> 0.12540518E+01</totfact>
</mgrwt>
</event>
<event>
12    3  0.4688899E-008  0.2053369E+04  0.7818608E-02  0.8582068E-01
         -2   -1    0    0    0  501 -0.00000000000E+00  0.00000000000E+00  0.52652837005E+03  0.52652837005E+03  0.00000000000E+00 0.  1.
          2   -1    0    0  501    0  0.00000000000E+00 -0.00000000000E+00 -0.20019453338E+04  0.20019453338E+04  0.00000000000E+00 0. -1.
         23    2    1    2    0    0  0.47487289565E+03 -0.55659877357E+03 -0.13236108440E+03  0.75099690737E+03  0.10569028552E+03 0.  0.
        254    2    1    2    0    0 -0.47487289565E+03  0.55659877357E+03 -0.13430558794E+04  0.17774767965E+04  0.90571419621E+03 0.  0.
         23    2    4    4    0    0  0.12767736061E+03  0.33952750150E+03 -0.11852813146E+03  0.39251650613E+03  0.91868694086E+02 0.  0.
         23    2    4    4    0    0 -0.60255025626E+03  0.21707127207E+03 -0.12245277479E+04  0.13849602904E+04  0.91978540974E+02 0.  0.
          1    1    3    3  502    0 -0.24198733120E+01  0.83705927095E+00 -0.57576060088E+01  0.63013079612E+01  0.00000000000E+00 0. -1.
         -1    1    3    3    0  502  0.47729276896E+03 -0.55743583284E+03 -0.12660347839E+03  0.74469559941E+03  0.00000000000E+00 0.  1.
         13    1    5    5    0    0  0.28318206430E+02  0.20471636165E+03 -0.68874582068E+02  0.21784034888E+03  0.00000000000E+00 0.  1.
        -13    1    5    5    0    0  0.99359154185E+02  0.13481113984E+03 -0.49653549391E+02  0.17467615725E+03  0.00000000000E+00 0. -1.
          3    1    6    6  503    0 -0.31547978333E+03  0.12417226738E+03 -0.55126144127E+03  0.64717495494E+03  0.00000000000E+00 0. -1.
         -3    1    6    6    0  503 -0.28707047294E+03  0.92899004696E+02 -0.67326630665E+03  0.73778533543E+03  0.00000000000E+00 0.  1.
<mgrwt>
<rscale>  0 0.20533690E+04</rscale>
<asrwt>0</asrwt>
<pdfrwt beam="1">  1        2 0.30799159E+00 0.20533690E+04</pdfrwt>
<pdfrwt beam="2">  1       -2 0.81004363E-01 0.20533690E+04</pdfrwt>
<totfact> 0.82849074E+00</totfact>
</mgrwt>
</event>
<event>
12    3  0.4688899E-008  0.1497603E+04  0.7818608E-02  0.8886048E-01
          1   -1    0    0  501    0  0.00000000000E+00  0.00000000000E+00  0.19562738654E+04  0.19562738654E+04  0.00000000000E+00 0. -1.
         -1   -1    0    0    0  501 -0.00000000000E+00 -0.00000000000E+00 -0.28661824605E+03  0.28661824605E+03  0.00000000000E+00 0.  1.
         23    2    1    2    0    0  0.21985852949E+03 -0.28499662365E+02 -0.96474882296E+02  0.25788493752E+03  0.89706378495E+02 0.  0.
        254    2    1    2    0    0 -0.21985852949E+03  0.28499662365E+02  0.17661305017E+04  0.19850071739E+04  0.87857073019E+03 0.  0.
         23    2    4    4    0    0 -0.54384373902E+03  0.96804977708E+02  0.10913403827E+04  0.12265445159E+04  0.90831724663E+02 0.  0.
         23    2    4    4    0    0  0.32398520953E+03 -0.68305315344E+02  0.67479011892E+03  0.75846265808E+03  0.10144883933E+03 0.  0.
          3    1    3    3  502    0  0.92783533227E+02 -0.15305225900E+02 -0.89682904380E+02  0.12994636323E+03  0.00000000000E+00 0. -1.
         -3    1    3    3    0  502  0.12707499626E+03 -0.13194436465E+02 -0.67919779164E+01  0.12793857429E+03  0.00000000000E+00 0.  1.
         13    1    5    5    0    0 -0.11131419735E+03 -0.16679779621E+02  0.21104848314E+03  0.23918722336E+03  0.00000000000E+00 0. -1.
        -13    1    5    5    0    0 -0.43252954168E+03  0.11348475733E+03  0.88029189959E+03  0.98735729250E+03  0.00000000000E+00 0.  1.
          4    1    6    6  503    0 -0.16392389321E+01 -0.16482859170E+02  0.33744649019E+02  0.37590864423E+02  0.00000000000E+00 0. -1.
         -4    1    6    6    0  503  0.32562444847E+03 -0.51822456174E+02  0.64104546990E+03  0.72087179365E+03  0.00000000000E+00 0.  1.
<mgrwt>
<rscale>  0 0.14976031E+04</rscale>
<asrwt>0</asrwt>
<pdfrwt beam="1">  1        1 0.30096520E+00 0.14976031E+04</pdfrwt>
<pdfrwt beam="2">  1       -1 0.44095116E-01 0.14976031E+04</pdfrwt>
<totfact> 0.15711950E+01</totfact>
</mgrwt>
</event>
<event>
12    3  0.4688899E-008  0.3561724E+04  0.7818608E-02  0.8099316E-01
         -1   -1    0    0    0  501 -0.00000000000E+00  0.00000000000E+00  0.10866027581E+04  0.10866027581E+04  0.00000000000E+00 0.  1.
          1   -1    0    0  501    0  0.00000000000E+00 -0.00000000000E+00 -0.29187022110E+04  0.29187022110E+04  0.00000000000E+00 0. -1.
         23    2    1    2    0    0 -0.35167965039E+03 -0.79092411064E+03 -0.24550757720E+04  0.26054750069E+04  0.10891942039E+03 0.  0.
        254    2    1    2    0    0  0.35167965039E+03  0.79092411064E+03  0.62297631909E+03  0.13998299622E+04  0.90674412248E+03 0.  0.
         23    2    4    4    0    0  0.53150076570E+03  0.86950405204E+03  0.43005290691E+03  0.11101898497E+04  0.95108565364E+02 0.  0.
         23    2    4    4    0    0 -0.17982111531E+03 -0.78579941402E+02  0.19292341219E+03  0.28964011250E+03  0.90341081994E+02 0.  0.
          3    1    3    3  502    0 -0.33180284394E+03 -0.77352016599E+03 -0.24150429364E+04  0.25575103048E+04  0.00000000000E+00 0. -1.
         -3    1    3    3    0  502 -0.19876806452E+02 -0.17403944658E+02 -0.40032835560E+02  0.47964702098E+02  0.00000000000E+00 0.  1.
         13    1    5    5    0    0  0.46198081015E+03  0.80770552711E+03  0.39013339098E+03  0.10089690532E+04  0.00000000000E+00 0.  1.
        -13    1    5    5    0    0  0.69519955550E+02  0.61798524938E+02  0.39919515924E+02  0.10122079656E+03  0.00000000000E+00 0. -1.
          2    1    6    6  503    0  0.30443481257E+01  0.58078453235E+01 -0.42320366274E+01  0.78044382775E+01  0.00000000000E+00 0. -1.
         -2    1    6    6    0  503 -0.18286546344E+03 -0.84387786725E+02  0.19715544881E+03  0.28183567422E+03  0.00000000000E+00 0.  1.
<mgrwt>
<rscale>  0 0.35617242E+04</rscale>
<asrwt>0</asrwt>
<pdfrwt beam="1">  1        1 0.44903111E+00 0.35617242E+04</pdfrwt>
<pdfrwt beam="2">  1       -1 0.16716966E+00 0.35617242E+04</pdfrwt>
<totfact> 0.14343408E-01</totfact>
</mgrwt>
</event>
<event>
12    3  0.4688899E-008  0.1224400E+04  0.7818608E-02  0.9091764E-01
          2   -1    0    0  501    0  0.00000000000E+00  0.00000000000E+00  0.96397524385E+03  0.96397524385E+03  0.00000000000E+00 0.  1.
         -2   -1    0    0    0  501 -0.00000000000E+00 -0.00000000000E+00 -0.38879495456E+03  0.38879495456E+03  0.00000000000E+00 0. -1.
         23    2    1    2    0    0 -0.15478329162E+03 -0.12717775742E+03  0.32470041645E+03  0.39313277162E+03  0.94820706238E+02 0.  0.
        254    2    1    2    0    0  0.15478329162E+03  0.12717775742E+03  0.25047987285E+03  0.95963742679E+03  0.90445109036E+03 0.  0.
         23    2    4    4    0    0 -0.29899150158E+03  0.29006081899E+03  0.18273629339E+03  0.46445119189E+03  0.93761186001E+02 0.  0.
         23    2    4    4    0    0  0.45377479320E+03 -0.16288306156E+03  0.67743579462E+02  0.49518623490E+03  0.90430968106E+02 0.  0.
          1    1    3    3  502    0 -0.75402197042E+01 -0.35590074997E+02  0.17498496555E+02  0.40369613984E+02  0.00000000000E+00 0. -1.
         -1    1    3    3    0  502 -0.14724307191E+03 -0.91587682426E+02  0.30720191989E+03  0.35276315763E+03  0.00000000000E+00 0.  1.
         13    1    5    5    0    0 -0.24222523519E+03  0.23821264432E+03  0.10614151211E+03  0.35592744917E+03  0.00000000000E+00 0.  1.
        -13    1    5    5    0    0 -0.56766266388E+02  0.51848174663E+02  0.76594781277E+02  0.10852374272E+03  0.00000000000E+00 0. -1.
          2    1    6    6  503    0  0.42108387174E+02 -0.12147526570E+02 -0.19873688823E+02  0.48121119891E+02  0.00000000000E+00 0. -1.
         -2    1    6    6    0  503  0.41166640602E+03 -0.15073553499E+03  0.87617268285E+02  0.44706511501E+03  0.00000000000E+00 0.  1.
<mgrwt>
<rscale>  0 0.12243998E+04</rscale>
<asrwt>0</asrwt>
<pdfrwt beam="1">  1        2 0.14830388E+00 0.12243998E+04</pdfrwt>
<pdfrwt beam="2">  1       -2 0.59814609E-01 0.12243998E+04</pdfrwt>
<totfact> 0.68280612E+01</totfact>
</mgrwt>
</event>
<event>
12    3  0.4688899E-008  0.3453245E+04  0.7818608E-02  0.8124960E-01
          2   -1    0    0  501    0  0.00000000000E+00  0.00000000000E+00  0.27056349581E+04  0.27056349581E+04  0.00000000000E+00 0. -1.
         -2   -1    0    0    0  501 -0.00000000000E+00 -0.00000000000E+00 -0.11018581275E+04  0.11018581275E+04  0.00000000000E+00 0.  1.
         23    2    1    2    0    0 -0.14226164372E+04 -0.73695086464E+03  0.59355350133E+03  0.17104177958E+04  0.79304306078E+02 0.  0.
        254    2    1    2    0    0  0.14226164372E+04  0.73695086464E+03  0.10102233293E+04  0.20970752897E+04  0.90013304086E+03 0.  0.
         23    2    4    4    0    0  0.41242566960E+03  0.32262681229E+03 -0.96151001356E+02  0.54014565337E+03  0.91265102031E+02 0.  0.
         23    2    4    4    0    0  0.10101907676E+04  0.41432405235E+03  0.11063743306E+04  0.15569296363E+04  0.88407723552E+02 0.  0.
          4    1    3    3  502    0 -0.11270493236E+04 -0.56399108913E+03  0.49557098117E+03  0.13542218149E+04  0.00000000000E+00 0. -1.
         -4    1    3    3    0  502 -0.29556711362E+03 -0.17295977550E+03  0.97982520158E+02  0.35619598096E+03  0.00000000000E+00 0.  1.
         13    1    5    5    0    0  0.32842093610E+02  0.62259624720E+02 -0.23114054191E+02  0.74088619127E+02  0.00000000000E+00 0.  1.
        -13    1    5    5    0    0  0.37958357599E+03  0.26036718757E+03 -0.73036947165E+02  0.46605703425E+03  0.00000000000E+00 0. -1.
          1    1    6    6  503    0  0.90955774315E+03  0.34719842571E+03  0.10031120211E+04  0.13978825995E+04  0.00000000000E+00 0. -1.
         -1    1    6    6    0  503  0.10063302449E+03  0.67125626639E+02  0.10326230952E+03  0.15904703687E+03  0.00000000000E+00 0.  1.
<mgrwt>
<rscale>  0 0.34532454E+04</rscale>
<asrwt>0</asrwt>
<pdfrwt beam="1">  1        2 0.41625153E+00 0.34532454E+04</pdfrwt>
<pdfrwt beam="2">  1       -2 0.16951664E+00 0.34532454E+04</pdfrwt>
<totfact> 0.46678531E-01</totfact>
</mgrwt>
</event>
<event>
12    3  0.4688899E-008  0.1543973E+04  0.7818608E-02  0.8855726E-01
         -2   -1    0    0    0  501 -0.00000000000E+00  0.00000000000E+00  0.89895350302E+03  0.89895350302E+03  0.00000000000E+00 0.  1.
          2   -1    0    0  501    0  0.00000000000E+00 -0.00000000000E+00 -0.66295241891E+03  0.66295241891E+03  0.00000000000E+00 0. -1.
         23    2    1    2    0    0 -0.14533863423E+03  0.16074347138E+03  0.54415298009E+03  0.59254517420E+03  0.89696909279E+02 0.  0.
        254    2    1    2    0    0  0.14533863423E+03 -0.16074347138E+03 -0.30815189599E+03  0.96936074773E+03  0.89316341509E+03 0.  0.
         23    2    4    4    0    0 -0.27395595002E+03 -0.34497636157E+03 -0.18559571083E+03  0.48589707242E+03  0.87118565835E+02 0.  0.
         23    2    4    4    0    0  0.41929458425E+03  0.18423289020E+03 -0.12255618516E+03  0.48346367531E+03  0.94696360063E+02 0.  0.
          3    1    3    3  502    0 -0.27660860627E+02 -0.27851001978E+01  0.11709694205E+03  0.12035187506E+03  0.00000000000E+00 0. -1.
         -3    1    3    3    0  502 -0.11767777360E+03  0.16352857157E+03  0.42705603804E+03  0.47219329914E+03  0.00000000000E+00 0.  1.
         13    1    5    5    0    0 -0.23117959321E+03 -0.25264212212E+03 -0.11195831651E+03  0.36028698398E+03  0.00000000000E+00 0. -1.
        -13    1    5    5    0    0 -0.42776356810E+02 -0.92334239452E+02 -0.73637394316E+02  0.12561008844E+03  0.00000000000E+00 0.  1.
          3    1    6    6  503    0  0.10985726783E+03  0.22969085417E+02 -0.65336860570E+02  0.12986571345E+03  0.00000000000E+00 0. -1.
         -3    1    6    6    0  503  0.30943731642E+03  0.16126380478E+03 -0.57219324590E+02  0.35359796186E+03  0.00000000000E+00 0.  1.
<mgrwt>
<rscale>  0 0.15439733E+04</rscale>
<asrwt>0</asrwt>
<pdfrwt beam="1">  1        2 0.10199268E+00 0.15439733E+04</pdfrwt>
<pdfrwt beam="2">  1       -2 0.13830054E+00 0.15439733E+04</pdfrwt>
<totfact> 0.15656127E+01</totfact>
</mgrwt>
</event>
<event>
12    3  0.4688899E-008  0.1432341E+04  0.7818608E-02  0.8930735E-01
         -2   -1    0    0    0  501 -0.00000000000E+00  0.00000000000E+00  0.38809621245E+03  0.38809621245E+03  0.00000000000E+00 0.  1.
          2   -1    0    0  501    0  0.00000000000E+00 -0.00000000000E+00 -0.13215807214E+04  0.13215807214E+04  0.00000000000E+00 0. -1.
         23    2    1    2    0    0 -0.33645482463E+03 -0.18868161930E+03 -0.47159248845E+03  0.61602903123E+03  0.91047732967E+02 0.  0.
        254    2    1    2    0    0  0.33645482463E+03  0.18868161930E+03 -0.46189202045E+03  0.10936479026E+04  0.91319159751E+03 0.  0.
         23    2    4    4    0    0  0.47983769710E+03 -0.12694821945E+03  0.47820197186E+01  0.50487626192E+03  0.92288169125E+02 0.  0.
         23    2    4    4    0    0 -0.14338287247E+03  0.31562983876E+03 -0.46667404017E+03  0.58877164065E+03  0.93201619268E+02 0.  0.
          2    1    3    3  502    0 -0.73179920613E+02 -0.28875564521E+01 -0.10395707478E+03  0.12716411506E+03  0.00000000000E+00 0.  1.
         -2    1    3    3    0  502 -0.26327490402E+03 -0.18579406285E+03 -0.36763541367E+03  0.48886491617E+03  0.00000000000E+00 0. -1.
         13    1    5    5    0    0  0.11391083684E+03 -0.63678283796E+02 -0.22876696335E+02  0.13249130466E+03  0.00000000000E+00 0. -1.
        -13    1    5    5    0    0  0.36592686026E+03 -0.63269935659E+02  0.27658716054E+02  0.37238495726E+03  0.00000000000E+00 0.  1.
          1    1    6    6  503    0 -0.64812787841E+02  0.19876892557E+03 -0.21193422580E+03  0.29770102335E+03  0.00000000000E+00 0. -1.
         -1    1    6    6    0  503 -0.78570084627E+02  0.11686091319E+03 -0.25473981437E+03  0.29107061730E+03  0.00000000000E+00 0.  1.
<mgrwt>
<rscale>  0 0.14323414E+04</rscale>
<asrwt>0</asrwt>
<pdfrwt beam="1">  1        2 0.20332011E+00 0.14323414E+04</pdfrwt>
<pdfrwt beam="2">  1       -2 0.59707110E-01 0.14323414E+04</pdfrwt>
<totfact> 0.40805944E+01</totfact>
</mgrwt>
</event>
<event>
12    3  0.4688899E-008  0.1571024E+04  0.7818608E-02  0.8838550E-01
         -1   -1    0    0    0  501 -0.00000000000E+00  0.00000000000E+00  0.21300282007E+04  0.21300282007E+04  0.00000000000E+00 0.  1.
          1   -1    0    0  501    0  0.00000000000E+00 -0.00000000000E+00 -0.28968108239E+03  0.28968108239E+03  0.00000000000E+00 0. -1.
         23    2    1    2    0    0  0.16623265493E+03  0.21218706284E+03  0.11728642134E+04  0.12068516561E+04  0.90685234687E+02 0.  0.
        254    2    1    2    0    0 -0.16623265493E+03 -0.21218706284E+03  0.66748290495E+03  0.12128576269E+04  0.97613193249E+03 0.  0.
         23    2    4    4    0    0  0.10612358721E+03  0.30851082902E+03  0.48475681584E+03  0.59102228464E+03  0.88752594644E+02 0.  0.
         23    2    4    4    0    0 -0.27235624214E+03 -0.52069789186E+03  0.18272608911E+03  0.62183534230E+03  0.89365273302E+02 0.  0.
          3    1    3    3  502    0  0.75097246814E+02  0.30733249843E+02  0.31489588760E+03  0.32518233216E+03  0.00000000000E+00 0. -1.
         -3    1    3    3    0  502  0.91135408112E+02  0.18145381299E+03  0.85796832575E+03  0.88166932399E+03  0.00000000000E+00 0.  1.
         13    1    5    5    0    0  0.89734839502E+02  0.30683794016E+03  0.47249807757E+03  0.57048777047E+03  0.00000000000E+00 0. -1.
        -13    1    5    5    0    0  0.16388747709E+02  0.16728888637E+01  0.12258738266E+02  0.20534514177E+02  0.00000000000E+00 0.  1.
          2    1    6    6  503    0 -0.15730924316E+03 -0.20622799546E+03  0.86736702906E+02  0.27349486234E+03  0.00000000000E+00 0.  1.
         -2    1    6    6    0  503 -0.11504699898E+03 -0.31446989640E+03  0.95989386203E+02  0.34834047996E+03  0.00000000000E+00 0. -1.
<mgrwt>
<rscale>  0 0.15710237E+04</rscale>
<asrwt>0</asrwt>
<pdfrwt beam="1">  1        1 0.44566322E-01 0.15710237E+04</pdfrwt>
<pdfrwt beam="2">  1       -1 0.32769664E+00 0.15710237E+04</pdfrwt>
<totfact> 0.19303914E+00</totfact>
</mgrwt>
</event>
<event>
12    3  0.4688899E-008  0.1389169E+04  0.7818608E-02  0.8961696E-01
         -1   -1    0    0    0  501 -0.00000000000E+00  0.00000000000E+00  0.49186370685E+03  0.49186370685E+03  0.00000000000E+00 0.  1.
          1   -1    0    0  501    0  0.00000000000E+00 -0.00000000000E+00 -0.98085702847E+03  0.98085702847E+03  0.00000000000E+00 0. -1.
         23    2    1    2    0    0  0.19678160694E+03 -0.14473390600E+03 -0.47277946064E+03  0.53984152174E+03  0.90760926688E+02 0.  0.
        254    2    1    2    0    0 -0.19678160694E+03  0.14473390600E+03 -0.16213860976E+02  0.93287921358E+03  0.90018322216E+03 0.  0.
         23    2    4    4    0    0 -0.45574966184E+03 -0.83606915681E+02  0.20284026104E+03  0.51395725360E+03  0.91159291401E+02 0.  0.
         23    2    4    4    0    0  0.25896805490E+03  0.22834082169E+03 -0.21905412202E+03  0.41892195998E+03  0.91142283693E+02 0.  0.
          4    1    3    3  502    0  0.10718437459E+03 -0.10609897939E+03 -0.36234040987E+03  0.39247427458E+03  0.00000000000E+00 0. -1.
         -4    1    3    3    0  502  0.89597232356E+02 -0.38634926615E+02 -0.11043905077E+03  0.14736724716E+03  0.00000000000E+00 0.  1.
         13    1    5    5    0    0 -0.11839582959E+03 -0.54703853719E+02  0.30108251695E+02  0.13385287033E+03  0.00000000000E+00 0. -1.
        -13    1    5    5    0    0 -0.33735383226E+03 -0.28903061962E+02  0.17273200935E+03  0.38010438327E+03  0.00000000000E+00 0.  1.
          2    1    6    6  503    0  0.12371499263E+03  0.16869031550E+03 -0.13245135051E+03  0.24759883319E+03  0.00000000000E+00 0. -1.
         -2    1    6    6    0  503  0.13525306227E+03  0.59650506187E+02 -0.86602771511E+02  0.17132312680E+03  0.00000000000E+00 0.  1.
<mgrwt>
<rscale>  0 0.13891695E+04</rscale>
<asrwt>0</asrwt>
<pdfrwt beam="1">  1        1 0.15090108E+00 0.13891695E+04</pdfrwt>
<pdfrwt beam="2">  1       -1 0.75671341E-01 0.13891695E+04</pdfrwt>
<totfact> 0.26831117E+01</totfact>
</mgrwt>
</event>
<event>
12    3  0.4688899E-008  0.1381291E+04  0.7818608E-02  0.8967473E-01
          1   -1    0    0  501    0  0.00000000000E+00  0.00000000000E+00  0.37335316033E+03  0.37335316033E+03  0.00000000000E+00 0. -1.
         -1   -1    0    0    0  501 -0.00000000000E+00 -0.00000000000E+00 -0.12775871777E+04  0.12775871777E+04  0.00000000000E+00 0.  1.
         23    2    1    2    0    0  0.13699371164E+03  0.47996564089E+02  0.16650669588E+03  0.24053951021E+03  0.95204143862E+02 0.  0.
        254    2    1    2    0    0 -0.13699371164E+03 -0.47996564089E+02 -0.10707407132E+04  0.14104008278E+04  0.90646228433E+03 0.  0.
         23    2    4    4    0    0 -0.32663033342E+03  0.29821996838E+03 -0.81561581492E+03  0.93162539013E+03  0.84108178827E+02 0.  0.
         23    2    4    4    0    0  0.18963662178E+03 -0.34621653247E+03 -0.25512489832E+03  0.47877543768E+03  0.91155199035E+02 0.  0.
          3    1    3    3  502    0  0.10860590306E+03  0.69532563900E+02  0.93453306344E+02  0.15925934851E+03  0.00000000000E+00 0. -1.
         -3    1    3    3    0  502  0.28387808578E+02 -0.21535999811E+02  0.73053389532E+02  0.81280161699E+02  0.00000000000E+00 0.  1.
         13    1    5    5    0    0 -0.26156416098E+03  0.24632586966E+03 -0.72134886130E+03  0.80587618409E+03  0.00000000000E+00 0. -1.
        -13    1    5    5    0    0 -0.65066172438E+02  0.51894098713E+02 -0.94266953612E+02  0.12574920604E+03  0.00000000000E+00 0.  1.
          2    1    6    6  503    0  0.17974573148E+03 -0.26671861524E+03 -0.17813996359E+03  0.36766995298E+03  0.00000000000E+00 0. -1.
         -2    1    6    6    0  503  0.98908903052E+01 -0.79497917227E+02 -0.76984934735E+02  0.11110548470E+03  0.00000000000E+00 0.  1.
<mgrwt>
<rscale>  0 0.13812910E+04</rscale>
<asrwt>0</asrwt>
<pdfrwt beam="1">  1        1 0.57438947E-01 0.13812910E+04</pdfrwt>
<pdfrwt beam="2">  1       -1 0.19655188E+00 0.13812910E+04</pdfrwt>
<totfact> 0.10209538E+01</totfact>
</mgrwt>
</event>
<event>
12    3  0.4688899E-008  0.1114002E+04  0.7818608E-02  0.9191651E-01
          1   -1    0    0  501    0  0.00000000000E+00  0.00000000000E+00  0.32254313494E+03  0.32254313494E+03  0.00000000000E+00 0. -1.
         -1   -1    0    0    0  501 -0.00000000000E+00 -0.00000000000E+00 -0.96188653187E+03  0.96188653187E+03  0.00000000000E+00 0.  1.
         23    2    1    2    0    0  0.13062647162E+03 -0.84654617715E+02 -0.33808512646E+02  0.18228444985E+03  0.88628018947E+02 0.  0.
        254    2    1    2    0    0 -0.13062647162E+03  0.84654617715E+02 -0.60553488429E+03  0.11021452170E+04  0.90764635393E+03 0.  0.
         23    2    4    4    0    0  0.81782462453E+02 -0.11169957092E+03  0.18932269934E+03  0.25141082799E+03  0.90549183522E+02 0.  0.
         23    2    4    4    0    0 -0.21240893407E+03  0.19635418863E+03 -0.79485758362E+03  0.85073438898E+03  0.90982963655E+02 0.  0.
          1    1    3    3  502    0  0.96003874215E+02 -0.81149487304E+02  0.10269844460E+02  0.12612475118E+03  0.00000000000E+00 0. -1.
         -1    1    3    3    0  502  0.34622597400E+02 -0.35051304114E+01 -0.44078357106E+02  0.56159698674E+02  0.00000000000E+00 0.  1.
         13    1    5    5    0    0  0.42557004429E+02 -0.11707597900E+03  0.12964071926E+03  0.17979043238E+03  0.00000000000E+00 0.  1.
        -13    1    5    5    0    0  0.39225458025E+02  0.53764080819E+01  0.59681980074E+02  0.71620395605E+02  0.00000000000E+00 0. -1.
          2    1    6    6  503    0 -0.12350239050E+03  0.53488298451E+02 -0.33232274318E+03  0.35854183042E+03  0.00000000000E+00 0. -1.
         -2    1    6    6    0  503 -0.88906543566E+02  0.14286589018E+03 -0.46253484045E+03  0.49219255855E+03  0.00000000000E+00 0.  1.
<mgrwt>
<rscale>  0 0.11140016E+04</rscale>
<asrwt>0</asrwt>
<pdfrwt beam="1">  1        1 0.49622021E-01 0.11140016E+04</pdfrwt>
<pdfrwt beam="2">  1       -1 0.14798254E+00 0.11140016E+04</pdfrwt>
<totfact> 0.28729845E+01</totfact>
</mgrwt>
</event>
<event>
12    3  0.4688899E-008  0.1622686E+04  0.7818608E-02  0.8806731E-01
         -2   -1    0    0    0  501 -0.00000000000E+00  0.00000000000E+00  0.44307318714E+03  0.44307318714E+03  0.00000000000E+00 0.  1.
          2   -1    0    0  501    0  0.00000000000E+00 -0.00000000000E+00 -0.14857075211E+04  0.14857075211E+04  0.00000000000E+00 0. -1.
         23    2    1    2    0    0 -0.12634695907E+03 -0.24064641978E+03 -0.92878230287E+03  0.97212974499E+03  0.92333209373E+02 0.  0.
        254    2    1    2    0    0  0.12634695907E+03  0.24064641978E+03 -0.11385203106E+03  0.95665096320E+03  0.91013434558E+03 0.  0.
         23    2    4    4    0    0 -0.33598144503E+03  0.31839671278E+03 -0.50245139205E+02  0.47477299763E+03  0.92869947507E+02 0.  0.
         23    2    4    4    0    0  0.46232840410E+03 -0.77750293001E+02 -0.63606891850E+02  0.48187796558E+03  0.91476093704E+02 0.  0.
          2    1    3    3  502    0 -0.10441948522E+03 -0.12804747952E+03 -0.43822380137E+03  0.46833714991E+03  0.00000000000E+00 0.  1.
         -2    1    3    3    0  502 -0.21927473846E+02 -0.11259894026E+03 -0.49055850150E+03  0.50379259508E+03  0.00000000000E+00 0. -1.
         13    1    5    5    0    0 -0.72039444694E+02  0.67714437974E+02  0.27345976238E+02  0.10258035445E+03  0.00000000000E+00 0.  1.
        -13    1    5    5    0    0 -0.26394200033E+03  0.25068227481E+03 -0.77591115443E+02  0.37219264318E+03  0.00000000000E+00 0. -1.
          2    1    6    6  503    0  0.20224169684E+03 -0.46715069484E+01  0.77859840556E+01  0.20244542096E+03  0.00000000000E+00 0. -1.
         -2    1    6    6    0  503  0.26008670725E+03 -0.73078786052E+02 -0.71392875906E+02  0.27943254462E+03  0.00000000000E+00 0.  1.
<mgrwt>
<rscale>  0 0.16226856E+04</rscale>
<asrwt>0</asrwt>
<pdfrwt beam="1">  1        2 0.22857039E+00 0.16226856E+04</pdfrwt>
<pdfrwt beam="2">  1       -2 0.68165105E-01 0.16226856E+04</pdfrwt>
<totfact> 0.24383359E+01</totfact>
</mgrwt>
</event>
<event>
12    3  0.4688899E-008  0.2706988E+04  0.7818608E-02  0.8332741E-01
          1   -1    0    0  501    0  0.00000000000E+00  0.00000000000E+00  0.21700942642E+04  0.21700942642E+04  0.00000000000E+00 0. -1.
         -1   -1    0    0    0  501 -0.00000000000E+00 -0.00000000000E+00 -0.84417777680E+03  0.84417777680E+03  0.00000000000E+00 0.  1.
         23    2    1    2    0    0 -0.43228205828E+03 -0.50220236412E+03  0.17184169103E+04  0.18439393324E+04  0.89892110179E+02 0.  0.
        254    2    1    2    0    0  0.43228205828E+03  0.50220236412E+03 -0.39250042287E+03  0.11703327086E+04  0.88121908429E+03 0.  0.
         23    2    4    4    0    0  0.68836404081E+03  0.39487092265E+03 -0.21030574188E+03  0.82603887985E+03  0.91343460197E+02 0.  0.
         23    2    4    4    0    0 -0.25608198253E+03  0.10733144148E+03 -0.18219468099E+03  0.34429382879E+03  0.90803737014E+02 0.  0.
          4    1    3    3  502    0 -0.34111324049E+03 -0.33496182584E+03  0.12114090119E+04  0.13023323161E+04  0.00000000000E+00 0. -1.
         -4    1    3    3    0  502 -0.91168817788E+02 -0.16724053828E+03  0.50700789842E+03  0.54160701624E+03  0.00000000000E+00 0.  1.
         13    1    5    5    0    0  0.93403892793E+02  0.87424930537E+02 -0.17438199412E+02  0.12911814926E+03  0.00000000000E+00 0. -1.
        -13    1    5    5    0    0  0.59496014802E+03  0.30744599211E+03 -0.19286754247E+03  0.69692073059E+03  0.00000000000E+00 0.  1.
          2    1    6    6  503    0 -0.65376812454E+02 -0.12675435572E+02 -0.47237108027E+02  0.81646424590E+02  0.00000000000E+00 0. -1.
         -2    1    6    6    0  503 -0.19070517008E+03  0.12000687705E+03 -0.13495757296E+03  0.26264740420E+03  0.00000000000E+00 0.  1.
<mgrwt>
<rscale>  0 0.27069875E+04</rscale>
<asrwt>0</asrwt>
<pdfrwt beam="1">  1        1 0.33386065E+00 0.27069875E+04</pdfrwt>
<pdfrwt beam="2">  1       -1 0.12987351E+00 0.27069875E+04</pdfrwt>
<totfact> 0.10127116E+00</totfact>
</mgrwt>
</event>
<event>
12    3  0.4688899E-008  0.1391518E+04  0.7818608E-02  0.8959981E-01
          2   -1    0    0  501    0  0.00000000000E+00  0.00000000000E+00  0.19169133395E+04  0.19169133395E+04  0.00000000000E+00 0. -1.
         -2   -1    0    0    0  501 -0.00000000000E+00 -0.00000000000E+00 -0.25253141400E+03  0.25253141400E+03  0.00000000000E+00 0.  1.
         23    2    1    2    0    0  0.10278043259E+03  0.93693470874E+01 -0.10864439058E+03  0.17655484554E+03  0.93361704636E+02 0.  0.
        254    2    1    2    0    0 -0.10278043259E+03 -0.93693470874E+01  0.17730263161E+04  0.19928899080E+04  0.90406651622E+03 0.  0.
         23    2    4    4    0    0  0.20619080403E+03  0.30458370812E+03  0.12334131657E+04  0.12905107104E+04  0.93936007445E+02 0.  0.
         23    2    4    4    0    0 -0.30897123661E+03 -0.31395305521E+03  0.53961315038E+03  0.70237919753E+03  0.90135670674E+02 0.  0.
          1    1    3    3  502    0  0.29765121586E+02  0.46433929845E+02 -0.28949993583E+02  0.62291046165E+02  0.00000000000E+00 0. -1.
         -1    1    3    3    0  502  0.73015311001E+02 -0.37064582757E+02 -0.79694396999E+02  0.11426379938E+03  0.00000000000E+00 0.  1.
         13    1    5    5    0    0  0.23021527075E+02 -0.12610610904E+01  0.80690714005E+02  0.83920035216E+02  0.00000000000E+00 0. -1.
        -13    1    5    5    0    0  0.18316927695E+03  0.30584476921E+03  0.11527224517E+04  0.12065906752E+04  0.00000000000E+00 0.  1.
          4    1    6    6  503    0 -0.12615354147E+03 -0.81731316182E+02  0.22622453325E+03  0.27161049964E+03  0.00000000000E+00 0. -1.
         -4    1    6    6    0  503 -0.18281769515E+03 -0.23222173902E+03  0.31338861713E+03  0.43076869789E+03  0.00000000000E+00 0.  1.
<mgrwt>
<rscale>  0 0.13915184E+04</rscale>
<asrwt>0</asrwt>
<pdfrwt beam="1">  1        2 0.29490974E+00 0.13915184E+04</pdfrwt>
<pdfrwt beam="2">  1       -2 0.38850988E-01 0.13915184E+04</pdfrwt>
<totfact> 0.45327591E+01</totfact>
</mgrwt>
</event>
<event>
12    3  0.4688899E-008  0.1375083E+04  0.7818608E-02  0.8972055E-01
          2   -1    0    0  501    0  0.00000000000E+00  0.00000000000E+00  0.14610209434E+04  0.14610209434E+04  0.00000000000E+00 0. -1.
         -2   -1    0    0    0  501 -0.00000000000E+00 -0.00000000000E+00 -0.32355020500E+03  0.32355020500E+03  0.00000000000E+00 0.  1.
         23    2    1    2    0    0  0.35722584826E+03  0.60435524071E+02  0.14501510428E+03  0.40035717944E+03  0.89407669817E+02 0.  0.
        254    2    1    2    0    0 -0.35722584826E+03 -0.60435524071E+02  0.99245563408E+03  0.13842139689E+04  0.89432509015E+03 0.  0.
         23    2    4    4    0    0 -0.50483306794E+03 -0.19844765351E+03  0.24153620588E+03  0.60096144114E+03  0.92612187733E+02 0.  0.
         23    2    4    4    0    0  0.14760721968E+03  0.13801212944E+03  0.75091942820E+03  0.78325252777E+03  0.93644516337E+02 0.  0.
          4    1    3    3  502    0  0.18338261702E+03  0.20732037597E+02  0.12038641369E+03  0.22034493461E+03  0.00000000000E+00 0. -1.
         -4    1    3    3    0  502  0.17384323124E+03  0.39703486475E+02  0.24628690588E+02  0.18001224483E+03  0.00000000000E+00 0.  1.
         13    1    5    5    0    0 -0.16812255973E+03 -0.22156092854E+02  0.61232919835E+02  0.18029297827E+03  0.00000000000E+00 0. -1.
        -13    1    5    5    0    0 -0.33671050821E+03 -0.17629156066E+03  0.18030328605E+03  0.42066846288E+03  0.00000000000E+00 0.  1.
          3    1    6    6  503    0 -0.35131518682E+01 -0.95326747210E+01  0.57191259598E+02  0.58086610314E+02  0.00000000000E+00 0. -1.
         -3    1    6    6    0  503  0.15112037155E+03  0.14754480416E+03  0.69372816860E+03  0.72516591745E+03  0.00000000000E+00 0.  1.
<mgrwt>
<rscale>  0 0.13750835E+04</rscale>
<asrwt>0</asrwt>
<pdfrwt beam="1">  1        2 0.22477245E+00 0.13750835E+04</pdfrwt>
<pdfrwt beam="2">  1       -2 0.49776955E-01 0.13750835E+04</pdfrwt>
<totfact> 0.49721044E+01</totfact>
</mgrwt>
</event>
<event>
12    3  0.4688899E-008  0.1860204E+04  0.7818608E-02  0.8674923E-01
          1   -1    0    0  501    0  0.00000000000E+00  0.00000000000E+00  0.47732057374E+03  0.47732057374E+03  0.00000000000E+00 0. -1.
         -1   -1    0    0    0  501 -0.00000000000E+00 -0.00000000000E+00 -0.18123873639E+04  0.18123873639E+04  0.00000000000E+00 0.  1.
         23    2    1    2    0    0  0.41078849294E+03 -0.10515615207E+03 -0.11959839596E+04  0.12722932211E+04  0.92452184600E+02 0.  0.
        254    2    1    2    0    0 -0.41078849294E+03  0.10515615207E+03 -0.13908283047E+03  0.10174147165E+04  0.91432142565E+03 0.  0.
         23    2    4    4    0    0 -0.24204266201E+03  0.12902222501E+03 -0.51751960228E+03  0.59268055588E+03  0.90621839493E+02 0.  0.
         23    2    4    4    0    0 -0.16874583093E+03 -0.23866072939E+02  0.37843677181E+03  0.42473416064E+03  0.90221793740E+02 0.  0.
          2    1    3    3  502    0  0.51408226373E+02  0.17393480226E+02 -0.15406300167E+03  0.16334242369E+03  0.00000000000E+00 0. -1.
         -2    1    3    3    0  502  0.35938026657E+03 -0.12254963230E+03 -0.10419209580E+04  0.11089507974E+04  0.00000000000E+00 0.  1.
         13    1    5    5    0    0 -0.11208628583E+03  0.67376415312E+02 -0.33947830960E+03  0.36379725054E+03  0.00000000000E+00 0. -1.
        -13    1    5    5    0    0 -0.12995637618E+03  0.61645809698E+02 -0.17804129267E+03  0.22888330533E+03  0.00000000000E+00 0.  1.
          1    1    6    6  503    0 -0.15780531819E+03 -0.46398829720E+02  0.29667804079E+03  0.33922445333E+03  0.00000000000E+00 0. -1.
         -1    1    6    6    0  503 -0.10940512739E+02  0.22532756781E+02  0.81758731018E+02  0.85509707313E+02  0.00000000000E+00 0.  1.
<mgrwt>
<rscale>  0 0.18602040E+04</rscale>
<asrwt>0</asrwt>
<pdfrwt beam="1">  1        1 0.73433934E-01 0.18602040E+04</pdfrwt>
<pdfrwt beam="2">  1       -1 0.27882883E+00 0.18602040E+04</pdfrwt>
<totfact> 0.20099733E+00</totfact>
</mgrwt>
</event>
<event>
12    3  0.4688899E-008  0.2381255E+04  0.7818608E-02  0.8446555E-01
          1   -1    0    0  501    0  0.00000000000E+00  0.00000000000E+00  0.23227053022E+04  0.23227053022E+04  0.00000000000E+00 0. -1.
         -1   -1    0    0    0  501 -0.00000000000E+00 -0.00000000000E+00 -0.61031994969E+03  0.61031994969E+03  0.00000000000E+00 0.  1.
         23    2    1    2    0    0 -0.48186232714E+03  0.19213177946E+03  0.18190919553E+04  0.18937815445E+04  0.90592899135E+02 0.  0.
        254    2    1    2    0    0  0.48186232714E+03 -0.19213177946E+03 -0.10670660281E+03  0.10392437074E+04  0.89416735640E+03 0.  0.
         23    2    4    4    0    0 -0.72407391339E+01 -0.26574746246E+03  0.28588722984E+03  0.40121432147E+03  0.92559610313E+02 0.  0.
         23    2    4    4    0    0  0.48910306628E+03  0.73615682996E+02 -0.39259383264E+03  0.63802938592E+03  0.91161952793E+02 0.  0.
          2    1    3    3  502    0 -0.45658109215E+03  0.16509637505E+03  0.16165557356E+04  0.16878908594E+04  0.00000000000E+00 0. -1.
         -2    1    3    3    0  502 -0.25281234995E+02  0.27035404409E+02  0.20253621968E+03  0.20589068511E+03  0.00000000000E+00 0.  1.
         13    1    5    5    0    0 -0.44274374180E+01 -0.22930475013E+03  0.28340340791E+03  0.36457888343E+03  0.00000000000E+00 0. -1.
        -13    1    5    5    0    0 -0.28133017159E+01 -0.36442712332E+02  0.24838219312E+01  0.36635438035E+02  0.00000000000E+00 0.  1.
          2    1    6    6  503    0  0.33963131692E+03  0.23428305763E+02 -0.22584507709E+03  0.40853924632E+03  0.00000000000E+00 0. -1.
         -2    1    6    6    0  503  0.14947174936E+03  0.50187377233E+02 -0.16674875556E+03  0.22949013959E+03  0.00000000000E+00 0.  1.
<mgrwt>
<rscale>  0 0.23812546E+04</rscale>
<asrwt>0</asrwt>
<pdfrwt beam="1">  1        1 0.35733927E+00 0.23812546E+04</pdfrwt>
<pdfrwt beam="2">  1       -1 0.93895378E-01 0.23812546E+04</pdfrwt>
<totfact> 0.17712021E+00</totfact>
</mgrwt>
</event>
<event>
12    3  0.4688899E-008  0.1395039E+04  0.7818608E-02  0.8957418E-01
          1   -1    0    0  501    0  0.00000000000E+00  0.00000000000E+00  0.58910089054E+03  0.58910089054E+03  0.00000000000E+00 0. -1.
         -1   -1    0    0    0  501 -0.00000000000E+00 -0.00000000000E+00 -0.82589099588E+03  0.82589099588E+03  0.00000000000E+00 0.  1.
         23    2    1    2    0    0 -0.99144629130E+02  0.27099707769E+03  0.21345256850E+03  0.37077492094E+03  0.92967571746E+02 0.  0.
        254    2    1    2    0    0  0.99144629130E+02 -0.27099707769E+03 -0.45024267384E+03  0.10442169655E+04  0.89688434709E+03 0.  0.
         23    2    4    4    0    0  0.23559625784E+03 -0.36210175335E+03 -0.63899338330E+03  0.77803669435E+03  0.10200626143E+03 0.  0.
         23    2    4    4    0    0 -0.13645162871E+03  0.91104675662E+02  0.18875070946E+03  0.26618027113E+03  0.91137245486E+02 0.  0.
          3    1    3    3  502    0 -0.86965905781E+02  0.24351471311E+03  0.22058239126E+03  0.33988097270E+03  0.00000000000E+00 0. -1.
         -3    1    3    3    0  502 -0.12178723349E+02  0.27482364581E+02 -0.71298227580E+01  0.30893948241E+02  0.00000000000E+00 0.  1.
         13    1    5    5    0    0  0.16818231582E+03 -0.29254734476E+03 -0.55645218697E+03  0.65077513526E+03  0.00000000000E+00 0. -1.
        -13    1    5    5    0    0  0.67413942017E+02 -0.69554408586E+02 -0.82541196328E+02  0.12726155909E+03  0.00000000000E+00 0.  1.
          2    1    6    6  503    0 -0.12164602606E+03  0.76461135894E+02  0.10008748292E+03  0.17510444082E+03  0.00000000000E+00 0. -1.
         -2    1    6    6    0  503 -0.14805602650E+02  0.14643539768E+02  0.88663226541E+02  0.91075830315E+02  0.00000000000E+00 0.  1.
<mgrwt>
<rscale>  0 0.13950385E+04</rscale>
<asrwt>0</asrwt>
<pdfrwt beam="1">  1        1 0.90630906E-01 0.13950385E+04</pdfrwt>
<pdfrwt beam="2">  1       -1 0.12706015E+00 0.13950385E+04</pdfrwt>
<totfact> 0.18434213E+01</totfact>
</mgrwt>
</event>
<event>
12    3  0.4688899E-008  0.1665049E+04  0.7818608E-02  0.8781553E-01
         -1   -1    0    0    0  501 -0.00000000000E+00  0.00000000000E+00  0.84092601616E+03  0.84092601616E+03  0.00000000000E+00 0.  1.
          1   -1    0    0  501    0  0.00000000000E+00 -0.00000000000E+00 -0.82420681406E+03  0.82420681406E+03  0.00000000000E+00 0. -1.
         23    2    1    2    0    0 -0.35844838694E+03  0.28855559205E+03  0.36362692999E+03  0.59350202049E+03  0.90942445105E+02 0.  0.
        254    2    1    2    0    0  0.35844838694E+03 -0.28855559205E+03 -0.34690772788E+03  0.10716308097E+04  0.90349213881E+03 0.  0.
         23    2    4    4    0    0  0.34587170931E+03 -0.45061857128E+03 -0.54991627792E+03  0.79600534021E+03  0.92370194545E+02 0.  0.
         23    2    4    4    0    0  0.12576677627E+02  0.16206297923E+03  0.20300855004E+03  0.27562546952E+03  0.91292639362E+02 0.  0.
          4    1    3    3  502    0 -0.17416879775E+03  0.14052898369E+03  0.23454367249E+03  0.32418189288E+03  0.00000000000E+00 0.  1.
         -4    1    3    3    0  502 -0.18427958918E+03  0.14802660836E+03  0.12908325750E+03  0.26932012761E+03  0.00000000000E+00 0. -1.
         13    1    5    5    0    0  0.32599310271E+03 -0.37643006236E+03 -0.48967957260E+03  0.69839614739E+03  0.00000000000E+00 0.  1.
        -13    1    5    5    0    0  0.19878606598E+02 -0.74188508916E+02 -0.60236705320E+02  0.97609192821E+02  0.00000000000E+00 0. -1.
          4    1    6    6  503    0  0.39321763362E+02  0.94727223460E+02  0.70036281558E+02  0.12419552598E+03  0.00000000000E+00 0. -1.
         -4    1    6    6    0  503 -0.26745085735E+02  0.67335755770E+02  0.13297226848E+03  0.15142994354E+03  0.00000000000E+00 0.  1.
<mgrwt>
<rscale>  0 0.16650489E+04</rscale>
<asrwt>0</asrwt>
<pdfrwt beam="1">  1        1 0.12680105E+00 0.16650489E+04</pdfrwt>
<pdfrwt beam="2">  1       -1 0.12937323E+00 0.16650489E+04</pdfrwt>
<totfact> 0.10324306E+01</totfact>
</mgrwt>
</event>
<event>
12    3  0.4688899E-008  0.1183762E+04  0.7818608E-02  0.9127189E-01
         -2   -1    0    0    0  501 -0.00000000000E+00  0.00000000000E+00  0.23871343417E+03  0.23871343417E+03  0.00000000000E+00 0. -1.
          2   -1    0    0  501    0  0.00000000000E+00 -0.00000000000E+00 -0.14675478670E+04  0.14675478670E+04  0.00000000000E+00 0.  1.
         23    2    1    2    0    0  0.16188767315E+03  0.12925821921E+03 -0.40766287433E+03  0.46623064956E+03  0.90921359048E+02 0.  0.
        254    2    1    2    0    0 -0.16188767315E+03 -0.12925821921E+03 -0.82117155848E+03  0.12400306516E+04  0.90578031689E+03 0.  0.
         23    2    4    4    0    0 -0.48244256576E+03 -0.95314804313E+02 -0.74080603637E+03  0.89463994164E+03  0.98748673243E+02 0.  0.
         23    2    4    4    0    0  0.32055489261E+03 -0.33943414894E+02 -0.80365522109E+02  0.34539070995E+03  0.94490903181E+02 0.  0.
          1    1    3    3  502    0  0.30448757126E+02  0.72416565614E+02 -0.19094525367E+03  0.20647366826E+03  0.00000000000E+00 0. -1.
         -1    1    3    3    0  502  0.13143891603E+03  0.56841653593E+02 -0.21671762066E+03  0.25975698130E+03  0.00000000000E+00 0.  1.
         13    1    5    5    0    0 -0.19322830090E+03 -0.83372275479E+02 -0.27616420689E+03  0.34720999662E+03  0.00000000000E+00 0. -1.
        -13    1    5    5    0    0 -0.28921426486E+03 -0.11942528834E+02 -0.46464182948E+03  0.54742994501E+03  0.00000000000E+00 0.  1.
          3    1    6    6  503    0  0.12952513163E+03  0.32338656899E+02 -0.26026093698E+02  0.13601435956E+03  0.00000000000E+00 0. -1.
         -3    1    6    6    0  503  0.19102976098E+03 -0.66282071793E+02 -0.54339428411E+02  0.20937635039E+03  0.00000000000E+00 0.  1.
<mgrwt>
<rscale>  0 0.11837625E+04</rscale>
<asrwt>0</asrwt>
<pdfrwt beam="1">  1        2 0.22577660E+00 0.11837625E+04</pdfrwt>
<pdfrwt beam="2">  1       -2 0.36725144E-01 0.11837625E+04</pdfrwt>
<totfact> 0.91292892E+01</totfact>
</mgrwt>
</event>
<event>
12    3  0.4688899E-008  0.2545349E+04  0.7818608E-02  0.8387006E-01
          1   -1    0    0  501    0  0.00000000000E+00  0.00000000000E+00  0.18976933569E+04  0.18976933569E+04  0.00000000000E+00 0. -1.
         -1   -1    0    0    0  501 -0.00000000000E+00 -0.00000000000E+00 -0.85350998956E+03  0.85350998956E+03  0.00000000000E+00 0.  1.
         23    2    1    2    0    0  0.57219353478E+03 -0.19240086382E+02  0.14871225930E+04  0.15961684621E+04  0.91894126867E+02 0.  0.
        254    2    1    2    0    0 -0.57219353478E+03  0.19240086382E+02 -0.44293922565E+03  0.11550348844E+04  0.90007488821E+03 0.  0.
         23    2    4    4    0    0  0.22168444787E+03 -0.29174504206E+02 -0.21307252304E+03  0.32180327394E+03  0.90345453228E+02 0.  0.
         23    2    4    4    0    0 -0.79387798265E+03  0.48414590588E+02 -0.22986670261E+03  0.83323161045E+03  0.94074394881E+02 0.  0.
          3    1    3    3  502    0  0.24515871150E+03 -0.78253413091E+01  0.76500653167E+03  0.80336730285E+03  0.00000000000E+00 0. -1.
         -3    1    3    3    0  502  0.32703482327E+03 -0.11414745073E+02  0.72211606134E+03  0.79280115923E+03  0.00000000000E+00 0.  1.
         13    1    5    5    0    0  0.63068259077E+02  0.13496180772E+02 -0.11111419803E+03  0.12847613476E+03  0.00000000000E+00 0. -1.
        -13    1    5    5    0    0  0.15861618880E+03 -0.42670684978E+02 -0.10195832501E+03  0.19332713918E+03  0.00000000000E+00 0.  1.
          2    1    6    6  503    0 -0.37380184523E+03  0.25203977947E+02 -0.59577032747E+02  0.37935798770E+03  0.00000000000E+00 0. -1.
         -2    1    6    6    0  503 -0.42007613742E+03  0.23210612641E+02 -0.17028966986E+03  0.45387362275E+03  0.00000000000E+00 0.  1.
<mgrwt>
<rscale>  0 0.25453489E+04</rscale>
<asrwt>0</asrwt>
<pdfrwt beam="1">  1        1 0.29195282E+00 0.25453489E+04</pdfrwt>
<pdfrwt beam="2">  1       -1 0.13130923E+00 0.25453489E+04</pdfrwt>
<totfact> 0.15297272E+00</totfact>
</mgrwt>
</event>
<event>
12    3  0.4688899E-008  0.1823069E+04  0.7818608E-02  0.8694127E-01
         -2   -1    0    0    0  501 -0.00000000000E+00  0.00000000000E+00  0.46589898916E+03  0.46589898916E+03  0.00000000000E+00 0.  1.
          2   -1    0    0  501    0  0.00000000000E+00 -0.00000000000E+00 -0.17834230001E+04  0.17834230001E+04  0.00000000000E+00 0. -1.
         23    2    1    2    0    0 -0.41832694609E+03  0.30793709667E+03 -0.10368800327E+04  0.11633064234E+04  0.91317814096E+02 0.  0.
        254    2    1    2    0    0  0.41832694609E+03 -0.30793709667E+03 -0.28064397820E+03  0.10860155658E+04  0.91150758493E+03 0.  0.
         23    2    4    4    0    0  0.48831397670E+03 -0.53142607790E+03 -0.37389196089E+03  0.81797954993E+03  0.91821182575E+02 0.  0.
         23    2    4    4    0    0 -0.69987030606E+02  0.22348898124E+03  0.93247982690E+02  0.26803601589E+03  0.91118660845E+02 0.  0.
          4    1    3    3  502    0 -0.31098343894E+03  0.26263574239E+03 -0.86050592580E+03  0.95192367383E+03  0.00000000000E+00 0. -1.
         -4    1    3    3    0  502 -0.10734350715E+03  0.45301354281E+02 -0.17637410695E+03  0.21138274960E+03  0.00000000000E+00 0.  1.
         13    1    5    5    0    0  0.16619487153E+02 -0.14761864571E+02 -0.32895581236E+02  0.39701879851E+02  0.00000000000E+00 0. -1.
        -13    1    5    5    0    0  0.47169448954E+03 -0.51666421333E+03 -0.34099637965E+03  0.77827767008E+03  0.00000000000E+00 0.  1.
          1    1    6    6  503    0 -0.72154526949E+01  0.13329065229E+03  0.17637974361E+02  0.13464605039E+03  0.00000000000E+00 0. -1.
         -1    1    6    6    0  503 -0.62771577912E+02  0.90198328941E+02  0.75610008329E+02  0.13338996550E+03  0.00000000000E+00 0.  1.
<mgrwt>
<rscale>  0 0.18230688E+04</rscale>
<asrwt>0</asrwt>
<pdfrwt beam="1">  1        2 0.27437277E+00 0.18230688E+04</pdfrwt>
<pdfrwt beam="2">  1       -2 0.71676768E-01 0.18230688E+04</pdfrwt>
<totfact> 0.14656717E+01</totfact>
</mgrwt>
</event>
<event>
12    3  0.4688899E-008  0.2188210E+04  0.7818608E-02  0.8523351E-01
          2   -1    0    0  501    0  0.00000000000E+00  0.00000000000E+00  0.25092489956E+04  0.25092489956E+04  0.00000000000E+00 0. -1.
         -2   -1    0    0    0  501 -0.00000000000E+00 -0.00000000000E+00 -0.47706134588E+03  0.47706134588E+03  0.00000000000E+00 0.  1.
         23    2    1    2    0    0  0.29552102787E+03 -0.77353086882E+03  0.33941019631E+03  0.89685696998E+03  0.58910612806E+02 0.  0.
        254    2    1    2    0    0 -0.29552102787E+03  0.77353086882E+03  0.16927774534E+04  0.20894533715E+04  0.90257254667E+03 0.  0.
         23    2    4    4    0    0  0.29191236830E+03  0.97318088855E+02  0.38372990467E+03  0.50058829091E+03  0.93039540385E+02 0.  0.
         23    2    4    4    0    0 -0.58743339618E+03  0.67621277997E+03  0.13090475488E+04  0.15888650806E+04  0.92439389566E+02 0.  0.
          2    1    3    3  502    0  0.46670157079E+02 -0.73862258647E+02  0.41451367008E+02  0.96705494369E+02  0.00000000000E+00 0. -1.
         -2    1    3    3    0  502  0.24885087080E+03 -0.69966861017E+03  0.29795882930E+03  0.80015147561E+03  0.00000000000E+00 0.  1.
         13    1    5    5    0    0  0.22521428535E+03  0.87560328156E+02  0.23392968573E+03  0.33632035808E+03  0.00000000000E+00 0.  1.
        -13    1    5    5    0    0  0.66698082951E+02  0.97577606988E+01  0.14980021894E+03  0.16426793283E+03  0.00000000000E+00 0. -1.
          1    1    6    6  503    0 -0.15893439007E+03  0.13860085434E+03  0.35520794214E+03  0.41308960206E+03  0.00000000000E+00 0. -1.
         -1    1    6    6    0  503 -0.42849900611E+03  0.53761192562E+03  0.95383960661E+03  0.11757754785E+04  0.00000000000E+00 0.  1.
<mgrwt>
<rscale>  0 0.21882100E+04</rscale>
<asrwt>0</asrwt>
<pdfrwt beam="1">  1        2 0.38603830E+00 0.21882100E+04</pdfrwt>
<pdfrwt beam="2">  1       -2 0.73394055E-01 0.21882100E+04</pdfrwt>
<totfact> 0.52706293E+00</totfact>
</mgrwt>
</event>
<event>
12    3  0.4688899E-008  0.1638339E+04  0.7818608E-02  0.8797335E-01
          2   -1    0    0  501    0  0.00000000000E+00  0.00000000000E+00  0.40094701373E+04  0.40094701373E+04  0.00000000000E+00 0.  1.
         -2   -1    0    0    0  501 -0.00000000000E+00 -0.00000000000E+00 -0.16736348411E+03  0.16736348411E+03  0.00000000000E+00 0. -1.
         23    2    1    2    0    0 -0.31317270785E+03 -0.30156675057E+03  0.41965080785E+03  0.61175072634E+03  0.95459418892E+02 0.  0.
        254    2    1    2    0    0  0.31317270785E+03  0.30156675057E+03  0.34224558453E+04  0.35650828950E+04  0.89866144092E+03 0.  0.
         23    2    4    4    0    0  0.33884669161E+03 -0.25208473267E+03  0.13157434017E+04  0.13849085938E+04  0.91800442087E+02 0.  0.
         23    2    4    4    0    0 -0.25673983758E+02  0.55365148324E+03  0.21067124436E+04  0.21801743012E+04  0.87940579029E+02 0.  0.
          1    1    3    3  502    0 -0.28858163041E+03 -0.24806266089E+03  0.32581403980E+03  0.50096829208E+03  0.00000000000E+00 0. -1.
         -1    1    3    3    0  502 -0.24591077439E+02 -0.53504089676E+02  0.93836768054E+02  0.11078243426E+03  0.00000000000E+00 0.  1.
         13    1    5    5    0    0  0.13077613816E+03 -0.72171004344E+02  0.34501455532E+03  0.37596023136E+03  0.00000000000E+00 0.  1.
        -13    1    5    5    0    0  0.20807055345E+03 -0.17991372833E+03  0.97072884640E+03  0.10089483624E+04  0.00000000000E+00 0. -1.
          4    1    6    6  503    0 -0.23034414509E+02  0.31523710401E+02  0.14488595548E+03  0.15005421908E+03  0.00000000000E+00 0.  1.
         -4    1    6    6    0  503 -0.26395692492E+01  0.52212777284E+03  0.19618264881E+04  0.20301200822E+04  0.00000000000E+00 0. -1.
<mgrwt>
<rscale>  0 0.16383393E+04</rscale>
<asrwt>0</asrwt>
<pdfrwt beam="1">  1        2 0.61684149E+00 0.16383393E+04</pdfrwt>
<pdfrwt beam="2">  1       -2 0.25748231E-01 0.16383393E+04</pdfrwt>
<totfact> 0.44543056E+00</totfact>
</mgrwt>
</event>
<event>
12    3  0.4688899E-008  0.1383727E+04  0.7818608E-02  0.8965683E-01
         -1   -1    0    0    0  501 -0.00000000000E+00  0.00000000000E+00  0.54724767798E+03  0.54724767798E+03  0.00000000000E+00 0.  1.
          1   -1    0    0  501    0  0.00000000000E+00 -0.00000000000E+00 -0.87469582893E+03  0.87469582893E+03  0.00000000000E+00 0. -1.
         23    2    1    2    0    0 -0.26544258129E+03 -0.26312181150E+03  0.42124926974E+02  0.38864973510E+03  0.97883887707E+02 0.  0.
        254    2    1    2    0    0  0.26544258129E+03  0.26312181150E+03 -0.36957307793E+03  0.10332937718E+04  0.88961728134E+03 0.  0.
         23    2    4    4    0    0  0.13136568099E+03  0.36553723218E+03 -0.60838695582E+03  0.72772307822E+03  0.92583909558E+02 0.  0.
         23    2    4    4    0    0  0.13407690030E+03 -0.10241542068E+03  0.23881387789E+03  0.30557069358E+03  0.88745968440E+02 0.  0.
          4    1    3    3  502    0 -0.21475267438E+03 -0.17333624910E+03  0.63875631212E+02  0.28327418285E+03  0.00000000000E+00 0.  1.
         -4    1    3    3    0  502 -0.50689906911E+02 -0.89785562397E+02 -0.21750704237E+02  0.10537555225E+03  0.00000000000E+00 0. -1.
         13    1    5    5    0    0  0.79371186944E+02  0.11099215660E+03 -0.25366612248E+03  0.28803740354E+03  0.00000000000E+00 0.  1.
        -13    1    5    5    0    0  0.51994494048E+02  0.25454507558E+03 -0.35472083334E+03  0.43968567468E+03  0.00000000000E+00 0. -1.
          2    1    6    6  503    0  0.86577200406E+02 -0.10972819875E+03  0.15311846426E+03  0.20731896519E+03  0.00000000000E+00 0. -1.
         -2    1    6    6    0  503  0.47499699896E+02  0.73127780738E+01  0.85695413635E+02  0.98251728389E+02  0.00000000000E+00 0.  1.
<mgrwt>
<rscale>  0 0.13837272E+04</rscale>
<asrwt>0</asrwt>
<pdfrwt beam="1">  1        1 0.13456859E+00 0.13837272E+04</pdfrwt>
<pdfrwt beam="2">  1       -1 0.84191951E-01 0.13837272E+04</pdfrwt>
<totfact> 0.26066276E+01</totfact>
</mgrwt>
</event>
<event>
12    3  0.4688899E-008  0.2012216E+04  0.7818608E-02  0.8600930E-01
         -2   -1    0    0    0  501 -0.00000000000E+00  0.00000000000E+00  0.88155832514E+03  0.88155832514E+03  0.00000000000E+00 0.  1.
          2   -1    0    0  501    0  0.00000000000E+00 -0.00000000000E+00 -0.11482549000E+04  0.11482549000E+04  0.00000000000E+00 0. -1.
         23    2    1    2    0    0  0.11456966146E+03 -0.41294692783E+03 -0.78689486043E+03  0.90108984208E+03  0.95435892671E+02 0.  0.
        254    2    1    2    0    0 -0.11456966146E+03  0.41294692783E+03  0.52019828560E+03  0.11287233830E+04  0.90540534927E+03 0.  0.
         23    2    4    4    0    0 -0.41633469890E+03  0.36838172663E+03  0.55910677162E+02  0.56530800061E+03  0.86066565582E+02 0.  0.
         23    2    4    4    0    0  0.30176503744E+03  0.44565201198E+02  0.46428760844E+03  0.56341538241E+03  0.93945275565E+02 0.  0.
          3    1    3    3  502    0  0.11237564260E+03 -0.34692506318E+03 -0.71995265765E+03  0.80704220073E+03  0.00000000000E+00 0. -1.
         -3    1    3    3    0  502  0.21940188640E+01 -0.66021864648E+02 -0.66942202776E+02  0.94047641346E+02  0.00000000000E+00 0.  1.
         13    1    5    5    0    0 -0.40099846593E+03  0.32387361787E+03  0.51896085948E+02  0.51806089774E+03  0.00000000000E+00 0.  1.
        -13    1    5    5    0    0 -0.15336232968E+02  0.44508108757E+02  0.40145912137E+01  0.47247102867E+02  0.00000000000E+00 0. -1.
          3    1    6    6  503    0 -0.40727773210E+01  0.74290305448E+01  0.28437927177E+02  0.29673114297E+02  0.00000000000E+00 0. -1.
         -3    1    6    6    0  503  0.30583781476E+03  0.37136170653E+02  0.43584968127E+03  0.53374226811E+03  0.00000000000E+00 0.  1.
<mgrwt>
<rscale>  0 0.20122164E+04</rscale>
<asrwt>0</asrwt>
<pdfrwt beam="1">  1        2 0.17665460E+00 0.20122164E+04</pdfrwt>
<pdfrwt beam="2">  1       -2 0.13562436E+00 0.20122164E+04</pdfrwt>
<totfact> 0.73654079E+00</totfact>
</mgrwt>
</event>
<event>
12    3  0.4688899E-008  0.2603172E+04  0.7818608E-02  0.8367124E-01
         -1   -1    0    0    0  501 -0.00000000000E+00  0.00000000000E+00  0.80201239797E+03  0.80201239797E+03  0.00000000000E+00 0. -1.
          1   -1    0    0  501    0  0.00000000000E+00 -0.00000000000E+00 -0.21123444447E+04  0.21123444447E+04  0.00000000000E+00 0.  1.
         23    2    1    2    0    0  0.93621879349E+03 -0.44194499471E+03 -0.11261940193E+04  0.15325307265E+04  0.92284617924E+02 0.  0.
        254    2    1    2    0    0 -0.93621879349E+03  0.44194499471E+03 -0.18413802744E+03  0.13818261163E+04  0.89650186547E+03 0.  0.
         23    2    4    4    0    0 -0.72675699076E+03  0.19469960553E+03 -0.50962003574E+03  0.91337945020E+03  0.92009669128E+02 0.  0.
         23    2    4    4    0    0 -0.20946180274E+03  0.24724538918E+03  0.32548200830E+03  0.46844666606E+03  0.92191170606E+02 0.  0.
          1    1    3    3  502    0  0.74524514728E+02 -0.15786241970E+02 -0.60175996126E+02  0.97078624015E+02  0.00000000000E+00 0. -1.
         -1    1    3    3    0  502  0.86169427877E+03 -0.42615875274E+03 -0.10660180232E+04  0.14354521024E+04  0.00000000000E+00 0.  1.
         13    1    5    5    0    0 -0.59473287021E+03  0.12889174986E+03 -0.38351061860E+03  0.71930568235E+03  0.00000000000E+00 0. -1.
        -13    1    5    5    0    0 -0.13202412055E+03  0.65807855669E+02 -0.12610941715E+03  0.19407376785E+03  0.00000000000E+00 0.  1.
          2    1    6    6  503    0 -0.18534912343E+02 -0.90315838827E+00  0.42669225417E+02  0.46529791191E+02  0.00000000000E+00 0.  1.
         -2    1    6    6    0  503 -0.19092689040E+03  0.24814854756E+03  0.28281278288E+03  0.42191687487E+03  0.00000000000E+00 0. -1.
<mgrwt>
<rscale>  0 0.26031722E+04</rscale>
<asrwt>0</asrwt>
<pdfrwt beam="1">  1        1 0.32497606E+00 0.26031722E+04</pdfrwt>
<pdfrwt beam="2">  1       -1 0.12338652E+00 0.26031722E+04</pdfrwt>
<totfact> 0.12718646E+00</totfact>
</mgrwt>
</event>
<event>
12    3  0.4688899E-008  0.2243776E+04  0.7818608E-02  0.8500425E-01
         -2   -1    0    0    0  501 -0.00000000000E+00  0.00000000000E+00  0.12699330198E+04  0.12699330198E+04  0.00000000000E+00 0.  1.
          2   -1    0    0  501    0  0.00000000000E+00 -0.00000000000E+00 -0.99110157890E+03  0.99110157890E+03  0.00000000000E+00 0. -1.
         23    2    1    2    0    0 -0.36483801796E+03  0.71331104074E+03  0.61363645493E+03  0.10131364499E+04  0.89310397963E+02 0.  0.
        254    2    1    2    0    0  0.36483801796E+03 -0.71331104074E+03 -0.33480501404E+03  0.12478981488E+04  0.89623432875E+03 0.  0.
         23    2    4    4    0    0  0.35561839352E+03 -0.16749677287E+03 -0.52530839116E+03  0.66228276446E+03  0.90277037757E+02 0.  0.
         23    2    4    4    0    0  0.92196244404E+01 -0.54581426788E+03  0.19050337712E+03  0.58561538429E+03  0.93035612157E+02 0.  0.
          1    1    3    3  502    0 -0.17206589021E+03  0.41379339708E+03  0.30786430025E+03  0.54370219184E+03  0.00000000000E+00 0. -1.
         -1    1    3    3    0  502 -0.19277212776E+03  0.29951764367E+03  0.30577215468E+03  0.46943425811E+03  0.00000000000E+00 0.  1.
         13    1    5    5    0    0  0.38000184181E+02 -0.67496014633E+01 -0.18120104197E+02  0.42636947520E+02  0.00000000000E+00 0. -1.
        -13    1    5    5    0    0  0.31761820934E+03 -0.16074717140E+03 -0.50718828696E+03  0.61964581694E+03  0.00000000000E+00 0.  1.
          2    1    6    6  503    0  0.22861599289E+02 -0.21128322278E+03  0.31041877598E+02  0.21477162549E+03  0.00000000000E+00 0. -1.
         -2    1    6    6    0  503 -0.13641974848E+02 -0.33453104510E+03  0.15946149953E+03  0.37084375880E+03  0.00000000000E+00 0.  1.
<mgrwt>
<rscale>  0 0.22437759E+04</rscale>
<asrwt>0</asrwt>
<pdfrwt beam="1">  1        2 0.15247717E+00 0.22437759E+04</pdfrwt>
<pdfrwt beam="2">  1       -2 0.19537431E+00 0.22437759E+04</pdfrwt>
<totfact> 0.33164050E+00</totfact>
</mgrwt>
</event>
<event>
12    3  0.4688899E-008  0.1411380E+04  0.7818608E-02  0.8945622E-01
         -2   -1    0    0    0  501 -0.00000000000E+00  0.00000000000E+00  0.87228585479E+03  0.87228585479E+03  0.00000000000E+00 0.  1.
          2   -1    0    0  501    0  0.00000000000E+00 -0.00000000000E+00 -0.57091210201E+03  0.57091210201E+03  0.00000000000E+00 0. -1.
         23    2    1    2    0    0 -0.24745038349E+02 -0.19012655594E+03 -0.33267570622E+03  0.39420288834E+03  0.89232098878E+02 0.  0.
        254    2    1    2    0    0  0.24745038349E+02  0.19012655594E+03  0.63404945900E+03  0.10489950685E+04  0.81339505347E+03 0.  0.
         23    2    4    4    0    0 -0.21499197926E+03  0.35193929852E+03  0.61378086549E+03  0.74506862641E+03  0.91200253515E+02 0.  0.
         23    2    4    4    0    0  0.23973701761E+03 -0.16181274258E+03  0.20268593514E+02  0.30392644205E+03  0.91122253167E+02 0.  0.
          2    1    3    3  502    0 -0.51872597182E+02 -0.73546637361E+02 -0.16847126687E+03  0.19100377475E+03  0.00000000000E+00 0. -1.
         -2    1    3    3    0  502  0.27127558833E+02 -0.11657991858E+03 -0.16420443935E+03  0.20319911360E+03  0.00000000000E+00 0.  1.
         13    1    5    5    0    0 -0.11996376351E+03  0.25582059172E+03  0.46451207581E+03  0.54369747864E+03  0.00000000000E+00 0.  1.
        -13    1    5    5    0    0 -0.95028215750E+02  0.96118706794E+02  0.14926878967E+03  0.20137114777E+03  0.00000000000E+00 0. -1.
          3    1    6    6  503    0  0.20464867149E+03 -0.13806882703E+03  0.50369904862E+02  0.25195477185E+03  0.00000000000E+00 0. -1.
         -3    1    6    6    0  503  0.35088346113E+02 -0.23743915544E+02 -0.30101311349E+02  0.51971670199E+02  0.00000000000E+00 0.  1.
<mgrwt>
<rscale>  0 0.14113802E+04</rscale>
<asrwt>0</asrwt>
<pdfrwt beam="1">  1        2 0.87832631E-01 0.14113802E+04</pdfrwt>
<pdfrwt beam="2">  1       -2 0.13419782E+00 0.14113802E+04</pdfrwt>
<totfact> 0.20501685E+01</totfact>
</mgrwt>
</event>
<event>
12    3  0.4688899E-008  0.1189184E+04  0.7818608E-02  0.9122376E-01
         -2   -1    0    0    0  501 -0.00000000000E+00  0.00000000000E+00  0.78348915633E+02  0.78348915633E+02  0.00000000000E+00 0.  1.
          2   -1    0    0  501    0  0.00000000000E+00 -0.00000000000E+00 -0.45123778911E+04  0.45123778911E+04  0.00000000000E+00 0. -1.
         23    2    1    2    0    0 -0.10068452077E+03 -0.19912753706E+03 -0.12956286345E+04  0.13176106346E+04  0.87493297225E+02 0.  0.
        254    2    1    2    0    0  0.10068452077E+03  0.19912753706E+03 -0.31384003410E+04  0.32731161722E+04  0.90218824397E+03 0.  0.
         23    2    4    4    0    0 -0.27895088117E+03  0.38403326111E+03 -0.19564199327E+04  0.20150127932E+04  0.86037571870E+02 0.  0.
         23    2    4    4    0    0  0.37963540194E+03 -0.18490572405E+03 -0.11819804082E+04  0.12581033790E+04  0.86216364743E+02 0.  0.
          1    1    3    3  502    0 -0.50943870767E+02 -0.13878867986E+03 -0.10349310400E+04  0.10454376276E+04  0.00000000000E+00 0. -1.
         -1    1    3    3    0  502 -0.49740650000E+02 -0.60338857196E+02 -0.26069759450E+03  0.27217300698E+03  0.00000000000E+00 0.  1.
         13    1    5    5    0    0 -0.57056528167E+02  0.39482381242E+02 -0.21055863334E+03  0.22169628754E+03  0.00000000000E+00 0. -1.
        -13    1    5    5    0    0 -0.22189435300E+03  0.34455087987E+03 -0.17458612994E+04  0.17933165057E+04  0.00000000000E+00 0.  1.
          3    1    6    6  503    0 -0.35815719969E+01 -0.82309438234E+01 -0.22778603287E+02  0.24483481409E+02  0.00000000000E+00 0. -1.
         -3    1    6    6    0  503  0.38321697394E+03 -0.17667478023E+03 -0.11592018049E+04  0.12336198976E+04  0.00000000000E+00 0.  1.
<mgrwt>
<rscale>  0 0.11891845E+04</rscale>
<asrwt>0</asrwt>
<pdfrwt beam="1">  1        2 0.69421184E+00 0.11891845E+04</pdfrwt>
<pdfrwt beam="2">  1       -2 0.12053682E-01 0.11891845E+04</pdfrwt>
<totfact> 0.63488193E+00</totfact>
</mgrwt>
</event>
<event>
12    3  0.4688899E-008  0.1105421E+04  0.7818608E-02  0.9199924E-01
         -1   -1    0    0    0  501 -0.00000000000E+00  0.00000000000E+00  0.18618301196E+03  0.18618301196E+03  0.00000000000E+00 0.  1.
          1   -1    0    0  501    0  0.00000000000E+00 -0.00000000000E+00 -0.16407987702E+04  0.16407987702E+04  0.00000000000E+00 0. -1.
         23    2    1    2    0    0 -0.17381848168E+03 -0.96422200406E+01 -0.18660490012E+03  0.26452657166E+03  0.69620983804E+02 0.  0.
        254    2    1    2    0    0  0.17381848168E+03  0.96422200406E+01 -0.12680108581E+04  0.15624552105E+04  0.89616344016E+03 0.  0.
         23    2    4    4    0    0 -0.26691179576E+03 -0.16765983315E+03 -0.18648330115E+03  0.37753275090E+03  0.91669133436E+02 0.  0.
         23    2    4    4    0    0  0.44073027744E+03  0.17730205320E+03 -0.10815275570E+04  0.11849224596E+04  0.93060105448E+02 0.  0.
          1    1    3    3  502    0 -0.48522297504E+02  0.27842281831E+02 -0.67155752062E+02  0.87404239300E+02  0.00000000000E+00 0. -1.
         -1    1    3    3    0  502 -0.12529618418E+03 -0.37484501871E+02 -0.11944914806E+03  0.17712233236E+03  0.00000000000E+00 0.  1.
         13    1    5    5    0    0 -0.25478673519E+03 -0.15896637708E+03 -0.19710613646E+03  0.35921778700E+03  0.00000000000E+00 0.  1.
        -13    1    5    5    0    0 -0.12125060569E+02 -0.86934560760E+01  0.10622835312E+02  0.18314963894E+02  0.00000000000E+00 0. -1.
          2    1    6    6  503    0  0.14592696417E+02 -0.10329431036E+02 -0.52340418902E+02  0.55309704258E+02  0.00000000000E+00 0. -1.
         -2    1    6    6    0  503  0.42613758103E+03  0.18763148423E+03 -0.10291871381E+04  0.11296127553E+04  0.00000000000E+00 0.  1.
<mgrwt>
<rscale>  0 0.11054209E+04</rscale>
<asrwt>0</asrwt>
<pdfrwt beam="1">  1        1 0.25243058E+00 0.11054209E+04</pdfrwt>
<pdfrwt beam="2">  1       -1 0.28643541E-01 0.11054209E+04</pdfrwt>
<totfact> 0.57688510E+01</totfact>
</mgrwt>
</event>
<event>
12    3  0.4688899E-008  0.1537227E+04  0.7818608E-02  0.8860068E-01
          1   -1    0    0  501    0  0.00000000000E+00  0.00000000000E+00  0.84109781311E+03  0.84109781311E+03  0.00000000000E+00 0. -1.
         -1   -1    0    0    0  501 -0.00000000000E+00 -0.00000000000E+00 -0.70237570064E+03  0.70237570064E+03  0.00000000000E+00 0.  1.
         23    2    1    2    0    0  0.24617657202E+03 -0.39872825878E+03  0.21805032804E+03  0.52472038896E+03  0.90545083084E+02 0.  0.
        254    2    1    2    0    0 -0.24617657202E+03  0.39872825878E+03 -0.79328215569E+02  0.10187531248E+04  0.90109812703E+03 0.  0.
         23    2    4    4    0    0 -0.31616768166E+03 -0.16949344106E+03  0.14218922252E+03  0.39650824351E+03  0.91164591143E+02 0.  0.
         23    2    4    4    0    0  0.69991109645E+02  0.56822169984E+03 -0.22151743809E+03  0.62224488129E+03  0.10170575848E+03 0.  0.
          1    1    3    3  502    0  0.22380294829E+03 -0.29944057833E+03  0.18890262065E+03  0.41885154852E+03  0.00000000000E+00 0. -1.
         -1    1    3    3    0  502  0.22373623726E+02 -0.99287680458E+02  0.29147707381E+02  0.10586884043E+03  0.00000000000E+00 0.  1.
         13    1    5    5    0    0 -0.12407969905E+03 -0.10751859315E+03  0.93270833601E+02  0.18882655531E+03  0.00000000000E+00 0. -1.
        -13    1    5    5    0    0 -0.19208798262E+03 -0.61974847904E+02  0.48918388922E+02  0.20768168820E+03  0.00000000000E+00 0.  1.
          3    1    6    6  503    0  0.24624467331E+02  0.30008420857E+03 -0.16897545397E+03  0.34526743355E+03  0.00000000000E+00 0. -1.
         -3    1    6    6    0  503  0.45366642314E+02  0.26813749127E+03 -0.52541984121E+02  0.27697744774E+03  0.00000000000E+00 0.  1.
<mgrwt>
<rscale>  0 0.15372269E+04</rscale>
<asrwt>0</asrwt>
<pdfrwt beam="1">  1        1 0.12939966E+00 0.15372269E+04</pdfrwt>
<pdfrwt beam="2">  1       -1 0.10805780E+00 0.15372269E+04</pdfrwt>
<totfact> 0.15649119E+01</totfact>
</mgrwt>
</event>
<event>
12    3  0.4688899E-008  0.2235366E+04  0.7818608E-02  0.8503851E-01
          2   -1    0    0  501    0  0.00000000000E+00  0.00000000000E+00  0.47384335639E+03  0.47384335639E+03  0.00000000000E+00 0. -1.
         -2   -1    0    0    0  501 -0.00000000000E+00 -0.00000000000E+00 -0.26363463774E+04  0.26363463774E+04  0.00000000000E+00 0.  1.
         23    2    1    2    0    0 -0.43879790657E+03 -0.81967857969E+03 -0.78140090665E+03  0.12180194335E+04  0.92560179178E+02 0.  0.
        254    2    1    2    0    0  0.43879790657E+03  0.81967857969E+03 -0.13811021143E+04  0.18921703002E+04  0.89913781923E+03 0.  0.
         23    2    4    4    0    0  0.46999981352E+03  0.36328610883E+03 -0.21760669493E+03  0.63908171336E+03  0.90532541608E+02 0.  0.
         23    2    4    4    0    0 -0.31201906957E+02  0.45639247087E+03 -0.11634954194E+04  0.12530885869E+04  0.85098584419E+02 0.  0.
          4    1    3    3  502    0 -0.22831498384E+03 -0.42187632743E+03 -0.46326809551E+03  0.66687682207E+03  0.00000000000E+00 0.  1.
         -4    1    3    3    0  502 -0.21048292272E+03 -0.39780225226E+03 -0.31813281113E+03  0.55114261147E+03  0.00000000000E+00 0. -1.
         13    1    5    5    0    0  0.15564271091E+03  0.81841714575E+02 -0.34867539509E+02  0.17927204192E+03  0.00000000000E+00 0. -1.
        -13    1    5    5    0    0  0.31435710261E+03  0.28144439425E+03 -0.18273915542E+03  0.45980967143E+03  0.00000000000E+00 0.  1.
          3    1    6    6  503    0  0.13459649558E+02  0.24118401733E+03 -0.52732615398E+03  0.58002048675E+03  0.00000000000E+00 0. -1.
         -3    1    6    6    0  503 -0.44661556515E+02  0.21520845353E+03 -0.63616926544E+03  0.67306810011E+03  0.00000000000E+00 0.  1.
<mgrwt>
<rscale>  0 0.22353659E+04</rscale>
<asrwt>0</asrwt>
<pdfrwt beam="1">  1        2 0.72898979E-01 0.22353659E+04</pdfrwt>
<pdfrwt beam="2">  1       -2 0.40559175E+00 0.22353659E+04</pdfrwt>
<totfact> 0.40802698E-01</totfact>
</mgrwt>
</event>
<event>
12    3  0.4688899E-008  0.3379504E+04  0.7818608E-02  0.8142955E-01
         -1   -1    0    0    0  501 -0.00000000000E+00  0.00000000000E+00  0.12148887903E+04  0.12148887903E+04  0.00000000000E+00 0.  1.
          1   -1    0    0  501    0  0.00000000000E+00 -0.00000000000E+00 -0.23502250596E+04  0.23502250596E+04  0.00000000000E+00 0. -1.
         23    2    1    2    0    0 -0.90646011255E+03  0.12381495173E+04 -0.20235318848E+03  0.15504900853E+04  0.91588911197E+02 0.  0.
        254    2    1    2    0    0  0.90646011255E+03 -0.12381495173E+04 -0.93298308078E+03  0.20146237646E+04  0.91299908047E+03 0.  0.
         23    2    4    4    0    0  0.10802975529E+04 -0.10972212223E+04 -0.78075977080E+03  0.17289949163E+04  0.94341863461E+02 0.  0.
         23    2    4    4    0    0 -0.17383744040E+03 -0.14092829501E+03 -0.15222330998E+03  0.28562884832E+03  0.91277942963E+02 0.  0.
          4    1    3    3  502    0 -0.70488421741E+03  0.92896855486E+03 -0.18751887026E+03  0.11811044249E+04  0.00000000000E+00 0.  1.
         -4    1    3    3    0  502 -0.20157589514E+03  0.30918096248E+03 -0.14834318224E+02  0.36938566033E+03  0.00000000000E+00 0. -1.
         13    1    5    5    0    0  0.96888102682E+02 -0.11360935926E+03 -0.10568863520E+03  0.18293298927E+03  0.00000000000E+00 0. -1.
        -13    1    5    5    0    0  0.98340945027E+03 -0.98361186307E+03 -0.67507113560E+03  0.15460619270E+04  0.00000000000E+00 0.  1.
          2    1    6    6  503    0 -0.40058093824E+02 -0.15652456769E+02  0.60978808460E+01  0.43437707519E+02  0.00000000000E+00 0. -1.
         -2    1    6    6    0  503 -0.13377934657E+03 -0.12527583824E+03 -0.15832119082E+03  0.24219114080E+03  0.00000000000E+00 0.  1.
<mgrwt>
<rscale>  0 0.33795042E+04</rscale>
<asrwt>0</asrwt>
<pdfrwt beam="1">  1        1 0.36157308E+00 0.33795042E+04</pdfrwt>
<pdfrwt beam="2">  1       -1 0.18690597E+00 0.33795042E+04</pdfrwt>
<totfact> 0.26320675E-01</totfact>
</mgrwt>
</event>
<event>
12    3  0.4688899E-008  0.2272440E+04  0.7818608E-02  0.8488867E-01
         -2   -1    0    0    0  501 -0.00000000000E+00  0.00000000000E+00  0.96681484658E+03  0.96681484658E+03  0.00000000000E+00 0.  1.
          2   -1    0    0  501    0  0.00000000000E+00 -0.00000000000E+00 -0.13353085621E+04  0.13353085621E+04  0.00000000000E+00 0. -1.
         23    2    1    2    0    0 -0.68937974926E+03  0.56027330880E+03  0.21172929884E+03  0.91780178765E+03  0.91543466075E+02 0.  0.
        254    2    1    2    0    0  0.68937974926E+03 -0.56027330880E+03 -0.58022301431E+03  0.13843216210E+04  0.88912146793E+03 0.  0.
         23    2    4    4    0    0  0.65107430461E+03 -0.47552222311E+03 -0.79150961750E+03  0.11335362999E+04  0.91640241118E+02 0.  0.
         23    2    4    4    0    0  0.38305444650E+02 -0.84751085695E+02  0.21128660319E+03  0.25078532109E+03  0.97985687569E+02 0.  0.
          4    1    3    3  502    0 -0.63258558548E+02  0.62013593429E+02 -0.51972312599E+01  0.88737490455E+02  0.00000000000E+00 0. -1.
         -4    1    3    3    0  502 -0.62612119071E+03  0.49825971537E+03  0.21692653010E+03  0.82906429719E+03  0.00000000000E+00 0.  1.
         13    1    5    5    0    0  0.29394162693E+03 -0.27109450886E+03 -0.38324655219E+03  0.55386986968E+03  0.00000000000E+00 0.  1.
        -13    1    5    5    0    0  0.35713267768E+03 -0.20442771425E+03 -0.40826306532E+03  0.57966643022E+03  0.00000000000E+00 0. -1.
          4    1    6    6  503    0 -0.17637981330E+02 -0.47581890317E+02  0.33686654131E+02  0.60909156439E+02  0.00000000000E+00 0. -1.
         -4    1    6    6    0  503  0.55943425980E+02 -0.37169195377E+02  0.17759994906E+03  0.18987616465E+03  0.00000000000E+00 0.  1.
<mgrwt>
<rscale>  0 0.22724402E+04</rscale>
<asrwt>0</asrwt>
<pdfrwt beam="1">  1        2 0.20543209E+00 0.22724402E+04</pdfrwt>
<pdfrwt beam="2">  1       -2 0.14874075E+00 0.22724402E+04</pdfrwt>
<totfact> 0.43903843E+00</totfact>
</mgrwt>
</event>
<event>
12    3  0.4688899E-008  0.1994276E+04  0.7818608E-02  0.8609301E-01
         -2   -1    0    0    0  501 -0.00000000000E+00  0.00000000000E+00  0.63264258129E+03  0.63264258129E+03  0.00000000000E+00 0.  1.
          2   -1    0    0  501    0  0.00000000000E+00 -0.00000000000E+00 -0.15716367160E+04  0.15716367160E+04  0.00000000000E+00 0. -1.
         23    2    1    2    0    0 -0.33946285012E+03 -0.47988687087E+03 -0.95865780369E+03  0.11282702876E+04  0.91883741258E+02 0.  0.
        254    2    1    2    0    0  0.33946285012E+03  0.47988687087E+03  0.19663669021E+02  0.10760090096E+04  0.90104511180E+03 0.  0.
         23    2    4    4    0    0  0.59080895024E+02 -0.14311397379E+03 -0.27266353313E+03  0.32707213229E+03  0.93051683318E+02 0.  0.
         23    2    4    4    0    0  0.28038195510E+03  0.62300084466E+03  0.29232720215E+03  0.74893687735E+03  0.93312163949E+02 0.  0.
          1    1    3    3  502    0 -0.31937556662E+03 -0.40732481305E+03 -0.80309894803E+03  0.95544867796E+03  0.00000000000E+00 0. -1.
         -1    1    3    3    0  502 -0.20087283504E+02 -0.72562057815E+02 -0.15555885565E+03  0.17282160966E+03  0.00000000000E+00 0.  1.
         13    1    5    5    0    0 -0.23957367813E+02 -0.20788460248E+02 -0.35575181384E+02  0.47662449397E+02  0.00000000000E+00 0. -1.
        -13    1    5    5    0    0  0.83038262838E+02 -0.12232551354E+03 -0.23708835175E+03  0.27940968289E+03  0.00000000000E+00 0.  1.
          2    1    6    6  503    0  0.11029408877E+03  0.35613427630E+03  0.16808265909E+03  0.40895988686E+03  0.00000000000E+00 0.  1.
         -2    1    6    6    0  503  0.17008786633E+03  0.26686656836E+03  0.12424454306E+03  0.33997699049E+03  0.00000000000E+00 0. -1.
<mgrwt>
<rscale>  0 0.19942761E+04</rscale>
<asrwt>0</asrwt>
<pdfrwt beam="1">  1        2 0.24179026E+00 0.19942761E+04</pdfrwt>
<pdfrwt beam="2">  1       -2 0.97329629E-01 0.19942761E+04</pdfrwt>
<totfact> 0.94681049E+00</totfact>
</mgrwt>
</event>
<event>
12    3  0.4688899E-008  0.1291080E+04  0.7818608E-02  0.9036669E-01
         -2   -1    0    0    0  501 -0.00000000000E+00  0.00000000000E+00  0.10842283670E+04  0.10842283670E+04  0.00000000000E+00 0.  1.
          2   -1    0    0  501    0  0.00000000000E+00 -0.00000000000E+00 -0.38434862238E+03  0.38434862238E+03  0.00000000000E+00 0. -1.
         23    2    1    2    0    0 -0.80007693988E+02  0.15864984130E+03 -0.13105392307E+03  0.23475785942E+03  0.79781693191E+02 0.  0.
        254    2    1    2    0    0  0.80007693988E+02 -0.15864984130E+03  0.83093366767E+03  0.12338191299E+04  0.89458810752E+03 0.  0.
         23    2    4    4    0    0  0.14194493329E+03 -0.43979846222E+03  0.15976340567E+03  0.49781165247E+03  0.93386530509E+02 0.  0.
         23    2    4    4    0    0 -0.61937239298E+02  0.28114862092E+03  0.67117026201E+03  0.73600747748E+03  0.91415084341E+02 0.  0.
          2    1    3    3  502    0 -0.56238714372E+02  0.75673870255E+02 -0.11193674006E+03  0.14635286608E+03  0.00000000000E+00 0. -1.
         -2    1    3    3    0  502 -0.23768979616E+02  0.82975971044E+02 -0.19117183009E+02  0.88404993348E+02  0.00000000000E+00 0.  1.
         13    1    5    5    0    0  0.12092524506E+02 -0.71577448004E+02  0.61622039757E+02  0.95219934864E+02  0.00000000000E+00 0.  1.
        -13    1    5    5    0    0  0.12985240878E+03 -0.36822101422E+03  0.98141365909E+02  0.40259171760E+03  0.00000000000E+00 0. -1.
          3    1    6    6  503    0 -0.37912920023E+01  0.85888368864E+02  0.30600973978E+03  0.31785711671E+03  0.00000000000E+00 0. -1.
         -3    1    6    6    0  503 -0.58145947296E+02  0.19526025206E+03  0.36516052223E+03  0.41815036077E+03  0.00000000000E+00 0.  1.
<mgrwt>
<rscale>  0 0.12910797E+04</rscale>
<asrwt>0</asrwt>
<pdfrwt beam="1">  1        2 0.59130558E-01 0.12910797E+04</pdfrwt>
<pdfrwt beam="2">  1       -2 0.16680436E+00 0.12910797E+04</pdfrwt>
<totfact> 0.18307116E+01</totfact>
</mgrwt>
</event>
<event>
12    3  0.4688899E-008  0.2248235E+04  0.7818608E-02  0.8498616E-01
          1   -1    0    0  501    0  0.00000000000E+00  0.00000000000E+00  0.11294491728E+04  0.11294491728E+04  0.00000000000E+00 0. -1.
         -1   -1    0    0    0  501 -0.00000000000E+00 -0.00000000000E+00 -0.11188112663E+04  0.11188112663E+04  0.00000000000E+00 0.  1.
         23    2    1    2    0    0  0.26867569743E+03 -0.27676334403E+03 -0.85223846846E+03  0.93988963037E+03  0.91090785269E+02 0.  0.
        254    2    1    2    0    0 -0.26867569743E+03  0.27676334403E+03  0.86287637494E+03  0.13083708087E+04  0.90470655771E+03 0.  0.
         23    2    4    4    0    0 -0.46313469295E+03  0.67173654563E+02  0.88846833714E+03  0.10084483059E+04  0.92660432908E+02 0.  0.
         23    2    4    4    0    0  0.19445899552E+03  0.20958968947E+03 -0.25591962196E+02  0.29992250281E+03  0.86927672766E+02 0.  0.
          1    1    3    3  502    0  0.84056400408E+02 -0.11459761751E+03 -0.41048728683E+03  0.43439372122E+03  0.00000000000E+00 0. -1.
         -1    1    3    3    0  502  0.18461929702E+03 -0.16216572652E+03 -0.44175118163E+03  0.50549590915E+03  0.00000000000E+00 0.  1.
         13    1    5    5    0    0 -0.19373198776E+03 -0.50596962949E+01  0.43253744895E+03  0.47396869976E+03  0.00000000000E+00 0. -1.
        -13    1    5    5    0    0 -0.26940270519E+03  0.72233350858E+02  0.45593088819E+03  0.53447960610E+03  0.00000000000E+00 0.  1.
          1    1    6    6  503    0  0.83977619154E+01  0.18371955539E+02  0.20938264453E+02  0.29094021273E+02  0.00000000000E+00 0. -1.
         -1    1    6    6    0  503  0.18606123360E+03  0.19121773393E+03 -0.46530226649E+02  0.27082848154E+03  0.00000000000E+00 0.  1.
<mgrwt>
<rscale>  0 0.22482353E+04</rscale>
<asrwt>0</asrwt>
<pdfrwt beam="1">  1        1 0.17376141E+00 0.22482353E+04</pdfrwt>
<pdfrwt beam="2">  1       -1 0.17212481E+00 0.22482353E+04</pdfrwt>
<totfact> 0.25971749E+00</totfact>
</mgrwt>
</event>
<event>
12    3  0.4688899E-008  0.2592263E+04  0.7818608E-02  0.8370834E-01
         -1   -1    0    0    0  501 -0.00000000000E+00  0.00000000000E+00  0.53199294235E+03  0.53199294235E+03  0.00000000000E+00 0.  1.
          1   -1    0    0  501    0  0.00000000000E+00 -0.00000000000E+00 -0.31578562040E+04  0.31578562040E+04  0.00000000000E+00 0. -1.
         23    2    1    2    0    0 -0.11225892065E+03 -0.12554311509E+03  0.46421089753E+03  0.49797843022E+03  0.64246560722E+02 0.  0.
        254    2    1    2    0    0  0.11225892065E+03  0.12554311509E+03 -0.30900741592E+04  0.31918707162E+04  0.78173986735E+03 0.  0.
         23    2    4    4    0    0  0.15129227800E+03  0.39655617414E+03 -0.24712546848E+04  0.25091127343E+04  0.91656117326E+02 0.  0.
         23    2    4    4    0    0 -0.39033357351E+02 -0.27101305905E+03 -0.61881947444E+03  0.68275798185E+03  0.90825319514E+02 0.  0.
          1    1    3    3  502    0 -0.85861006945E+02 -0.80626152636E+02  0.23430577166E+03  0.26224393917E+03  0.00000000000E+00 0. -1.
         -1    1    3    3    0  502 -0.26397913700E+02 -0.44916962458E+02  0.22990512588E+03  0.23573449105E+03  0.00000000000E+00 0.  1.
         13    1    5    5    0    0  0.13640214018E+03  0.39312120794E+03 -0.23138693241E+04  0.23509872558E+04  0.00000000000E+00 0. -1.
        -13    1    5    5    0    0  0.14890137816E+02  0.34349662054E+01 -0.15738536067E+03  0.15812547850E+03  0.00000000000E+00 0.  1.
          4    1    6    6  503    0  0.26878092305E+00 -0.21313374440E+02 -0.13709693778E+03  0.13874401797E+03  0.00000000000E+00 0. -1.
         -4    1    6    6    0  503 -0.39302138274E+02 -0.24969968461E+03 -0.48172253666E+03  0.54401396388E+03  0.00000000000E+00 0.  1.
<mgrwt>
<rscale>  0 0.25922633E+04</rscale>
<asrwt>0</asrwt>
<pdfrwt beam="1">  1        1 0.48582403E+00 0.25922633E+04</pdfrwt>
<pdfrwt beam="2">  1       -1 0.81845069E-01 0.25922633E+04</pdfrwt>
<totfact> 0.59843257E-01</totfact>
</mgrwt>
</event>
<event>
12    3  0.4688899E-008  0.2816579E+04  0.7818608E-02  0.8298140E-01
         -2   -1    0    0    0  501 -0.00000000000E+00  0.00000000000E+00  0.11422184875E+04  0.11422184875E+04  0.00000000000E+00 0.  1.
          2   -1    0    0  501    0  0.00000000000E+00 -0.00000000000E+00 -0.17363399953E+04  0.17363399953E+04  0.00000000000E+00 0. -1.
         23    2    1    2    0    0 -0.34762321842E+03 -0.97664363595E+03  0.47174039016E+03  0.11425559235E+04  0.90666140775E+02 0.  0.
        254    2    1    2    0    0  0.34762321842E+03  0.97664363595E+03 -0.10658618979E+04  0.17360025593E+04  0.89608515591E+03 0.  0.
         23    2    4    4    0    0  0.18044379275E+03  0.11017568642E+04 -0.75517377345E+03  0.13507014620E+04  0.87629111427E+02 0.  0.
         23    2    4    4    0    0  0.16717942567E+03 -0.12511322829E+03 -0.31068812450E+03  0.38530109724E+03  0.91255381026E+02 0.  0.
          1    1    3    3  502    0 -0.28743848245E+03 -0.88767504268E+03  0.42900786358E+03  0.10269545314E+04  0.00000000000E+00 0.  1.
         -1    1    3    3    0  502 -0.60184735974E+02 -0.88968593271E+02  0.42732526580E+02  0.11560139212E+03  0.00000000000E+00 0. -1.
         13    1    5    5    0    0  0.14991503547E+03  0.10391890486E+04 -0.70043069122E+03  0.12621376905E+04  0.00000000000E+00 0. -1.
        -13    1    5    5    0    0  0.30528757277E+02  0.62567815683E+02 -0.54743082223E+02  0.88563771552E+02  0.00000000000E+00 0.  1.
          1    1    6    6  503    0  0.12447934914E+03 -0.45254479069E+02 -0.22224330724E+03  0.25871830985E+03  0.00000000000E+00 0. -1.
         -1    1    6    6    0  503  0.42700076534E+02 -0.79858749221E+02 -0.88444817259E+02  0.12658278739E+03  0.00000000000E+00 0.  1.
<mgrwt>
<rscale>  0 0.28165792E+04</rscale>
<asrwt>0</asrwt>
<pdfrwt beam="1">  1        2 0.26712923E+00 0.28165792E+04</pdfrwt>
<pdfrwt beam="2">  1       -2 0.17572592E+00 0.28165792E+04</pdfrwt>
<totfact> 0.15798264E+00</totfact>
</mgrwt>
</event>
<event>
12    3  0.4688899E-008  0.1652752E+04  0.7818608E-02  0.8788780E-01
          1   -1    0    0  501    0  0.00000000000E+00  0.00000000000E+00  0.35945659091E+03  0.35945659091E+03  0.00000000000E+00 0. -1.
         -1   -1    0    0    0  501 -0.00000000000E+00 -0.00000000000E+00 -0.18998038144E+04  0.18998038144E+04  0.00000000000E+00 0.  1.
         23    2    1    2    0    0  0.47475756637E+02  0.19692528152E+03  0.19357819323E+03  0.29359391723E+03  0.87700384091E+02 0.  0.
        254    2    1    2    0    0 -0.47475756637E+02 -0.19692528152E+03 -0.17339254167E+04  0.19656664880E+04  0.90350090072E+03 0.  0.
         23    2    4    4    0    0 -0.41233474517E+03 -0.25130418418E+03 -0.12972170467E+04  0.13872193312E+04  0.91824134520E+02 0.  0.
         23    2    4    4    0    0  0.36485898853E+03  0.54378902660E+02 -0.43670837003E+03  0.57844715683E+03  0.88361565312E+02 0.  0.
          4    1    3    3  502    0  0.54276188958E+02  0.19540989845E+03  0.19947477786E+03  0.28446637781E+03  0.00000000000E+00 0. -1.
         -4    1    3    3    0  502 -0.68004323215E+01  0.15153830688E+01 -0.58965846294E+01  0.91275394218E+01  0.00000000000E+00 0.  1.
         13    1    5    5    0    0  0.39707422980E+01  0.29150259391E+00 -0.22432422221E+02  0.22783005396E+02  0.00000000000E+00 0. -1.
        -13    1    5    5    0    0 -0.41630548747E+03 -0.25159568678E+03 -0.12747846244E+04  0.13644363258E+04  0.00000000000E+00 0.  1.
          1    1    6    6  503    0  0.36824631706E+03  0.51424350409E+02 -0.43719686091E+03  0.57392587417E+03  0.00000000000E+00 0.  1.
         -1    1    6    6    0  503 -0.33873285297E+01  0.29545522504E+01  0.48849088667E+00  0.45212826626E+01  0.00000000000E+00 0. -1.
<mgrwt>
<rscale>  0 0.16527516E+04</rscale>
<asrwt>0</asrwt>
<pdfrwt beam="1">  1        1 0.55301015E-01 0.16527516E+04</pdfrwt>
<pdfrwt beam="2">  1       -1 0.29227751E+00 0.16527516E+04</pdfrwt>
<totfact> 0.24516188E+00</totfact>
</mgrwt>
</event>
<event>
12    3  0.4688899E-008  0.1711420E+04  0.7818608E-02  0.8754878E-01
          2   -1    0    0  501    0  0.00000000000E+00  0.00000000000E+00  0.36085753848E+04  0.36085753848E+04  0.00000000000E+00 0. -1.
         -2   -1    0    0    0  501 -0.00000000000E+00 -0.00000000000E+00 -0.20291655828E+03  0.20291655828E+03  0.00000000000E+00 0.  1.
         23    2    1    2    0    0 -0.32518476870E+03 -0.62986385948E+02  0.23917422051E+04  0.24163330403E+04  0.92315587555E+02 0.  0.
        254    2    1    2    0    0  0.32518476870E+03  0.62986385948E+02  0.10139166215E+04  0.13951589028E+04  0.89929362839E+03 0.  0.
         23    2    4    4    0    0  0.52072108124E+03  0.29535352505E+02  0.22318775721E+03  0.57489456444E+03  0.93103188780E+02 0.  0.
         23    2    4    4    0    0 -0.19553631254E+03  0.33451033443E+02  0.79072886425E+03  0.82026433833E+03  0.90708471514E+02 0.  0.
          2    1    3    3  502    0 -0.30061404329E+03 -0.44930753312E+02  0.19507548185E+04  0.19742927690E+04  0.00000000000E+00 0. -1.
         -2    1    3    3    0  502 -0.24570725406E+02 -0.18055632635E+02  0.44098738655E+03  0.44204027137E+03  0.00000000000E+00 0.  1.
         13    1    5    5    0    0  0.68443182886E+02 -0.13886406475E+02  0.60152858387E+02  0.92171947687E+02  0.00000000000E+00 0.  1.
        -13    1    5    5    0    0  0.45227789835E+03  0.43421758979E+02  0.16303489883E+03  0.48272261675E+03  0.00000000000E+00 0. -1.
          1    1    6    6  503    0 -0.13267294717E+03  0.54224645639E+02  0.63628740524E+03  0.65223008607E+03  0.00000000000E+00 0. -1.
         -1    1    6    6    0  503 -0.62863365372E+02 -0.20773612196E+02  0.15444145902E+03  0.16803425226E+03  0.00000000000E+00 0.  1.
<mgrwt>
<rscale>  0 0.17114201E+04</rscale>
<asrwt>0</asrwt>
<pdfrwt beam="1">  1        2 0.55516540E+00 0.17114201E+04</pdfrwt>
<pdfrwt beam="2">  1       -2 0.31217935E-01 0.17114201E+04</pdfrwt>
<totfact> 0.62275667E+00</totfact>
</mgrwt>
</event>
<event>
12    3  0.4688899E-008  0.1095757E+04  0.7818608E-02  0.9209338E-01
         -2   -1    0    0    0  501 -0.00000000000E+00  0.00000000000E+00  0.19618004821E+03  0.19618004821E+03  0.00000000000E+00 0.  1.
          2   -1    0    0  501    0  0.00000000000E+00 -0.00000000000E+00 -0.15300774252E+04  0.15300774252E+04  0.00000000000E+00 0. -1.
         23    2    1    2    0    0  0.11073097218E+03  0.11616563843E+03 -0.20768423290E+03  0.27862710629E+03  0.93512138312E+02 0.  0.
        254    2    1    2    0    0 -0.11073097218E+03 -0.11616563843E+03 -0.11262131441E+04  0.14476303672E+04  0.89527751572E+03 0.  0.
         23    2    4    4    0    0  0.29126848364E+03  0.16721494397E+03 -0.21858226216E+03  0.41125823592E+03  0.92503860643E+02 0.  0.
         23    2    4    4    0    0 -0.40199945583E+03 -0.28338058241E+03 -0.90763088197E+03  0.10363721312E+04  0.91461792650E+02 0.  0.
          1    1    3    3  502    0  0.65919190990E+02  0.95726144612E+02 -0.19621669712E+03  0.22805663054E+03  0.00000000000E+00 0. -1.
         -1    1    3    3    0  502  0.44811781193E+02  0.20439493822E+02 -0.11467535783E+02  0.50570475757E+02  0.00000000000E+00 0.  1.
         13    1    5    5    0    0  0.28305325706E+03  0.13532813800E+03 -0.18498160629E+03  0.36421291291E+03  0.00000000000E+00 0. -1.
        -13    1    5    5    0    0  0.82152265887E+01  0.31886805969E+02 -0.33600655865E+02  0.47045323013E+02  0.00000000000E+00 0.  1.
          4    1    6    6  503    0 -0.31618674472E+03 -0.21765085493E+03 -0.77834537178E+03  0.86785221666E+03  0.00000000000E+00 0. -1.
         -4    1    6    6    0  503 -0.85812711108E+02 -0.65729727476E+02 -0.12928551018E+03  0.16851991456E+03  0.00000000000E+00 0.  1.
<mgrwt>
<rscale>  0 0.10957567E+04</rscale>
<asrwt>0</asrwt>
<pdfrwt beam="1">  1        2 0.23539652E+00 0.10957567E+04</pdfrwt>
<pdfrwt beam="2">  1       -2 0.30181546E-01 0.10957567E+04</pdfrwt>
<totfact> 0.12283727E+02</totfact>
</mgrwt>
</event>
<event>
12    3  0.4688899E-008  0.4387933E+04  0.7818608E-02  0.7930556E-01
         -2   -1    0    0    0  501 -0.00000000000E+00  0.00000000000E+00  0.17480062576E+04  0.17480062576E+04  0.00000000000E+00 0.  1.
          2   -1    0    0  501    0  0.00000000000E+00 -0.00000000000E+00 -0.27537021346E+04  0.27537021346E+04  0.00000000000E+00 0. -1.
         23    2    1    2    0    0 -0.18395282629E+04  0.63060283228E+03  0.33196134078E+03  0.19748047027E+04  0.90172723396E+02 0.  0.
        254    2    1    2    0    0  0.18395282629E+04 -0.63060283228E+03 -0.13376572178E+04  0.25269036895E+04  0.90243629236E+03 0.  0.
         23    2    4    4    0    0  0.15788315975E+04 -0.57061504713E+03 -0.14527028347E+04  0.22218643621E+04  0.89582208510E+02 0.  0.
         23    2    4    4    0    0  0.26069666536E+03 -0.59987785146E+02  0.11504561694E+03  0.30503932745E+03  0.90841684348E+02 0.  0.
          1    1    3    3  502    0 -0.40713036043E+03  0.13801283942E+03  0.11153102851E+03  0.44411917832E+03  0.00000000000E+00 0. -1.
         -1    1    3    3    0  502 -0.14323979024E+04  0.49258999286E+03  0.22043031227E+03  0.15306855244E+04  0.00000000000E+00 0.  1.
         13    1    5    5    0    0  0.36704782419E+03 -0.16860059433E+03 -0.32566970708E+03  0.51885549410E+03  0.00000000000E+00 0.  1.
        -13    1    5    5    0    0  0.12117837733E+04 -0.40201445280E+03 -0.11270331276E+04  0.17030088680E+04  0.00000000000E+00 0. -1.
          4    1    6    6  503    0  0.22611152710E+03 -0.79214310992E+02  0.81208679019E+02  0.25297466139E+03  0.00000000000E+00 0. -1.
         -4    1    6    6    0  503  0.34585138260E+02  0.19226525846E+02  0.33836937917E+02  0.52064666062E+02  0.00000000000E+00 0.  1.
<mgrwt>
<rscale>  0 0.43879328E+04</rscale>
<asrwt>0</asrwt>
<pdfrwt beam="1">  1        2 0.42364648E+00 0.43879328E+04</pdfrwt>
<pdfrwt beam="2">  1       -2 0.26892404E+00 0.43879328E+04</pdfrwt>
<totfact> 0.92762344E-02</totfact>
</mgrwt>
</event>
<event>
12    3  0.4688899E-008  0.2368875E+04  0.7818608E-02  0.8451249E-01
          1   -1    0    0  501    0  0.00000000000E+00  0.00000000000E+00  0.32480819586E+04  0.32480819586E+04  0.00000000000E+00 0. -1.
         -1   -1    0    0    0  501 -0.00000000000E+00 -0.00000000000E+00 -0.43191402466E+03  0.43191402466E+03  0.00000000000E+00 0.  1.
         23    2    1    2    0    0 -0.78891344033E+03 -0.39901438864E+03  0.47650045344E+03  0.10085440527E+04  0.92257928448E+02 0.  0.
        254    2    1    2    0    0  0.78891344033E+03  0.39901438864E+03  0.23396674805E+04  0.26714519306E+04  0.93862377953E+03 0.  0.
         23    2    4    4    0    0  0.66802811520E+02  0.13689397885E+03 -0.30244322979E+02  0.17850428935E+03  0.88014119160E+02 0.  0.
         23    2    4    4    0    0  0.72211062881E+03  0.26212040979E+03  0.23699118034E+04  0.24929476412E+04  0.90305682256E+02 0.  0.
          3    1    3    3  502    0 -0.62368096622E+01  0.44208990941E+01  0.69144143637E+00  0.76759517210E+01  0.00000000000E+00 0. -1.
         -3    1    3    3    0  502 -0.78267663067E+03 -0.40343528773E+03  0.47580901200E+03  0.10008681009E+04  0.00000000000E+00 0.  1.
         13    1    5    5    0    0  0.69948663978E+02  0.44341120838E+02 -0.75802727302E+01  0.83164963320E+02  0.00000000000E+00 0. -1.
        -13    1    5    5    0    0 -0.31458524578E+01  0.92552858016E+02 -0.22664050249E+02  0.95339326033E+02  0.00000000000E+00 0.  1.
          4    1    6    6  503    0  0.70296515659E+03  0.26963374616E+03  0.23031023414E+04  0.24230441109E+04  0.00000000000E+00 0. -1.
         -4    1    6    6    0  503  0.19145472224E+02 -0.75133363763E+01  0.66809462025E+02  0.69903530285E+02  0.00000000000E+00 0.  1.
<mgrwt>
<rscale>  0 0.23688750E+04</rscale>
<asrwt>0</asrwt>
<pdfrwt beam="1">  1        1 0.49970490E+00 0.23688750E+04</pdfrwt>
<pdfrwt beam="2">  1       -1 0.66448314E-01 0.23688750E+04</pdfrwt>
<totfact> 0.80710295E-01</totfact>
</mgrwt>
</event>
<event>
12    3  0.4688899E-008  0.1402669E+04  0.7818608E-02  0.8951889E-01
          2   -1    0    0  501    0  0.00000000000E+00  0.00000000000E+00  0.36664881019E+04  0.36664881019E+04  0.00000000000E+00 0. -1.
         -2   -1    0    0    0  501 -0.00000000000E+00 -0.00000000000E+00 -0.13415297164E+03  0.13415297164E+03  0.00000000000E+00 0.  1.
         23    2    1    2    0    0 -0.10157274438E+03 -0.15106426178E+03  0.20849538394E+04  0.20948756052E+04  0.91289950995E+02 0.  0.
        254    2    1    2    0    0  0.10157274438E+03  0.15106426178E+03  0.14473812908E+04  0.17057654683E+04  0.88407341229E+03 0.  0.
         23    2    4    4    0    0 -0.18688269919E+01 -0.29652744564E+03  0.10398916925E+04  0.10851616971E+04  0.90934911238E+02 0.  0.
         23    2    4    4    0    0  0.10344157137E+03  0.44759170742E+03  0.40748959833E+03  0.62060377128E+03  0.89792944831E+02 0.  0.
          4    1    3    3  502    0 -0.16383095662E+02 -0.39964427176E+02  0.19418142247E+03  0.19892708738E+03  0.00000000000E+00 0. -1.
         -4    1    3    3    0  502 -0.85189648715E+02 -0.11109983460E+03  0.18907724170E+04  0.18959485178E+04  0.00000000000E+00 0.  1.
         13    1    5    5    0    0  0.34142838488E+02 -0.52424138513E+02  0.17963521004E+03  0.19021785511E+03  0.00000000000E+00 0. -1.
        -13    1    5    5    0    0 -0.36011665480E+02 -0.24410330713E+03  0.86025648246E+03  0.89494384194E+03  0.00000000000E+00 0.  1.
          1    1    6    6  503    0 -0.14728869582E+02  0.79518308009E+02  0.58632363419E+02  0.99889213371E+02  0.00000000000E+00 0. -1.
         -1    1    6    6    0  503  0.11817044095E+03  0.36807339941E+03  0.34885723491E+03  0.52071455791E+03  0.00000000000E+00 0.  1.
<mgrwt>
<rscale>  0 0.14026693E+04</rscale>
<asrwt>0</asrwt>
<pdfrwt beam="1">  1        2 0.56407502E+00 0.14026693E+04</pdfrwt>
<pdfrwt beam="2">  1       -2 0.20638921E-01 0.14026693E+04</pdfrwt>
<totfact> 0.12408634E+01</totfact>
</mgrwt>
</event>
<event>
12    3  0.4688899E-008  0.1329880E+04  0.7818608E-02  0.9006200E-01
          1   -1    0    0  501    0  0.00000000000E+00  0.00000000000E+00  0.24829023131E+04  0.24829023131E+04  0.00000000000E+00 0. -1.
         -1   -1    0    0    0  501 -0.00000000000E+00 -0.00000000000E+00 -0.17807586070E+03  0.17807586070E+03  0.00000000000E+00 0.  1.
         23    2    1    2    0    0  0.71859891097E+02 -0.14999439250E+02  0.13102591650E+04  0.13155134320E+04  0.91693420659E+02 0.  0.
        254    2    1    2    0    0 -0.71859891097E+02  0.14999439250E+02  0.99456728749E+03  0.13454647418E+04  0.90317354644E+03 0.  0.
         23    2    4    4    0    0  0.30224202350E+03 -0.13502009290E+03  0.83572102548E+03  0.90346921371E+03  0.90809258572E+02 0.  0.
         23    2    4    4    0    0 -0.37410191459E+03  0.15001953215E+03  0.15884626201E+03  0.44199552810E+03  0.87577447872E+02 0.  0.
          4    1    3    3  502    0  0.40795622483E+02 -0.45703243326E+02  0.10349071773E+04  0.10367188312E+04  0.00000000000E+00 0. -1.
         -4    1    3    3    0  502  0.31064268614E+02  0.30703804076E+02  0.27535198762E+03  0.27879460084E+03  0.00000000000E+00 0.  1.
         13    1    5    5    0    0  0.22903024919E+03 -0.12385320046E+03  0.72432252669E+03  0.76969967713E+03  0.00000000000E+00 0. -1.
        -13    1    5    5    0    0  0.73211774308E+02 -0.11166892440E+02  0.11139849879E+03  0.13376953658E+03  0.00000000000E+00 0.  1.
          3    1    6    6  503    0 -0.24970362645E+03  0.14272299556E+03  0.11771143378E+03  0.31076958694E+03  0.00000000000E+00 0. -1.
         -3    1    6    6    0  503 -0.12439828814E+03  0.72965365851E+01  0.41134828223E+02  0.13122594115E+03  0.00000000000E+00 0.  1.
<mgrwt>
<rscale>  0 0.13298796E+04</rscale>
<asrwt>0</asrwt>
<pdfrwt beam="1">  1        1 0.38198495E+00 0.13298796E+04</pdfrwt>
<pdfrwt beam="2">  1       -1 0.27396288E-01 0.13298796E+04</pdfrwt>
<totfact> 0.16389628E+01</totfact>
</mgrwt>
</event>
<event>
12    3  0.4688899E-008  0.1759056E+04  0.7818608E-02  0.8728381E-01
         -2   -1    0    0    0  501 -0.00000000000E+00  0.00000000000E+00  0.45712015569E+03  0.45712015569E+03  0.00000000000E+00 0.  1.
          2   -1    0    0  501    0  0.00000000000E+00 -0.00000000000E+00 -0.16922670541E+04  0.16922670541E+04  0.00000000000E+00 0. -1.
         23    2    1    2    0    0 -0.52442959305E+03  0.11530967764E+03 -0.91638879761E+03  0.10660305686E+04  0.91268970992E+02 0.  0.
        254    2    1    2    0    0  0.52442959305E+03 -0.11530967764E+03 -0.31875810079E+03  0.10833566411E+04  0.88528648769E+03 0.  0.
         23    2    4    4    0    0  0.38019761721E+03 -0.33337208443E+03  0.15218348081E+03  0.53724987477E+03  0.98946658838E+02 0.  0.
         23    2    4    4    0    0  0.14423197583E+03  0.21806240679E+03 -0.47094158159E+03  0.54610676638E+03  0.89958606634E+02 0.  0.
          4    1    3    3  502    0 -0.91860193357E+02  0.48325224915E+02 -0.22402532551E+03  0.24690275202E+03  0.00000000000E+00 0. -1.
         -4    1    3    3    0  502 -0.43256939969E+03  0.66984452727E+02 -0.69236347210E+03  0.81912781661E+03  0.00000000000E+00 0.  1.
         13    1    5    5    0    0  0.37350245131E+03 -0.34053634363E+03  0.14928982717E+03  0.52702612361E+03  0.00000000000E+00 0. -1.
        -13    1    5    5    0    0  0.66951659013E+01  0.71642592024E+01  0.28936536385E+01  0.10223751158E+02  0.00000000000E+00 0.  1.
          2    1    6    6  503    0  0.13994674581E+03  0.16909581269E+03 -0.32557332722E+03  0.39265312546E+03  0.00000000000E+00 0. -1.
         -2    1    6    6    0  503  0.42852300187E+01  0.48966594094E+02 -0.14536825437E+03  0.15345364092E+03  0.00000000000E+00 0.  1.
<mgrwt>
<rscale>  0 0.17590559E+04</rscale>
<asrwt>0</asrwt>
<pdfrwt beam="1">  1        2 0.26034878E+00 0.17590559E+04</pdfrwt>
<pdfrwt beam="2">  1       -2 0.70326177E-01 0.17590559E+04</pdfrwt>
<totfact> 0.17260457E+01</totfact>
</mgrwt>
</event>
<event>
12    3  0.4688899E-008  0.1169285E+04  0.7818608E-02  0.9140174E-01
          2   -1    0    0  501    0  0.00000000000E+00  0.00000000000E+00  0.25219228601E+04  0.25219228601E+04  0.00000000000E+00 0.  1.
         -2   -1    0    0    0  501 -0.00000000000E+00 -0.00000000000E+00 -0.13553430799E+03  0.13553430799E+03  0.00000000000E+00 0. -1.
         23    2    1    2    0    0 -0.21995735949E+03  0.20270183623E+02  0.40507587075E+03  0.47007423187E+03  0.89951109316E+02 0.  0.
        254    2    1    2    0    0  0.21995735949E+03 -0.20270183623E+02  0.19813126813E+04  0.21873829362E+04  0.90014001577E+03 0.  0.
         23    2    4    4    0    0 -0.24803069386E+03  0.25750652415E+03  0.67202284518E+03  0.76684921160E+03  0.92812573539E+02 0.  0.
         23    2    4    4    0    0  0.46798805336E+03 -0.27777670778E+03  0.13092898362E+04  0.14205337246E+04  0.86622573122E+02 0.  0.
          1    1    3    3  502    0 -0.16043553979E+03 -0.22815463052E+02  0.24246441759E+03  0.29163179110E+03  0.00000000000E+00 0. -1.
         -1    1    3    3    0  502 -0.59521819699E+02  0.43085646675E+02  0.16261145317E+03  0.17844244078E+03  0.00000000000E+00 0.  1.
         13    1    5    5    0    0 -0.26782831422E+02 -0.37323495231E+01  0.48799524371E+02  0.55791075189E+02  0.00000000000E+00 0. -1.
        -13    1    5    5    0    0 -0.22124786244E+03  0.26123887368E+03  0.62322332081E+03  0.71105813642E+03  0.00000000000E+00 0.  1.
          1    1    6    6  503    0  0.10475371043E+03 -0.23946194083E+02  0.23278982224E+03  0.25639395742E+03  0.00000000000E+00 0. -1.
         -1    1    6    6    0  503  0.36323434292E+03 -0.25383051369E+03  0.10765000139E+04  0.11641397672E+04  0.00000000000E+00 0.  1.
<mgrwt>
<rscale>  0 0.11692854E+04</rscale>
<asrwt>0</asrwt>
<pdfrwt beam="1">  1        2 0.38798810E+00 0.11692854E+04</pdfrwt>
<pdfrwt beam="2">  1       -2 0.20851434E-01 0.11692854E+04</pdfrwt>
<totfact> 0.66865612E+01</totfact>
</mgrwt>
</event>
<event>
12    3  0.4688899E-008  0.1277112E+04  0.7818608E-02  0.9047915E-01
          2   -1    0    0  501    0  0.00000000000E+00  0.00000000000E+00  0.34640165231E+04  0.34640165231E+04  0.00000000000E+00 0. -1.
         -2   -1    0    0    0  501 -0.00000000000E+00 -0.00000000000E+00 -0.11771133346E+03  0.11771133346E+03  0.00000000000E+00 0.  1.
         23    2    1    2    0    0 -0.37763043757E+02 -0.18421155578E+03  0.15468332732E+04  0.15605588472E+04  0.85386157126E+02 0.  0.
        254    2    1    2    0    0  0.37763043757E+02  0.18421155578E+03  0.17994719164E+04  0.20211690093E+04  0.90092454815E+03 0.  0.
         23    2    4    4    0    0 -0.10008840392E+03 -0.13015343995E+03  0.16056450411E+04  0.16165371946E+04  0.90215835974E+02 0.  0.
         23    2    4    4    0    0  0.13785144768E+03  0.31436499572E+03  0.19382687528E+03  0.40463181466E+03  0.91267056965E+02 0.  0.
          3    1    3    3  502    0 -0.40281631320E+02 -0.31508273695E+02  0.50647915880E+03  0.50905453483E+03  0.00000000000E+00 0. -1.
         -3    1    3    3    0  502  0.25185875636E+01 -0.15270328208E+03  0.10403541144E+04  0.10515043124E+04  0.00000000000E+00 0.  1.
         13    1    5    5    0    0 -0.97733039970E+02 -0.13936316581E+03  0.15807626524E+04  0.15899007523E+04  0.00000000000E+00 0. -1.
        -13    1    5    5    0    0 -0.23553639498E+01  0.92097258678E+01  0.24882388748E+02  0.26636442324E+02  0.00000000000E+00 0.  1.
          4    1    6    6  503    0  0.10570328483E+03  0.17082613629E+03  0.15137497955E+03  0.25153357171E+03  0.00000000000E+00 0. -1.
         -4    1    6    6    0  503  0.32148162846E+02  0.14353885943E+03  0.42451895732E+02  0.15309824294E+03  0.00000000000E+00 0.  1.
<mgrwt>
<rscale>  0 0.12771124E+04</rscale>
<asrwt>0</asrwt>
<pdfrwt beam="1">  1        2 0.53292554E+00 0.12771124E+04</pdfrwt>
<pdfrwt beam="2">  1       -2 0.18109439E-01 0.12771124E+04</pdfrwt>
<totfact> 0.21955919E+01</totfact>
</mgrwt>
</event>
<event>
12    3  0.4688899E-008  0.1890744E+04  0.7818608E-02  0.8659478E-01
         -2   -1    0    0    0  501 -0.00000000000E+00  0.00000000000E+00  0.23724105554E+03  0.23724105554E+03  0.00000000000E+00 0.  1.
          2   -1    0    0  501    0  0.00000000000E+00 -0.00000000000E+00 -0.37671717040E+04  0.37671717040E+04  0.00000000000E+00 0. -1.
         23    2    1    2    0    0  0.63735971757E+03  0.39449538670E+02 -0.63406172857E+03  0.90460783007E+03  0.92181206903E+02 0.  0.
        254    2    1    2    0    0 -0.63735971757E+03 -0.39449538670E+02 -0.28958689199E+04  0.30998049295E+04  0.90274588000E+03 0.  0.
         23    2    4    4    0    0 -0.65611448912E+02  0.26642020534E+03 -0.27814594354E+03  0.40143075372E+03  0.92178609650E+02 0.  0.
         23    2    4    4    0    0 -0.57174826866E+03 -0.30586974401E+03 -0.26177229763E+04  0.26983741757E+04  0.91089123528E+02 0.  0.
          4    1    3    3  502    0  0.41351092283E+03  0.58074135136E+02 -0.36977464720E+03  0.55776086111E+03  0.00000000000E+00 0. -1.
         -4    1    3    3    0  502  0.22384879474E+03 -0.18624596466E+02 -0.26428708137E+03  0.34684696896E+03  0.00000000000E+00 0.  1.
         13    1    5    5    0    0  0.14520132540E+02  0.62569389715E+02 -0.31414983210E+02  0.71502894686E+02  0.00000000000E+00 0. -1.
        -13    1    5    5    0    0 -0.80131581452E+02  0.20385081563E+03 -0.24673096033E+03  0.32992785903E+03  0.00000000000E+00 0.  1.
          1    1    6    6  503    0 -0.21049407588E+03 -0.64494487184E+02 -0.85202690033E+03  0.88000973502E+03  0.00000000000E+00 0. -1.
         -1    1    6    6    0  503 -0.36125419278E+03 -0.24137525683E+03 -0.17656960760E+04  0.18183644407E+04  0.00000000000E+00 0.  1.
<mgrwt>
<rscale>  0 0.18907435E+04</rscale>
<asrwt>0</asrwt>
<pdfrwt beam="1">  1        2 0.57956485E+00 0.18907435E+04</pdfrwt>
<pdfrwt beam="2">  1       -2 0.36498625E-01 0.18907435E+04</pdfrwt>
<totfact> 0.34786872E+00</totfact>
</mgrwt>
</event>
<event>
12    3  0.4688899E-008  0.2502420E+04  0.7818608E-02  0.8402124E-01
         -2   -1    0    0    0  501 -0.00000000000E+00  0.00000000000E+00  0.17898296501E+04  0.17898296501E+04  0.00000000000E+00 0. -1.
          2   -1    0    0  501    0  0.00000000000E+00 -0.00000000000E+00 -0.87467876287E+03  0.87467876287E+03  0.00000000000E+00 0.  1.
         23    2    1    2    0    0 -0.75077431800E+03 -0.39919652144E+03  0.10593178546E+04  0.13612782916E+04  0.88906304154E+02 0.  0.
        254    2    1    2    0    0  0.75077431800E+03  0.39919652144E+03 -0.14416696738E+03  0.13032301213E+04  0.97703873788E+03 0.  0.
         23    2    4    4    0    0  0.90412767996E+03  0.37432801713E+03  0.11284037556E+03  0.98923590065E+03  0.91029614463E+02 0.  0.
         23    2    4    4    0    0 -0.15335336196E+03  0.24868504312E+02 -0.25700734294E+03  0.31399422066E+03  0.91672788489E+02 0.  0.
          2    1    3    3  502    0 -0.36837526733E+03 -0.18882279605E+03  0.44573637130E+03  0.60830526760E+03  0.00000000000E+00 0. -1.
         -2    1    3    3    0  502 -0.38239905067E+03 -0.21037372539E+03  0.61358148327E+03  0.75297302402E+03  0.00000000000E+00 0.  1.
         13    1    5    5    0    0  0.74221202341E+03  0.33094054071E+03  0.66750327842E+02  0.81538698509E+03  0.00000000000E+00 0.  1.
        -13    1    5    5    0    0  0.16191565655E+03  0.43387476422E+02  0.46090047718E+02  0.17384891557E+03  0.00000000000E+00 0. -1.
          3    1    6    6  503    0 -0.72404203008E+02  0.32872921785E+02 -0.19838388737E+03  0.21372684522E+03  0.00000000000E+00 0. -1.
         -3    1    6    6    0  503 -0.80949158953E+02 -0.80044174729E+01 -0.58623455577E+02  0.10026737544E+03  0.00000000000E+00 0.  1.
<mgrwt>
<rscale>  0 0.25024196E+04</rscale>
<asrwt>0</asrwt>
<pdfrwt beam="1">  1        2 0.13456596E+00 0.25024196E+04</pdfrwt>
<pdfrwt beam="2">  1       -2 0.27535841E+00 0.25024196E+04</pdfrwt>
<totfact> 0.12229938E+00</totfact>
</mgrwt>
</event>
<event>
12    3  0.4688899E-008  0.1716212E+04  0.7818608E-02  0.8752172E-01
          3   -1    0    0  501    0  0.00000000000E+00  0.00000000000E+00  0.18042151842E+04  0.18042151842E+04  0.00000000000E+00 0. -1.
         -3   -1    0    0    0  501 -0.00000000000E+00 -0.00000000000E+00 -0.40812538311E+03  0.40812538311E+03  0.00000000000E+00 0.  1.
         23    2    1    2    0    0  0.40548401938E+03  0.34124494283E+03  0.91941180862E+03  0.10650661018E+04  0.90456213101E+02 0.  0.
        254    2    1    2    0    0 -0.40548401938E+03 -0.34124494283E+03  0.47667799250E+03  0.11472744655E+04  0.89897240762E+03 0.  0.
         23    2    4    4    0    0 -0.11820757779E+03 -0.58812344254E+03  0.11804539608E+03  0.61795058531E+03  0.89810885970E+02 0.  0.
         23    2    4    4    0    0 -0.28727644159E+03  0.24687849970E+03  0.35863259641E+03  0.52932388018E+03  0.89942667365E+02 0.  0.
          2    1    3    3  502    0  0.38025639395E+01  0.22384265093E+02  0.61405646473E+02  0.65468834074E+02  0.00000000000E+00 0.  1.
         -2    1    3    3    0  502  0.40168145544E+03  0.31886067774E+03  0.85800616215E+03  0.99959726777E+03  0.00000000000E+00 0. -1.
         13    1    5    5    0    0 -0.12971865561E+03 -0.50466739305E+03  0.87670796251E+02  0.52839594599E+03  0.00000000000E+00 0.  1.
        -13    1    5    5    0    0  0.11511077826E+02 -0.83456049492E+02  0.30374599833E+02  0.89554639325E+02  0.00000000000E+00 0. -1.
          1    1    6    6  503    0 -0.38051519162E+02  0.19483257665E+01  0.51753904093E+02  0.64266481720E+02  0.00000000000E+00 0. -1.
         -1    1    6    6    0  503 -0.24922492243E+03  0.24493017394E+03  0.30687869232E+03  0.46505739846E+03  0.00000000000E+00 0.  1.
<mgrwt>
<rscale>  0 0.17162121E+04</rscale>
<asrwt>0</asrwt>
<pdfrwt beam="1">  1        3 0.27757156E+00 0.17162121E+04</pdfrwt>
<pdfrwt beam="2">  1       -3 0.62788521E-01 0.17162121E+04</pdfrwt>
<totfact> 0.31666907E-01</totfact>
</mgrwt>
</event>
<event>
12    3  0.4688899E-008  0.1112978E+04  0.7818608E-02  0.9192634E-01
         -1   -1    0    0    0  501 -0.00000000000E+00  0.00000000000E+00  0.29048006462E+03  0.29048006462E+03  0.00000000000E+00 0.  1.
          1   -1    0    0  501    0  0.00000000000E+00 -0.00000000000E+00 -0.10660981324E+04  0.10660981324E+04  0.00000000000E+00 0. -1.
         23    2    1    2    0    0  0.72989899846E+02  0.40559728103E+02  0.73972484864E+02  0.14466936837E+03  0.92112326021E+02 0.  0.
        254    2    1    2    0    0 -0.72989899846E+02 -0.40559728103E+02 -0.84959055261E+03  0.12119088286E+04  0.86020130480E+03 0.  0.
         23    2    4    4    0    0 -0.13650125542E+03 -0.49616385397E+02  0.13594774600E+03  0.21896762773E+03  0.91491277837E+02 0.  0.
         23    2    4    4    0    0  0.63511355570E+02  0.90566572943E+01 -0.98553829861E+03  0.99294120089E+03  0.10261956477E+03 0.  0.
          1    1    3    3  502    0 -0.15912814174E+02  0.17032258794E+02  0.40643246110E+02  0.46852843552E+02  0.00000000000E+00 0. -1.
         -1    1    3    3    0  502  0.88902714019E+02  0.23527469308E+02  0.33329238755E+02  0.97816524821E+02  0.00000000000E+00 0.  1.
         13    1    5    5    0    0 -0.26354425628E+02  0.11586492421E+02 -0.57377466292E+01  0.29355140831E+02  0.00000000000E+00 0.  1.
        -13    1    5    5    0    0 -0.11014682979E+03 -0.61202877818E+02  0.14168549263E+03  0.18961248690E+03  0.00000000000E+00 0. -1.
          2    1    6    6  503    0  0.20688254052E+02 -0.30372348862E+02 -0.72711139879E+03  0.72803946986E+03  0.00000000000E+00 0. -1.
         -2    1    6    6    0  503  0.42823101518E+02  0.39429006157E+02 -0.25842689982E+03  0.26490173103E+03  0.00000000000E+00 0.  1.
<mgrwt>
<rscale>  0 0.11129784E+04</rscale>
<asrwt>0</asrwt>
<pdfrwt beam="1">  1        1 0.16401510E+00 0.11129784E+04</pdfrwt>
<pdfrwt beam="2">  1       -1 0.44689240E-01 0.11129784E+04</pdfrwt>
<totfact> 0.66411634E+01</totfact>
</mgrwt>
</event>
<event>
12    3  0.4688899E-008  0.1018871E+04  0.7818608E-02  0.9288086E-01
         -1   -1    0    0    0  501 -0.00000000000E+00  0.00000000000E+00  0.21812236885E+03  0.21812236885E+03  0.00000000000E+00 0.  1.
          1   -1    0    0  501    0  0.00000000000E+00 -0.00000000000E+00 -0.11898118330E+04  0.11898118330E+04  0.00000000000E+00 0. -1.
         23    2    1    2    0    0 -0.19021559135E+03  0.29229789356E+02 -0.23268182095E+03  0.31400277061E+03  0.86142662917E+02 0.  0.
        254    2    1    2    0    0  0.19021559135E+03 -0.29229789356E+02 -0.73900764324E+03  0.10939314313E+04  0.78327346933E+03 0.  0.
         23    2    4    4    0    0 -0.16494966803E+03  0.38600566685E+02  0.68276766490E+02  0.20462867191E+03  0.92264726698E+02 0.  0.
         23    2    4    4    0    0  0.35516525938E+03 -0.67830356041E+02 -0.80728440973E+03  0.88930275936E+03  0.91694934080E+02 0.  0.
          3    1    3    3  502    0 -0.48737701423E+02  0.27176433989E+02 -0.12269861293E+03  0.13479195718E+03  0.00000000000E+00 0. -1.
         -3    1    3    3    0  502 -0.14147788993E+03  0.20533553673E+01 -0.10998320801E+03  0.17921081343E+03  0.00000000000E+00 0.  1.
         13    1    5    5    0    0 -0.11982847815E+03  0.19121534031E+02  0.89817387020E+02  0.15096907051E+03  0.00000000000E+00 0.  1.
        -13    1    5    5    0    0 -0.45121189883E+02  0.19479032654E+02 -0.21540620530E+02  0.53659601400E+02  0.00000000000E+00 0. -1.
          4    1    6    6  503    0  0.50202455186E+02  0.12414441234E+02 -0.66881202552E+02  0.84542889190E+02  0.00000000000E+00 0. -1.
         -4    1    6    6    0  503  0.30496280420E+03 -0.80244797275E+02 -0.74040320718E+03  0.80475987017E+03  0.00000000000E+00 0.  1.
<mgrwt>
<rscale>  0 0.10188711E+04</rscale>
<asrwt>0</asrwt>
<pdfrwt beam="1">  1        1 0.18304798E+00 0.10188711E+04</pdfrwt>
<pdfrwt beam="2">  1       -1 0.33557287E-01 0.10188711E+04</pdfrwt>
<totfact> 0.91003593E+01</totfact>
</mgrwt>
</event>
<event>
12    3  0.4688899E-008  0.1193891E+04  0.7818608E-02  0.9118221E-01
         -2   -1    0    0    0  501 -0.00000000000E+00  0.00000000000E+00  0.20259914768E+03  0.20259914768E+03  0.00000000000E+00 0.  1.
          2   -1    0    0  501    0  0.00000000000E+00 -0.00000000000E+00 -0.17588607080E+04  0.17588607080E+04  0.00000000000E+00 0. -1.
         23    2    1    2    0    0 -0.31011292006E+02  0.23218546467E+03 -0.21647922869E+03  0.33196398345E+03  0.92005649907E+02 0.  0.
        254    2    1    2    0    0  0.31011292006E+02 -0.23218546467E+03 -0.13397823316E+04  0.16294958722E+04  0.89742315058E+03 0.  0.
         23    2    4    4    0    0  0.43381772445E+03 -0.23438367164E+03 -0.59564986875E+03  0.77862887963E+03  0.91272353312E+02 0.  0.
         23    2    4    4    0    0 -0.40280643244E+03  0.21982069637E+01 -0.74413246286E+03  0.85086699257E+03  0.89351343818E+02 0.  0.
          1    1    3    3  502    0 -0.27598098541E+02  0.10848859955E+02 -0.33732420827E+02  0.44913572785E+02  0.00000000000E+00 0. -1.
         -1    1    3    3    0  502 -0.34131934645E+01  0.22133660472E+03 -0.18274680786E+03  0.28705041066E+03  0.00000000000E+00 0.  1.
         13    1    5    5    0    0  0.20236267265E+03 -0.63601197240E+02 -0.22148153983E+03  0.30667545722E+03  0.00000000000E+00 0.  1.
        -13    1    5    5    0    0  0.23145505180E+03 -0.17078247440E+03 -0.37416832892E+03  0.47195342242E+03  0.00000000000E+00 0. -1.
          4    1    6    6  503    0 -0.33524624152E+03 -0.40200595745E+01 -0.53859707933E+03  0.63442337378E+03  0.00000000000E+00 0. -1.
         -4    1    6    6    0  503 -0.67560190926E+02  0.62182665382E+01 -0.20553538353E+03  0.21644361880E+03  0.00000000000E+00 0.  1.
<mgrwt>
<rscale>  0 0.11938906E+04</rscale>
<asrwt>0</asrwt>
<pdfrwt beam="1">  1        2 0.27059396E+00 0.11938906E+04</pdfrwt>
<pdfrwt beam="2">  1       -2 0.31169099E-01 0.11938906E+04</pdfrwt>
<totfact> 0.85704686E+01</totfact>
</mgrwt>
</event>
<event>
12    3  0.4688899E-008  0.1295440E+04  0.7818608E-02  0.9033189E-01
         -1   -1    0    0    0  501 -0.00000000000E+00  0.00000000000E+00  0.20531356339E+03  0.20531356339E+03  0.00000000000E+00 0.  1.
          1   -1    0    0  501    0  0.00000000000E+00 -0.00000000000E+00 -0.20434166088E+04  0.20434166088E+04  0.00000000000E+00 0. -1.
         23    2    1    2    0    0 -0.23511491885E+03  0.15594135573E+03 -0.72228422392E+03  0.78077023602E+03  0.91164301319E+02 0.  0.
        254    2    1    2    0    0  0.23511491885E+03 -0.15594135573E+03 -0.11158188215E+04  0.14679599362E+04  0.91118494300E+03 0.  0.
         23    2    4    4    0    0 -0.32386373872E+03 -0.89186551879E+02 -0.62585777601E+03  0.71602973283E+03  0.90325302179E+02 0.  0.
         23    2    4    4    0    0  0.55897865757E+03 -0.66754803849E+02 -0.48996104549E+03  0.75193020335E+03  0.91781594906E+02 0.  0.
          4    1    3    3  502    0 -0.11288508933E+03  0.12573206964E+03 -0.45353910494E+03  0.48399309545E+03  0.00000000000E+00 0. -1.
         -4    1    3    3    0  502 -0.12222982952E+03  0.30209286085E+02 -0.26874511898E+03  0.29677714057E+03  0.00000000000E+00 0.  1.
         13    1    5    5    0    0  0.67932494794E+00  0.70162547634E+01 -0.29199162562E+02  0.30037982749E+02  0.00000000000E+00 0. -1.
        -13    1    5    5    0    0 -0.32454306367E+03 -0.96202806642E+02 -0.59665861345E+03  0.68599175009E+03  0.00000000000E+00 0.  1.
          1    1    6    6  503    0  0.57909699699E+02  0.13068408923E+02 -0.27569412659E+02  0.65455245361E+02  0.00000000000E+00 0. -1.
         -1    1    6    6    0  503  0.50106895787E+03 -0.79823212772E+02 -0.46239163283E+03  0.68647495799E+03  0.00000000000E+00 0.  1.
<mgrwt>
<rscale>  0 0.12954399E+04</rscale>
<asrwt>0</asrwt>
<pdfrwt beam="1">  1        1 0.31437177E+00 0.12954399E+04</pdfrwt>
<pdfrwt beam="2">  1       -1 0.31586703E-01 0.12954399E+04</pdfrwt>
<totfact> 0.25537091E+01</totfact>
</mgrwt>
</event>
<event>
12    3  0.4688899E-008  0.1904890E+04  0.7818608E-02  0.8652426E-01
         -1   -1    0    0    0  501 -0.00000000000E+00  0.00000000000E+00  0.96889258834E+03  0.96889258834E+03  0.00000000000E+00 0.  1.
          1   -1    0    0  501    0  0.00000000000E+00 -0.00000000000E+00 -0.93627667894E+03  0.93627667894E+03  0.00000000000E+00 0. -1.
         23    2    1    2    0    0 -0.63067319005E+01  0.62132792658E+03  0.40400764565E+03  0.74662224145E+03  0.90191055311E+02 0.  0.
        254    2    1    2    0    0  0.63067319005E+01 -0.62132792658E+03 -0.37139173626E+03  0.11585470258E+04  0.90455028720E+03 0.  0.
         23    2    4    4    0    0  0.35007593271E+03 -0.43473531808E+00 -0.22279272354E+02  0.36240299119E+03  0.91028645973E+02 0.  0.
         23    2    4    4    0    0 -0.34376920081E+03 -0.62089319127E+03 -0.34911246391E+03  0.79614403464E+03  0.90995566102E+02 0.  0.
          3    1    3    3  502    0 -0.11205392020E+02  0.59750755772E+03  0.40559419973E+03  0.72225168549E+03  0.00000000000E+00 0.  1.
         -3    1    3    3    0  502  0.48986601197E+01  0.23820368864E+02 -0.15865540744E+01  0.24370555956E+02  0.00000000000E+00 0. -1.
         13    1    5    5    0    0  0.26095386438E+02  0.25641472096E+01 -0.27996461805E+02  0.38358127142E+02  0.00000000000E+00 0.  1.
        -13    1    5    5    0    0  0.32398054627E+03 -0.29988825277E+01  0.57171894513E+01  0.32404486405E+03  0.00000000000E+00 0. -1.
          1    1    6    6  503    0 -0.24901179704E+03 -0.51057849830E+03 -0.30154176499E+03  0.64313662158E+03  0.00000000000E+00 0. -1.
         -1    1    6    6    0  503 -0.94757403775E+02 -0.11031469297E+03 -0.47570698913E+02  0.15300741306E+03  0.00000000000E+00 0.  1.
<mgrwt>
<rscale>  0 0.19048901E+04</rscale>
<asrwt>0</asrwt>
<pdfrwt beam="1">  1        1 0.14404257E+00 0.19048901E+04</pdfrwt>
<pdfrwt beam="2">  1       -1 0.14906040E+00 0.19048901E+04</pdfrwt>
<totfact> 0.56427031E+00</totfact>
</mgrwt>
</event>
<event>
12    3  0.4688899E-008  0.1581552E+04  0.7818608E-02  0.8831962E-01
         -1   -1    0    0    0  501 -0.00000000000E+00  0.00000000000E+00  0.71395154220E+03  0.71395154220E+03  0.00000000000E+00 0.  1.
          1   -1    0    0  501    0  0.00000000000E+00 -0.00000000000E+00 -0.87586688816E+03  0.87586688816E+03  0.00000000000E+00 0. -1.
         23    2    1    2    0    0  0.35998132001E+03  0.27385999701E+03 -0.32307793096E+03  0.56325203764E+03  0.91036584459E+02 0.  0.
        254    2    1    2    0    0 -0.35998132001E+03 -0.27385999701E+03  0.16116258500E+03  0.10265663927E+04  0.90734741480E+03 0.  0.
         23    2    4    4    0    0  0.56270951289E+01  0.67604793658E+02  0.43478619090E+03  0.44969964145E+03  0.92675041923E+02 0.  0.
         23    2    4    4    0    0 -0.36560841514E+03 -0.34146479067E+03 -0.27362360590E+03  0.57686675127E+03  0.87393675542E+02 0.  0.
          2    1    3    3  502    0  0.33517251780E+02  0.29231006293E+02 -0.27303566828E+01  0.44556848446E+02  0.00000000000E+00 0.  1.
         -2    1    3    3    0  502  0.32646406823E+03  0.24462899072E+03 -0.32034757428E+03  0.51869518919E+03  0.00000000000E+00 0. -1.
         13    1    5    5    0    0  0.26089867249E+02 -0.14067478392E+02  0.14126662339E+03  0.14434276568E+03  0.00000000000E+00 0. -1.
        -13    1    5    5    0    0 -0.20462772120E+02  0.81672272050E+02  0.29351956752E+03  0.30535687577E+03  0.00000000000E+00 0.  1.
          4    1    6    6  503    0 -0.22264380113E+03 -0.14961121247E+03 -0.15513436419E+03  0.30987166381E+03  0.00000000000E+00 0. -1.
         -4    1    6    6    0  503 -0.14296461401E+03 -0.19185357820E+03 -0.11848924171E+03  0.26699508746E+03  0.00000000000E+00 0.  1.
<mgrwt>
<rscale>  0 0.15815518E+04</rscale>
<asrwt>0</asrwt>
<pdfrwt beam="1">  1        1 0.13474875E+00 0.15815518E+04</pdfrwt>
<pdfrwt beam="2">  1       -1 0.10983870E+00 0.15815518E+04</pdfrwt>
<totfact> 0.14025500E+01</totfact>
</mgrwt>
</event>
<event>
12    3  0.4688899E-008  0.2542407E+04  0.7818608E-02  0.8388032E-01
         -2   -1    0    0    0  501 -0.00000000000E+00  0.00000000000E+00  0.54754948554E+03  0.54754948554E+03  0.00000000000E+00 0.  1.
          2   -1    0    0  501    0  0.00000000000E+00 -0.00000000000E+00 -0.29512554160E+04  0.29512554160E+04  0.00000000000E+00 0. -1.
         23    2    1    2    0    0  0.26683889657E+03  0.10743544833E+04 -0.10192340864E+04  0.15075003284E+04  0.90986618464E+02 0.  0.
        254    2    1    2    0    0 -0.26683889657E+03 -0.10743544833E+04 -0.13844718440E+04  0.19913045731E+04  0.90724366257E+03 0.  0.
         23    2    4    4    0    0 -0.93816121878E+02 -0.68406472110E+03 -0.19383039595E+03  0.72314214331E+03  0.92834959242E+02 0.  0.
         23    2    4    4    0    0 -0.17302277469E+03 -0.39028976224E+03 -0.11906414481E+04  0.12681624298E+04  0.91355959511E+02 0.  0.
          3    1    3    3  502    0  0.20236813955E+03  0.66421593308E+03 -0.60374908054E+03  0.92013511068E+03  0.00000000000E+00 0. -1.
         -3    1    3    3    0  502  0.64470757013E+02  0.41013855026E+03 -0.41548500588E+03  0.58736521776E+03  0.00000000000E+00 0.  1.
         13    1    5    5    0    0 -0.65124582715E+02 -0.17364805509E+03 -0.51613966606E+02  0.19250677873E+03  0.00000000000E+00 0. -1.
        -13    1    5    5    0    0 -0.28691539163E+02 -0.51041666601E+03 -0.14221642934E+03  0.53063536458E+03  0.00000000000E+00 0.  1.
          4    1    6    6  503    0 -0.45265939141E+02 -0.21181458186E+03 -0.62177811822E+03  0.65842421783E+03  0.00000000000E+00 0. -1.
         -4    1    6    6    0  503 -0.12775683555E+03 -0.17847518038E+03 -0.56886332985E+03  0.60973821194E+03  0.00000000000E+00 0.  1.
<mgrwt>
<rscale>  0 0.25424070E+04</rscale>
<asrwt>0</asrwt>
<pdfrwt beam="1">  1        2 0.45403929E+00 0.25424070E+04</pdfrwt>
<pdfrwt beam="2">  1       -2 0.84238384E-01 0.25424070E+04</pdfrwt>
<totfact> 0.20413826E+00</totfact>
</mgrwt>
</event>
<event>
12    3  0.4688899E-008  0.1548905E+04  0.7818608E-02  0.8852567E-01
         -1   -1    0    0    0  501 -0.00000000000E+00  0.00000000000E+00  0.13068004316E+04  0.13068004316E+04  0.00000000000E+00 0.  1.
          1   -1    0    0  501    0  0.00000000000E+00 -0.00000000000E+00 -0.45896590847E+03  0.45896590847E+03  0.00000000000E+00 0. -1.
         23    2    1    2    0    0 -0.48793662821E+03 -0.12463549292E+03  0.29627732125E+03  0.59148461835E+03  0.91965446811E+02 0.  0.
        254    2    1    2    0    0  0.48793662821E+03  0.12463549292E+03  0.55155720184E+03  0.11742817217E+04  0.90614902513E+03 0.  0.
         23    2    4    4    0    0  0.15379840690E+03  0.17418892809E+03 -0.21666998709E+03  0.33018579485E+03  0.89894622664E+02 0.  0.
         23    2    4    4    0    0  0.33413822131E+03 -0.49553435164E+02  0.76822718892E+03  0.84409592684E+03  0.90669873864E+02 0.  0.
          3    1    3    3  502    0 -0.22493824644E+03 -0.44695504750E+02  0.18611071934E+03  0.29535081295E+03  0.00000000000E+00 0. -1.
         -3    1    3    3    0  502 -0.26299838177E+03 -0.79939988174E+02  0.11016660192E+03  0.29613380540E+03  0.00000000000E+00 0.  1.
         13    1    5    5    0    0  0.92828093024E+02  0.65721634102E+02 -0.15232785587E+03  0.19010566461E+03  0.00000000000E+00 0. -1.
        -13    1    5    5    0    0  0.60970313881E+02  0.10846729399E+03 -0.64342131220E+02  0.14008013024E+03  0.00000000000E+00 0.  1.
          3    1    6    6  503    0  0.15982050504E+03  0.20956439827E+02  0.37767729829E+03  0.41063597973E+03  0.00000000000E+00 0. -1.
         -3    1    6    6    0  503  0.17431771627E+03 -0.70509874992E+02  0.39054989063E+03  0.43345994711E+03  0.00000000000E+00 0.  1.
<mgrwt>
<rscale>  0 0.15489052E+04</rscale>
<asrwt>0</asrwt>
<pdfrwt beam="1">  1        1 0.70610141E-01 0.15489052E+04</pdfrwt>
<pdfrwt beam="2">  1       -1 0.20104622E+00 0.15489052E+04</pdfrwt>
<totfact> 0.71085228E+00</totfact>
</mgrwt>
</event>
<event>
12    3  0.4688899E-008  0.2060852E+04  0.7818608E-02  0.8578687E-01
         -1   -1    0    0    0  501 -0.00000000000E+00  0.00000000000E+00  0.76503005671E+03  0.76503005671E+03  0.00000000000E+00 0.  1.
          1   -1    0    0  501    0  0.00000000000E+00 -0.00000000000E+00 -0.13878898387E+04  0.13878898387E+04  0.00000000000E+00 0. -1.
         23    2    1    2    0    0  0.30454828803E+03 -0.76091255595E+03 -0.42016395074E+03  0.92530795243E+03  0.88991481504E+02 0.  0.
        254    2    1    2    0    0 -0.30454828803E+03  0.76091255595E+03 -0.20269583122E+03  0.12276119430E+04  0.89118342947E+03 0.  0.
         23    2    4    4    0    0 -0.38692646899E+03  0.60665073026E+03  0.22202264571E+03  0.75925486024E+03  0.97142609906E+02 0.  0.
         23    2    4    4    0    0  0.82378180964E+02  0.15426182569E+03 -0.42471847693E+03  0.46835708272E+03  0.91595287661E+02 0.  0.
          2    1    3    3  502    0  0.21193446982E+02 -0.30642657277E+02 -0.39829196636E+02  0.54538972713E+02  0.00000000000E+00 0.  1.
         -2    1    3    3    0  502  0.28335484105E+03 -0.73026989867E+03 -0.38033475410E+03  0.87076897971E+03  0.00000000000E+00 0. -1.
         13    1    5    5    0    0 -0.35396918784E+03  0.51611247976E+03  0.16469791750E+03  0.64714116059E+03  0.00000000000E+00 0. -1.
        -13    1    5    5    0    0 -0.32957281154E+02  0.90538250500E+02  0.57324728210E+02  0.11211369965E+03  0.00000000000E+00 0.  1.
          4    1    6    6  503    0  0.10114468932E+03  0.14319199562E+03 -0.38555303570E+03  0.42353906446E+03  0.00000000000E+00 0. -1.
         -4    1    6    6    0  503 -0.18766508357E+02  0.11069830075E+02 -0.39165441233E+02  0.44818018260E+02  0.00000000000E+00 0.  1.
<mgrwt>
<rscale>  0 0.20608517E+04</rscale>
<asrwt>0</asrwt>
<pdfrwt beam="1">  1        1 0.21352151E+00 0.20608517E+04</pdfrwt>
<pdfrwt beam="2">  1       -1 0.11769693E+00 0.20608517E+04</pdfrwt>
<totfact> 0.46930936E+00</totfact>
</mgrwt>
</event>
<event>
12    3  0.4688899E-008  0.2809669E+04  0.7818608E-02  0.8300273E-01
         -2   -1    0    0    0  501 -0.00000000000E+00  0.00000000000E+00  0.99771294339E+03  0.99771294339E+03  0.00000000000E+00 0.  1.
          2   -1    0    0  501    0  0.00000000000E+00 -0.00000000000E+00 -0.19780842887E+04  0.19780842887E+04  0.00000000000E+00 0. -1.
         23    2    1    2    0    0  0.10592361461E+03  0.12528584165E+04 -0.48896916688E+03  0.13521391633E+04  0.91189071672E+02 0.  0.
        254    2    1    2    0    0 -0.10592361461E+03 -0.12528584165E+04 -0.49140217845E+03  0.16236580688E+04  0.90217259956E+03 0.  0.
         23    2    4    4    0    0 -0.15932293737E+03 -0.13615925887E+04 -0.51312233714E+03  0.14664969346E+04  0.89445795745E+02 0.  0.
         23    2    4    4    0    0  0.53399322757E+02  0.10873417218E+03  0.21720158688E+02  0.15716113419E+03  0.97740723015E+02 0.  0.
          1    1    3    3  502    0  0.12091587674E+03  0.10338451441E+04 -0.41317174796E+03  0.11198961222E+04  0.00000000000E+00 0. -1.
         -1    1    3    3    0  502 -0.14992262129E+02  0.21901327243E+03 -0.75797418916E+02  0.23224304110E+03  0.00000000000E+00 0.  1.
         13    1    5    5    0    0 -0.12016637957E+03 -0.68109016953E+03 -0.23749837933E+03  0.73125184307E+03  0.00000000000E+00 0. -1.
        -13    1    5    5    0    0 -0.39156557796E+02 -0.68050241917E+03 -0.27562395781E+03  0.73524509154E+03  0.00000000000E+00 0.  1.
          3    1    6    6  503    0  0.62148409596E+02  0.10733818436E+03  0.45242383278E+02  0.13202569402E+03  0.00000000000E+00 0. -1.
         -3    1    6    6    0  503 -0.87490868388E+01  0.13959878116E+01 -0.23522224590E+02  0.25135440162E+02  0.00000000000E+00 0.  1.
<mgrwt>
<rscale>  0 0.28096692E+04</rscale>
<asrwt>0</asrwt>
<pdfrwt beam="1">  1        2 0.30432066E+00 0.28096692E+04</pdfrwt>
<pdfrwt beam="2">  1       -2 0.15349430E+00 0.28096692E+04</pdfrwt>
<totfact> 0.16837272E+00</totfact>
</mgrwt>
</event>
<event>
12    3  0.4688899E-008  0.2650573E+04  0.7818608E-02  0.8351223E-01
          1   -1    0    0  501    0  0.00000000000E+00  0.00000000000E+00  0.16499036086E+04  0.16499036086E+04  0.00000000000E+00 0. -1.
         -1   -1    0    0    0  501 -0.00000000000E+00 -0.00000000000E+00 -0.10645371441E+04  0.10645371441E+04  0.00000000000E+00 0.  1.
         23    2    1    2    0    0  0.96916371320E+03  0.64478920578E+03  0.19524466439E+03  0.11839296693E+04  0.92398917357E+02 0.  0.
        254    2    1    2    0    0 -0.96916371320E+03 -0.64478920578E+03  0.39012180014E+03  0.15305110834E+04  0.91391341741E+03 0.  0.
         23    2    4    4    0    0  0.56985037186E+02 -0.11826320701E+03 -0.18081207518E+03  0.24042892970E+03  0.88767015883E+02 0.  0.
         23    2    4    4    0    0 -0.10261487504E+04 -0.52652599877E+03  0.57093387532E+03  0.12900821537E+04  0.90197494148E+02 0.  0.
          1    1    3    3  502    0  0.19654817491E+03  0.14086421886E+03  0.38004606086E+01  0.24184366173E+03  0.00000000000E+00 0. -1.
         -1    1    3    3    0  502  0.77261553829E+03  0.50392498692E+03  0.19144420378E+03  0.94208600754E+03  0.00000000000E+00 0.  1.
         13    1    5    5    0    0  0.50340208267E+02 -0.69436799611E+02 -0.46927222280E+02  0.97763847610E+02  0.00000000000E+00 0.  1.
        -13    1    5    5    0    0  0.66448289195E+01 -0.48826407399E+02 -0.13388485290E+03  0.14266508209E+03  0.00000000000E+00 0. -1.
          1    1    6    6  503    0 -0.81259950201E+03 -0.45066262427E+03  0.48044258702E+03  0.10460591910E+04  0.00000000000E+00 0. -1.
         -1    1    6    6    0  503 -0.21354924838E+03 -0.75863374497E+02  0.90491288299E+02  0.24402296271E+03  0.00000000000E+00 0.  1.
<mgrwt>
<rscale>  0 0.26505725E+04</rscale>
<asrwt>0</asrwt>
<pdfrwt beam="1">  1        1 0.25383133E+00 0.26505725E+04</pdfrwt>
<pdfrwt beam="2">  1       -1 0.16377494E+00 0.26505725E+04</pdfrwt>
<totfact> 0.12377749E+00</totfact>
</mgrwt>
</event>
<event>
12    3  0.4688899E-008  0.1509728E+04  0.7818608E-02  0.8878009E-01
          1   -1    0    0  501    0  0.00000000000E+00  0.00000000000E+00  0.86833290257E+03  0.86833290257E+03  0.00000000000E+00 0. -1.
         -1   -1    0    0    0  501 -0.00000000000E+00 -0.00000000000E+00 -0.65622289611E+03  0.65622289611E+03  0.00000000000E+00 0.  1.
         23    2    1    2    0    0 -0.15982868871E+03  0.34321622845E+03 -0.20299974915E+03  0.43914764700E+03  0.91099772267E+02 0.  0.
        254    2    1    2    0    0  0.15982868871E+03 -0.34321622845E+03  0.41510975561E+03  0.10854081517E+04  0.92868302306E+03 0.  0.
         23    2    4    4    0    0 -0.38000352943E+03 -0.12055906660E+03  0.20342896780E+03  0.45763719840E+03  0.95453074846E+02 0.  0.
         23    2    4    4    0    0  0.53983221814E+03 -0.22265716185E+03  0.21168078781E+03  0.62777095328E+03  0.91063595278E+02 0.  0.
          2    1    3    3  502    0 -0.56717528841E+02  0.21331492180E+03 -0.14188483122E+03  0.26239557784E+03  0.00000000000E+00 0. -1.
         -2    1    3    3    0  502 -0.10311115987E+03  0.12990130664E+03 -0.61114917927E+02  0.17675206916E+03  0.00000000000E+00 0.  1.
         13    1    5    5    0    0 -0.34818664156E+03 -0.13270370735E+03  0.20129677176E+03  0.42351458254E+03  0.00000000000E+00 0.  1.
        -13    1    5    5    0    0 -0.31816887877E+02  0.12144640749E+02  0.21321960358E+01  0.34122615858E+02  0.00000000000E+00 0. -1.
          2    1    6    6  503    0  0.20247170894E+03 -0.62528277676E+02  0.11889193022E+03  0.24298121224E+03  0.00000000000E+00 0. -1.
         -2    1    6    6    0  503  0.33736050921E+03 -0.16012888417E+03  0.92788857594E+02  0.38478974104E+03  0.00000000000E+00 0.  1.
<mgrwt>
<rscale>  0 0.15097284E+04</rscale>
<asrwt>0</asrwt>
<pdfrwt beam="1">  1        1 0.13358968E+00 0.15097284E+04</pdfrwt>
<pdfrwt beam="2">  1       -1 0.10095737E+00 0.15097284E+04</pdfrwt>
<totfact> 0.17428094E+01</totfact>
</mgrwt>
</event>
<event>
12    3  0.4688899E-008  0.2033903E+04  0.7818608E-02  0.8590932E-01
         -1   -1    0    0    0  501 -0.00000000000E+00  0.00000000000E+00  0.17946641435E+04  0.17946641435E+04  0.00000000000E+00 0.  1.
          1   -1    0    0  501    0  0.00000000000E+00 -0.00000000000E+00 -0.57625834216E+03  0.57625834216E+03  0.00000000000E+00 0. -1.
         23    2    1    2    0    0 -0.61530969058E+03  0.32352300646E+03  0.23914805397E+02  0.70137571209E+03  0.89904508039E+02 0.  0.
        254    2    1    2    0    0  0.61530969058E+03 -0.32352300646E+03  0.11944909959E+04  0.16695467736E+04  0.93664536443E+03 0.  0.
         23    2    4    4    0    0  0.51912027824E+03 -0.21498184013E+03  0.13329427551E+04  0.14493305335E+04  0.90108557650E+02 0.  0.
         23    2    4    4    0    0  0.96189412341E+02 -0.10854116633E+03 -0.13845175914E+03  0.22021624006E+03  0.91064345060E+02 0.  0.
          4    1    3    3  502    0 -0.52800843925E+03  0.24515173286E+03  0.37061952061E+02  0.58332312858E+03  0.00000000000E+00 0. -1.
         -4    1    3    3    0  502 -0.87301251332E+02  0.78371273594E+02 -0.13147146665E+02  0.11805258351E+03  0.00000000000E+00 0.  1.
         13    1    5    5    0    0  0.99914793206E+02 -0.87907161685E+01  0.27928521899E+03  0.29674985449E+03  0.00000000000E+00 0. -1.
        -13    1    5    5    0    0  0.41920548503E+03 -0.20619112396E+03  0.10536575361E+04  0.11525806790E+04  0.00000000000E+00 0.  1.
          3    1    6    6  503    0  0.17860939802E+01 -0.11983442178E+02  0.12683946158E+02  0.17540681523E+02  0.00000000000E+00 0. -1.
         -3    1    6    6    0  503  0.94403318361E+02 -0.96557724148E+02 -0.15113570530E+03  0.20267555854E+03  0.00000000000E+00 0.  1.
<mgrwt>
<rscale>  0 0.20339028E+04</rscale>
<asrwt>0</asrwt>
<pdfrwt beam="1">  1        1 0.88655130E-01 0.20339028E+04</pdfrwt>
<pdfrwt beam="2">  1       -1 0.27610217E+00 0.20339028E+04</pdfrwt>
<totfact> 0.15841472E+00</totfact>
</mgrwt>
</event>
<event>
12    3  0.4688899E-008  0.1917882E+04  0.7818608E-02  0.8646006E-01
         -1   -1    0    0    0  501 -0.00000000000E+00  0.00000000000E+00  0.15465951968E+04  0.15465951968E+04  0.00000000000E+00 0.  1.
          1   -1    0    0  501    0  0.00000000000E+00 -0.00000000000E+00 -0.59457538889E+03  0.59457538889E+03  0.00000000000E+00 0. -1.
         23    2    1    2    0    0 -0.86660516429E+02  0.66679733242E+03  0.73180730700E+03  0.99879725236E+03  0.99625745245E+02 0.  0.
        254    2    1    2    0    0  0.86660516429E+02 -0.66679733242E+03  0.22021250087E+03  0.11423733333E+04  0.89688045996E+03 0.  0.
         23    2    4    4    0    0  0.11962935249E+03 -0.68888667044E+03 -0.18189633124E+03  0.72780774092E+03  0.87987531665E+02 0.  0.
         23    2    4    4    0    0 -0.32968836059E+02  0.22089338021E+02  0.40210883211E+03  0.41456559238E+03  0.92726665630E+02 0.  0.
          1    1    3    3  502    0  0.58077368867E+01 -0.52122629124E+00  0.41479969361E+01  0.71559320270E+01  0.00000000000E+00 0. -1.
         -1    1    3    3    0  502 -0.92468253315E+02  0.66731855871E+03  0.72765931006E+03  0.99164132033E+03  0.00000000000E+00 0.  1.
         13    1    5    5    0    0  0.86795401186E+02 -0.35353440444E+03 -0.57098216749E+02  0.36848368098E+03  0.00000000000E+00 0. -1.
        -13    1    5    5    0    0  0.32833951302E+02 -0.33535226600E+03 -0.12479811449E+03  0.35932405994E+03  0.00000000000E+00 0.  1.
          4    1    6    6  503    0 -0.92165574607E+01 -0.23415723408E+02  0.29197031700E+03  0.29305273765E+03  0.00000000000E+00 0.  1.
         -4    1    6    6    0  503 -0.23752278598E+02  0.45505061429E+02  0.11013851511E+03  0.12151285473E+03  0.00000000000E+00 0. -1.
<mgrwt>
<rscale>  0 0.19178816E+04</rscale>
<asrwt>0</asrwt>
<pdfrwt beam="1">  1        1 0.91473137E-01 0.19178816E+04</pdfrwt>
<pdfrwt beam="2">  1       -1 0.23793772E+00 0.19178816E+04</pdfrwt>
<totfact> 0.27114754E+00</totfact>
</mgrwt>
</event>
<event>
12    3  0.4688899E-008  0.1611915E+04  0.7818608E-02  0.8813261E-01
          2   -1    0    0  501    0  0.00000000000E+00  0.00000000000E+00  0.44041776035E+03  0.44041776035E+03  0.00000000000E+00 0.  1.
         -2   -1    0    0    0  501 -0.00000000000E+00 -0.00000000000E+00 -0.14748899033E+04  0.14748899033E+04  0.00000000000E+00 0. -1.
         23    2    1    2    0    0  0.55225781432E+02 -0.49330446251E+03 -0.63809328141E+03  0.81341756671E+03  0.89921757008E+02 0.  0.
        254    2    1    2    0    0 -0.55225781432E+02  0.49330446251E+03 -0.39637886155E+03  0.11018900969E+04  0.90035904182E+03 0.  0.
         23    2    4    4    0    0  0.19407261361E+03 -0.75583687198E+02  0.14804215048E+03  0.27115964255E+03  0.90741392467E+02 0.  0.
         23    2    4    4    0    0 -0.24929839504E+03  0.56888814971E+03 -0.54442101203E+03  0.83073045439E+03  0.89081046598E+02 0.  0.
          4    1    3    3  502    0  0.64954058279E+02 -0.29780439763E+03 -0.33809648022E+03  0.45520953293E+03  0.00000000000E+00 0. -1.
         -4    1    3    3    0  502 -0.97282768478E+01 -0.19550006488E+03 -0.29999680119E+03  0.35820803378E+03  0.00000000000E+00 0.  1.
         13    1    5    5    0    0  0.22579690280E+02  0.20048250978E+02  0.13151002344E+02  0.32935142979E+02  0.00000000000E+00 0. -1.
        -13    1    5    5    0    0  0.17149292333E+03 -0.95631938176E+02  0.13489114814E+03  0.23822449957E+03  0.00000000000E+00 0.  1.
          3    1    6    6  503    0 -0.52297209985E+02  0.65166014769E+02 -0.46817741066E+02  0.95778434585E+02  0.00000000000E+00 0. -1.
         -3    1    6    6    0  503 -0.19700118505E+03  0.50372213494E+03 -0.49760327096E+03  0.73495201980E+03  0.00000000000E+00 0.  1.
<mgrwt>
<rscale>  0 0.16119153E+04</rscale>
<asrwt>0</asrwt>
<pdfrwt beam="1">  1        2 0.67756578E-01 0.16119153E+04</pdfrwt>
<pdfrwt beam="2">  1       -2 0.22690614E+00 0.16119153E+04</pdfrwt>
<totfact> 0.61024222E+00</totfact>
</mgrwt>
</event>
<event>
12    3  0.4688899E-008  0.1816027E+04  0.7818608E-02  0.8697823E-01
          2   -1    0    0  501    0  0.00000000000E+00  0.00000000000E+00  0.14414600193E+04  0.14414600193E+04  0.00000000000E+00 0. -1.
         -2   -1    0    0    0  501 -0.00000000000E+00 -0.00000000000E+00 -0.57198153312E+03  0.57198153312E+03  0.00000000000E+00 0.  1.
         23    2    1    2    0    0 -0.46778803832E+03 -0.42135573046E+03  0.39909275710E+02  0.63717246160E+03  0.89608566244E+02 0.  0.
        254    2    1    2    0    0  0.46778803832E+03  0.42135573046E+03  0.82956921044E+03  0.13762690908E+04  0.89975843145E+03 0.  0.
         23    2    4    4    0    0  0.68164664146E+03  0.37612299980E+03  0.82719637288E+03  0.11395410638E+04  0.90494983029E+02 0.  0.
         23    2    4    4    0    0 -0.21385860313E+03  0.45232730656E+02  0.23728375609E+01  0.23672802701E+03  0.90846168630E+02 0.  0.
          1    1    3    3  502    0 -0.42821639599E+03 -0.40003615239E+03  0.15910642789E+02  0.58621783798E+03  0.00000000000E+00 0. -1.
         -1    1    3    3    0  502 -0.39571642334E+02 -0.21319578068E+02  0.23998632921E+02  0.50954623618E+02  0.00000000000E+00 0.  1.
         13    1    5    5    0    0  0.14692883486E+01  0.88217214159E+01  0.26956213851E+01  0.93406611994E+01  0.00000000000E+00 0. -1.
        -13    1    5    5    0    0  0.68017735311E+03  0.36730127839E+03  0.82450075149E+03  0.11302004026E+04  0.00000000000E+00 0.  1.
          2    1    6    6  503    0  0.37488249173E+01  0.90414826358E+01 -0.12211466064E+02  0.15649984024E+02  0.00000000000E+00 0. -1.
         -2    1    6    6    0  503 -0.21760742805E+03  0.36191248020E+02  0.14584303625E+02  0.22107804298E+03  0.00000000000E+00 0.  1.
<mgrwt>
<rscale>  0 0.18160270E+04</rscale>
<asrwt>0</asrwt>
<pdfrwt beam="1">  1        2 0.22176308E+00 0.18160270E+04</pdfrwt>
<pdfrwt beam="2">  1       -2 0.87997160E-01 0.18160270E+04</pdfrwt>
<totfact> 0.14381016E+01</totfact>
</mgrwt>
</event>
<event>
12    3  0.4688899E-008  0.1207877E+04  0.7818608E-02  0.9105989E-01
          1   -1    0    0  501    0  0.00000000000E+00  0.00000000000E+00  0.10577993015E+04  0.10577993015E+04  0.00000000000E+00 0. -1.
         -1   -1    0    0    0  501 -0.00000000000E+00 -0.00000000000E+00 -0.34481197228E+03  0.34481197228E+03  0.00000000000E+00 0.  1.
         23    2    1    2    0    0 -0.11067914388E+03 -0.23281813841E+03  0.13939898830E+03  0.30834835775E+03  0.95877386944E+02 0.  0.
        254    2    1    2    0    0  0.11067914388E+03  0.23281813841E+03  0.57358834097E+03  0.10942629161E+04  0.89551861294E+03 0.  0.
         23    2    4    4    0    0  0.45449489143E+03  0.31547320273E+03  0.28588587623E+03  0.62925915756E+03  0.90262977862E+02 0.  0.
         23    2    4    4    0    0 -0.34381574755E+03 -0.82655064323E+02  0.28770246474E+03  0.46500375851E+03  0.91731452026E+02 0.  0.
          2    1    3    3  502    0 -0.51980568941E+02 -0.22575778606E+02  0.31861474443E+02  0.65013836071E+02  0.00000000000E+00 0. -1.
         -2    1    3    3    0  502 -0.58698574944E+02 -0.21024235980E+03  0.10753751386E+03  0.24333452168E+03  0.00000000000E+00 0.  1.
         13    1    5    5    0    0  0.14297437114E+02  0.55521500093E+01 -0.64676671164E+01  0.16645533806E+02  0.00000000000E+00 0.  1.
        -13    1    5    5    0    0  0.44019745432E+03  0.30992105272E+03  0.29235354335E+03  0.61261362376E+03  0.00000000000E+00 0. -1.
          2    1    6    6  503    0 -0.17022854125E+03 -0.87916335856E+02  0.14676014707E+03  0.24134120895E+03  0.00000000000E+00 0. -1.
         -2    1    6    6    0  503 -0.17358720629E+03  0.52612715331E+01  0.14094231766E+03  0.22366254956E+03  0.00000000000E+00 0.  1.
<mgrwt>
<rscale>  0 0.12078773E+04</rscale>
<asrwt>0</asrwt>
<pdfrwt beam="1">  1        1 0.16273835E+00 0.12078773E+04</pdfrwt>
<pdfrwt beam="2">  1       -1 0.53047996E-01 0.12078773E+04</pdfrwt>
<totfact> 0.48371899E+01</totfact>
</mgrwt>
</event>
<event>
12    3  0.4688899E-008  0.1081968E+04  0.7818608E-02  0.9222948E-01
          1   -1    0    0  501    0  0.00000000000E+00  0.00000000000E+00  0.78540592881E+03  0.78540592881E+03  0.00000000000E+00 0. -1.
         -1   -1    0    0    0  501 -0.00000000000E+00 -0.00000000000E+00 -0.37262703459E+03  0.37262703459E+03  0.00000000000E+00 0.  1.
         23    2    1    2    0    0  0.42544644461E+02  0.56892072502E+02 -0.63742689384E+02  0.13480615142E+03  0.95198809473E+02 0.  0.
        254    2    1    2    0    0 -0.42544644461E+02 -0.56892072502E+02  0.47652158361E+03  0.10232268120E+04  0.90270345874E+03 0.  0.
         23    2    4    4    0    0  0.29195164365E+03  0.11373171895E+03  0.54069165506E+03  0.63209506755E+03  0.95005486392E+02 0.  0.
         23    2    4    4    0    0 -0.33449628811E+03 -0.17062379145E+03 -0.64170071453E+02  0.39113174443E+03  0.88690464286E+02 0.  0.
          2    1    3    3  502    0  0.30940824134E+02 -0.83217808064E+01  0.11974605535E+02  0.34204938410E+02  0.00000000000E+00 0. -1.
         -2    1    3    3    0  502  0.11603820327E+02  0.65213853309E+02 -0.75717294919E+02  0.10060121301E+03  0.00000000000E+00 0.  1.
         13    1    5    5    0    0  0.14465346776E+03  0.86335036342E+01  0.27125619744E+03  0.30753713234E+03  0.00000000000E+00 0.  1.
        -13    1    5    5    0    0  0.14729817589E+03  0.10509821532E+03  0.26943545762E+03  0.32455793521E+03  0.00000000000E+00 0. -1.
          4    1    6    6  503    0 -0.84337233473E+01  0.12683339147E+00  0.12582779611E+02  0.15148271154E+02  0.00000000000E+00 0. -1.
         -4    1    6    6    0  503 -0.32606256477E+03 -0.17075062485E+03 -0.76752851064E+02  0.37598347327E+03  0.00000000000E+00 0.  1.
<mgrwt>
<rscale>  0 0.10819676E+04</rscale>
<asrwt>0</asrwt>
<pdfrwt beam="1">  1        1 0.12083168E+00 0.10819676E+04</pdfrwt>
<pdfrwt beam="2">  1       -1 0.57327236E-01 0.10819676E+04</pdfrwt>
<totfact> 0.70002055E+01</totfact>
</mgrwt>
</event>
<event>
12    3  0.4688899E-008  0.3302709E+04  0.7818608E-02  0.8162206E-01
         -1   -1    0    0    0  501 -0.00000000000E+00  0.00000000000E+00  0.12903176550E+04  0.12903176550E+04  0.00000000000E+00 0.  1.
          1   -1    0    0  501    0  0.00000000000E+00 -0.00000000000E+00 -0.21134109224E+04  0.21134109224E+04  0.00000000000E+00 0. -1.
         23    2    1    2    0    0 -0.11312995064E+04  0.15873816284E+03  0.66470767837E+03  0.13251349845E+04  0.95446592290E+02 0.  0.
        254    2    1    2    0    0  0.11312995064E+04 -0.15873816284E+03 -0.14878009458E+04  0.20785935929E+04  0.89552403240E+03 0.  0.
         23    2    4    4    0    0  0.10278284337E+04 -0.18443876901E+03 -0.15900458671E+04  0.19044866920E+04  0.91513669107E+02 0.  0.
         23    2    4    4    0    0  0.10347107266E+03  0.25700606178E+02  0.10224492136E+03  0.17410690090E+03  0.92154245496E+02 0.  0.
          4    1    3    3  502    0 -0.38703686642E+03  0.81525462627E+02  0.18808797376E+03  0.43797376965E+03  0.00000000000E+00 0. -1.
         -4    1    3    3    0  502 -0.74426263996E+03  0.77212700209E+02  0.47661970461E+03  0.88716121485E+03  0.00000000000E+00 0.  1.
         13    1    5    5    0    0  0.11109867531E+02  0.17664798193E+01 -0.38955141171E+02  0.40546918886E+02  0.00000000000E+00 0.  1.
        -13    1    5    5    0    0  0.10167185662E+04 -0.18620524883E+03 -0.15510907260E+04  0.18639397731E+04  0.00000000000E+00 0. -1.
          4    1    6    6  503    0 -0.53339579859E+00  0.12266924216E+02  0.59678873452E+02  0.60928891975E+02  0.00000000000E+00 0. -1.
         -4    1    6    6    0  503  0.10400446846E+03  0.13433681962E+02  0.42566047904E+02  0.11317800892E+03  0.00000000000E+00 0.  1.
<mgrwt>
<rscale>  0 0.33027088E+04</rscale>
<asrwt>0</asrwt>
<pdfrwt beam="1">  1        1 0.32514014E+00 0.33027088E+04</pdfrwt>
<pdfrwt beam="2">  1       -1 0.19851041E+00 0.33027088E+04</pdfrwt>
<totfact> 0.31900047E-01</totfact>
</mgrwt>
</event>
<event>
12    3  0.4688899E-008  0.1478300E+04  0.7818608E-02  0.8899013E-01
         -1   -1    0    0    0  501 -0.00000000000E+00  0.00000000000E+00  0.57805096643E+03  0.57805096643E+03  0.00000000000E+00 0.  1.
          1   -1    0    0  501    0  0.00000000000E+00 -0.00000000000E+00 -0.94514655253E+03  0.94514655253E+03  0.00000000000E+00 0. -1.
         23    2    1    2    0    0  0.41969969707E+03  0.11510716538E+03 -0.26930439412E+03  0.51764637459E+03  0.77687947573E+02 0.  0.
        254    2    1    2    0    0 -0.41969969707E+03 -0.11510716538E+03 -0.97791191983E+02  0.10055511444E+04  0.90120613150E+03 0.  0.
         23    2    4    4    0    0  0.51616842200E+02 -0.38039354453E+03  0.12473201141E+03  0.41375266013E+03  0.90937571819E+02 0.  0.
         23    2    4    4    0    0 -0.47131653927E+03  0.26528637915E+03 -0.22252320340E+03  0.59179848423E+03  0.90513682595E+02 0.  0.
          1    1    3    3  502    0  0.35070498091E+03  0.83894965575E+02 -0.18847023909E+03  0.40688251364E+03  0.00000000000E+00 0. -1.
         -1    1    3    3    0  502  0.68994716159E+02  0.31212199803E+02 -0.80834155024E+02  0.11076386095E+03  0.00000000000E+00 0.  1.
         13    1    5    5    0    0  0.57984762803E+02 -0.38309510384E+03  0.12111603145E+03  0.40594726798E+03  0.00000000000E+00 0.  1.
        -13    1    5    5    0    0 -0.63679206030E+01  0.27015593074E+01  0.36159799604E+01  0.78053921472E+01  0.00000000000E+00 0. -1.
          2    1    6    6  503    0 -0.28218205196E+02  0.10115462495E+02 -0.37552870632E+02  0.48050054929E+02  0.00000000000E+00 0. -1.
         -2    1    6    6    0  503 -0.44309833408E+03  0.25517091666E+03 -0.18497033276E+03  0.54374842931E+03  0.00000000000E+00 0.  1.
<mgrwt>
<rscale>  0 0.14783002E+04</rscale>
<asrwt>0</asrwt>
<pdfrwt beam="1">  1        1 0.14540716E+00 0.14783002E+04</pdfrwt>
<pdfrwt beam="2">  1       -1 0.88930919E-01 0.14783002E+04</pdfrwt>
<totfact> 0.20104985E+01</totfact>
</mgrwt>
</event>
<event>
12    3  0.4688899E-008  0.2593139E+04  0.7818608E-02  0.8370535E-01
         -2   -1    0    0    0  501 -0.00000000000E+00  0.00000000000E+00  0.50162696748E+03  0.50162696748E+03  0.00000000000E+00 0.  1.
          2   -1    0    0  501    0  0.00000000000E+00 -0.00000000000E+00 -0.33512804076E+04  0.33512804076E+04  0.00000000000E+00 0. -1.
         23    2    1    2    0    0  0.41239007746E+03  0.47370513292E+03  0.15453849237E+03  0.65332906978E+03  0.92166148057E+02 0.  0.
        254    2    1    2    0    0 -0.41239007746E+03 -0.47370513292E+03 -0.30041919325E+04  0.31995783053E+04  0.90425109095E+03 0.  0.
         23    2    4    4    0    0  0.26389138373E+03 -0.76745068435E+02 -0.55455067595E+03  0.62582778765E+03  0.92765832402E+02 0.  0.
         23    2    4    4    0    0 -0.67628146119E+03 -0.39696006449E+03 -0.24496412566E+04  0.25737505176E+04  0.92279649698E+02 0.  0.
          1    1    3    3  502    0  0.10774925880E+03  0.67896013691E+02  0.31075220789E+02  0.13109325228E+03  0.00000000000E+00 0. -1.
         -1    1    3    3    0  502  0.30464081867E+03  0.40580911923E+03  0.12346327159E+03  0.52223581750E+03  0.00000000000E+00 0.  1.
         13    1    5    5    0    0  0.13870816636E+02 -0.20254365106E+02 -0.10970823640E+03  0.11242124352E+03  0.00000000000E+00 0.  1.
        -13    1    5    5    0    0  0.25002056709E+03 -0.56490703329E+02 -0.44484243955E+03  0.51340654413E+03  0.00000000000E+00 0. -1.
          4    1    6    6  503    0 -0.30901828135E+03 -0.14569292696E+03 -0.11753838539E+04  0.12240285663E+04  0.00000000000E+00 0. -1.
         -4    1    6    6    0  503 -0.36726317984E+03 -0.25126713753E+03 -0.12742574027E+04  0.13497219513E+04  0.00000000000E+00 0.  1.
<mgrwt>
<rscale>  0 0.25931391E+04</rscale>
<asrwt>0</asrwt>
<pdfrwt beam="1">  1        2 0.51558161E+00 0.25931391E+04</pdfrwt>
<pdfrwt beam="2">  1       -2 0.77173378E-01 0.25931391E+04</pdfrwt>
<totfact> 0.13651309E+00</totfact>
</mgrwt>
</event>
<event>
12    3  0.4688899E-008  0.1672223E+04  0.7818608E-02  0.8777367E-01
         -1   -1    0    0    0  501 -0.00000000000E+00  0.00000000000E+00  0.20599291958E+04  0.20599291958E+04  0.00000000000E+00 0.  1.
          1   -1    0    0  501    0  0.00000000000E+00 -0.00000000000E+00 -0.33937197112E+03  0.33937197112E+03  0.00000000000E+00 0. -1.
         23    2    1    2    0    0  0.29140020332E+01  0.51887596728E+03  0.10188838726E+04  0.11470943624E+04  0.91980267179E+02 0.  0.
        254    2    1    2    0    0 -0.29140020332E+01 -0.51887596728E+03  0.70167335205E+03  0.12522068045E+04  0.89801760975E+03 0.  0.
         23    2    4    4    0    0 -0.11913011028E+03 -0.31180924077E+03 -0.13948022858E+03  0.37347137794E+03  0.92785506267E+02 0.  0.
         23    2    4    4    0    0  0.11621610824E+03 -0.20706672651E+03  0.84115358063E+03  0.87873542656E+03  0.90850375002E+02 0.  0.
          1    1    3    3  502    0  0.49970215811E+00  0.11699032208E+03  0.15402960099E+03  0.19342208546E+03  0.00000000000E+00 0. -1.
         -1    1    3    3    0  502  0.24142998751E+01  0.40188564521E+03  0.86485427160E+03  0.95367227693E+03  0.00000000000E+00 0.  1.
         13    1    5    5    0    0 -0.11920964945E+03 -0.20054369630E+03 -0.11236724584E+03  0.25895001947E+03  0.00000000000E+00 0.  1.
        -13    1    5    5    0    0  0.79539173999E-01 -0.11126554447E+03 -0.27112982744E+02  0.11452135847E+03  0.00000000000E+00 0. -1.
          2    1    6    6  503    0  0.11017473998E+03 -0.15893415258E+03  0.75972770742E+03  0.78395454435E+03  0.00000000000E+00 0. -1.
         -2    1    6    6    0  503  0.60413682663E+01 -0.48132573939E+02  0.81425873213E+02  0.94780882213E+02  0.00000000000E+00 0.  1.
<mgrwt>
<rscale>  0 0.16722228E+04</rscale>
<asrwt>0</asrwt>
<pdfrwt beam="1">  1        1 0.52211074E-01 0.16722228E+04</pdfrwt>
<pdfrwt beam="2">  1       -1 0.31691218E+00 0.16722228E+04</pdfrwt>
<totfact> 0.18279919E+00</totfact>
</mgrwt>
</event>
<event>
12    3  0.4688899E-008  0.1172641E+04  0.7818608E-02  0.9137147E-01
         -2   -1    0    0    0  501 -0.00000000000E+00  0.00000000000E+00  0.14311739816E+03  0.14311739816E+03  0.00000000000E+00 0.  1.
          2   -1    0    0  501    0  0.00000000000E+00 -0.00000000000E+00 -0.24020255905E+04  0.24020255905E+04  0.00000000000E+00 0. -1.
         23    2    1    2    0    0  0.69307493363E+02 -0.97238620058E+02 -0.48881246130E+02  0.15885287056E+03  0.92660565488E+02 0.  0.
        254    2    1    2    0    0 -0.69307493363E+02  0.97238620058E+02 -0.22100269462E+04  0.23862901181E+04  0.89213370462E+03 0.  0.
         23    2    4    4    0    0 -0.30240958934E+03 -0.21166498357E+03 -0.48572181305E+03  0.61669841131E+03  0.90208790303E+02 0.  0.
         23    2    4    4    0    0  0.23310209598E+03  0.30890360362E+03 -0.17243051332E+04  0.17695917068E+04  0.92024958681E+02 0.  0.
          3    1    3    3  502    0 -0.15841543503E+02 -0.20047687919E+02 -0.34640389596E+02  0.43044405941E+02  0.00000000000E+00 0. -1.
         -3    1    3    3    0  502  0.85149036866E+02 -0.77190932139E+02 -0.14240856534E+02  0.11580846462E+03  0.00000000000E+00 0.  1.
         13    1    5    5    0    0 -0.14465622805E+03 -0.66612740449E+02 -0.26415276759E+03  0.30844669901E+03  0.00000000000E+00 0. -1.
        -13    1    5    5    0    0 -0.15775336129E+03 -0.14505224312E+03 -0.22156904546E+03  0.30825171230E+03  0.00000000000E+00 0.  1.
          3    1    6    6  503    0 -0.83194170261E+00  0.17091944805E+02 -0.30365982191E+02  0.34855696502E+02  0.00000000000E+00 0. -1.
         -3    1    6    6    0  503  0.23393403768E+03  0.29181165882E+03 -0.16939391510E+04  0.17347360103E+04  0.00000000000E+00 0.  1.
<mgrwt>
<rscale>  0 0.11726409E+04</rscale>
<asrwt>0</asrwt>
<pdfrwt beam="1">  1        2 0.36954237E+00 0.11726409E+04</pdfrwt>
<pdfrwt beam="2">  1       -2 0.22018063E-01 0.11726409E+04</pdfrwt>
<totfact> 0.71059541E+01</totfact>
</mgrwt>
</event>
<event>
12    3  0.4688899E-008  0.1513120E+04  0.7818608E-02  0.8875775E-01
          2   -1    0    0  501    0  0.00000000000E+00  0.00000000000E+00  0.14957482672E+04  0.14957482672E+04  0.00000000000E+00 0.  1.
         -2   -1    0    0    0  501 -0.00000000000E+00 -0.00000000000E+00 -0.38267324456E+03  0.38267324456E+03  0.00000000000E+00 0. -1.
         23    2    1    2    0    0  0.20933295560E+03  0.93800356760E+02  0.89177815668E+03  0.92563787611E+03  0.94437300545E+02 0.  0.
        254    2    1    2    0    0 -0.20933295560E+03 -0.93800356760E+02  0.22129686593E+03  0.95278363562E+03  0.89788950334E+03 0.  0.
         23    2    4    4    0    0 -0.47239142080E+03 -0.21855692102E+03 -0.68934474128E+02  0.53267128205E+03  0.89810638692E+02 0.  0.
         23    2    4    4    0    0  0.26305846521E+03  0.12475656426E+03  0.29023134006E+03  0.42011235357E+03  0.86580612333E+02 0.  0.
          2    1    3    3  502    0  0.50713582317E+02  0.99089483990E+01  0.37608846447E+03  0.37962163768E+03  0.00000000000E+00 0. -1.
         -2    1    3    3    0  502  0.15861937328E+03  0.83891408361E+02  0.51568969221E+03  0.54601623843E+03  0.00000000000E+00 0.  1.
         13    1    5    5    0    0 -0.15392233991E+03 -0.11440005163E+03 -0.43411337926E+02  0.19663164241E+03  0.00000000000E+00 0. -1.
        -13    1    5    5    0    0 -0.31846908090E+03 -0.10415686938E+03 -0.25523136202E+02  0.33603963964E+03  0.00000000000E+00 0.  1.
          4    1    6    6  503    0  0.14574933274E+03  0.34644810736E+02  0.10442378735E+03  0.18261286447E+03  0.00000000000E+00 0. -1.
         -4    1    6    6    0  503  0.11730913247E+03  0.90111753522E+02  0.18580755270E+03  0.23749948910E+03  0.00000000000E+00 0.  1.
<mgrwt>
<rscale>  0 0.15131197E+04</rscale>
<asrwt>0</asrwt>
<pdfrwt beam="1">  1        2 0.23011512E+00 0.15131197E+04</pdfrwt>
<pdfrwt beam="2">  1       -2 0.58872807E-01 0.15131197E+04</pdfrwt>
<totfact> 0.33209865E+01</totfact>
</mgrwt>
</event>
<event>
12    3  0.4688899E-008  0.1857220E+04  0.7818608E-02  0.8676449E-01
          2   -1    0    0  501    0  0.00000000000E+00  0.00000000000E+00  0.14412926628E+04  0.14412926628E+04  0.00000000000E+00 0. -1.
         -2   -1    0    0    0  501 -0.00000000000E+00 -0.00000000000E+00 -0.59829381718E+03  0.59829381718E+03  0.00000000000E+00 0.  1.
         23    2    1    2    0    0  0.55635384276E+03  0.33866812301E+02  0.80071480065E+03  0.98044463668E+03  0.97215915811E+02 0.  0.
        254    2    1    2    0    0 -0.55635384276E+03 -0.33866812301E+02  0.42284044968E+02  0.10591418433E+04  0.89962044465E+03 0.  0.
         23    2    4    4    0    0  0.23476693251E+03 -0.59052723431E+02 -0.16311489731E+02  0.26010223294E+03  0.93724970746E+02 0.  0.
         23    2    4    4    0    0 -0.79112077527E+03  0.25185911129E+02  0.58595534699E+02  0.79903961036E+03  0.92327953771E+02 0.  0.
          4    1    3    3  502    0  0.12367749485E+03 -0.93086446118E+01  0.24712605730E+03  0.27650327628E+03  0.00000000000E+00 0. -1.
         -4    1    3    3    0  502  0.43267634791E+03  0.43175456913E+02  0.55358874335E+03  0.70394136040E+03  0.00000000000E+00 0.  1.
         13    1    5    5    0    0  0.23228501441E+03 -0.51314483177E+02 -0.34316785882E+02  0.24034796836E+03  0.00000000000E+00 0. -1.
        -13    1    5    5    0    0  0.24819180986E+01 -0.77382402535E+01  0.18005296151E+02  0.19754264581E+02  0.00000000000E+00 0.  1.
          2    1    6    6  503    0 -0.46793225827E+03 -0.30259800172E+02  0.39635987885E+02  0.47058183706E+03  0.00000000000E+00 0. -1.
         -2    1    6    6    0  503 -0.32318851700E+03  0.55445711301E+02  0.18959546814E+02  0.32845777329E+03  0.00000000000E+00 0.  1.
<mgrwt>
<rscale>  0 0.18572200E+04</rscale>
<asrwt>0</asrwt>
<pdfrwt beam="1">  1        2 0.22173733E+00 0.18572200E+04</pdfrwt>
<pdfrwt beam="2">  1       -2 0.92045203E-01 0.18572200E+04</pdfrwt>
<totfact> 0.12922712E+01</totfact>
</mgrwt>
</event>
<event>
12    3  0.4688899E-008  0.1528863E+04  0.7818608E-02  0.8865483E-01
         -1   -1    0    0    0  501 -0.00000000000E+00  0.00000000000E+00  0.71863215925E+03  0.71863215925E+03  0.00000000000E+00 0. -1.
          1   -1    0    0  501    0  0.00000000000E+00 -0.00000000000E+00 -0.81314990236E+03  0.81314990236E+03  0.00000000000E+00 0.  1.
         23    2    1    2    0    0  0.26994765457E+02 -0.58955228818E+02 -0.52086430138E+03  0.53300500194E+03  0.92683737920E+02 0.  0.
        254    2    1    2    0    0 -0.26994765457E+02  0.58955228818E+02  0.42634655827E+03  0.99877705967E+03  0.90087723404E+03 0.  0.
         23    2    4    4    0    0  0.16865662056E+03  0.43174738666E+03  0.23514171048E+03  0.52726206691E+03  0.88672440157E+02 0.  0.
         23    2    4    4    0    0 -0.19565138602E+03 -0.37279215784E+03  0.19120484779E+03  0.47151499277E+03  0.92269370783E+02 0.  0.
          4    1    3    3  502    0  0.25810167174E+02 -0.43830444956E+02 -0.10309394950E+03  0.11495927565E+03  0.00000000000E+00 0. -1.
         -4    1    3    3    0  502  0.11845982825E+01 -0.15124783862E+02 -0.41777035188E+03  0.41804572629E+03  0.00000000000E+00 0.  1.
         13    1    5    5    0    0 -0.63463943757E+01  0.86547268156E+01  0.16975755835E+02  0.20083757218E+02  0.00000000000E+00 0.  1.
        -13    1    5    5    0    0  0.17500301494E+03  0.42309265984E+03  0.21816595464E+03  0.50717830969E+03  0.00000000000E+00 0. -1.
          4    1    6    6  503    0  0.63431784230E+01 -0.48595607126E+02  0.20176473308E+02  0.52998669979E+02  0.00000000000E+00 0.  1.
         -4    1    6    6    0  503 -0.20199456444E+03 -0.32419655071E+03  0.17102837449E+03  0.41851632279E+03  0.00000000000E+00 0. -1.
<mgrwt>
<rscale>  0 0.15288632E+04</rscale>
<asrwt>0</asrwt>
<pdfrwt beam="1">  1        1 0.12509999E+00 0.15288632E+04</pdfrwt>
<pdfrwt beam="2">  1       -1 0.11055879E+00 0.15288632E+04</pdfrwt>
<totfact> 0.15677225E+01</totfact>
</mgrwt>
</event>
<event>
12    3  0.4688899E-008  0.1536147E+04  0.7818608E-02  0.8860765E-01
         -2   -1    0    0    0  501 -0.00000000000E+00  0.00000000000E+00  0.75452182408E+03  0.75452182408E+03  0.00000000000E+00 0.  1.
          2   -1    0    0  501    0  0.00000000000E+00 -0.00000000000E+00 -0.78186833499E+03  0.78186833499E+03  0.00000000000E+00 0. -1.
         23    2    1    2    0    0  0.16084951014E+03 -0.32971067364E+03 -0.35801947181E+03  0.51773701792E+03  0.72746026031E+02 0.  0.
        254    2    1    2    0    0 -0.16084951014E+03  0.32971067364E+03  0.33067296090E+03  0.10186531412E+04  0.89091409333E+03 0.  0.
         23    2    4    4    0    0 -0.44972141629E+03 -0.44272608205E+02  0.57600392817E+02  0.46485297836E+03  0.92526051078E+02 0.  0.
         23    2    4    4    0    0  0.28887190615E+03  0.37398328184E+03  0.27307256808E+03  0.55380016280E+03  0.93890998577E+02 0.  0.
          4    1    3    3  502    0  0.13387889901E+03 -0.22127460914E+03 -0.28173656821E+03  0.38244150679E+03  0.00000000000E+00 0. -1.
         -4    1    3    3    0  502  0.26970611130E+02 -0.10843606450E+03 -0.76282903593E+02  0.13529551112E+03  0.00000000000E+00 0.  1.
         13    1    5    5    0    0 -0.10147260197E+03 -0.42844140823E+02  0.36205762323E+02  0.11594467034E+03  0.00000000000E+00 0.  1.
        -13    1    5    5    0    0 -0.34824881432E+03 -0.14284673827E+01  0.21394630494E+02  0.34890830802E+03  0.00000000000E+00 0. -1.
          1    1    6    6  503    0  0.18024889832E+03  0.18810915157E+03  0.19249976283E+03  0.32393035816E+03  0.00000000000E+00 0. -1.
         -1    1    6    6    0  503  0.10862300783E+03  0.18587413028E+03  0.80572805245E+02  0.22986980463E+03  0.00000000000E+00 0.  1.
<mgrwt>
<rscale>  0 0.15361468E+04</rscale>
<asrwt>0</asrwt>
<pdfrwt beam="1">  1        2 0.12028744E+00 0.15361468E+04</pdfrwt>
<pdfrwt beam="2">  1       -2 0.11608028E+00 0.15361468E+04</pdfrwt>
<totfact> 0.19719540E+01</totfact>
</mgrwt>
</event>
<event>
12    3  0.4688899E-008  0.1493526E+04  0.7818608E-02  0.8888769E-01
         -1   -1    0    0    0  501 -0.00000000000E+00  0.00000000000E+00  0.50174337942E+03  0.50174337942E+03  0.00000000000E+00 0.  1.
          1   -1    0    0  501    0  0.00000000000E+00 -0.00000000000E+00 -0.11114352878E+04  0.11114352878E+04  0.00000000000E+00 0. -1.
         23    2    1    2    0    0  0.11152009396E+03  0.19041456562E+03 -0.61365700644E+03  0.65846704789E+03  0.91156422959E+02 0.  0.
        254    2    1    2    0    0 -0.11152009396E+03 -0.19041456562E+03  0.39650980988E+01  0.95471161929E+03  0.92885096536E+03 0.  0.
         23    2    4    4    0    0  0.35051446678E+03 -0.24648657208E+03  0.14289476580E+03  0.46052130833E+03  0.89693587836E+02 0.  0.
         23    2    4    4    0    0 -0.46203456074E+03  0.56072006454E+02 -0.13892966770E+03  0.49419031096E+03  0.91118635064E+02 0.  0.
          2    1    3    3  502    0  0.82680564805E+02  0.13225939223E+03 -0.53061148721E+03  0.55306163580E+03  0.00000000000E+00 0. -1.
         -2    1    3    3    0  502  0.28839529155E+02  0.58155173399E+02 -0.83045519227E+02  0.10540541209E+03  0.00000000000E+00 0.  1.
         13    1    5    5    0    0  0.17975801473E+02 -0.28728029503E+02  0.34840232861E+02  0.48603198902E+02  0.00000000000E+00 0. -1.
        -13    1    5    5    0    0  0.33253866531E+03 -0.21775854258E+03  0.10805453294E+03  0.41191810943E+03  0.00000000000E+00 0.  1.
          4    1    6    6  503    0 -0.44555799497E+03  0.34291349702E+02 -0.13294035314E+03  0.46623058784E+03  0.00000000000E+00 0.  1.
         -4    1    6    6    0  503 -0.16476565771E+02  0.21780656752E+02 -0.59893145606E+01  0.27959723122E+02  0.00000000000E+00 0. -1.
<mgrwt>
<rscale>  0 0.14935264E+04</rscale>
<asrwt>0</asrwt>
<pdfrwt beam="1">  1        1 0.17099004E+00 0.14935264E+04</pdfrwt>
<pdfrwt beam="2">  1       -1 0.77191290E-01 0.14935264E+04</pdfrwt>
<totfact> 0.20247777E+01</totfact>
</mgrwt>
</event>
<event>
12    3  0.4688899E-008  0.1505059E+04  0.7818608E-02  0.8881096E-01
         -2   -1    0    0    0  501 -0.00000000000E+00  0.00000000000E+00  0.17828256518E+03  0.17828256518E+03  0.00000000000E+00 0.  1.
          2   -1    0    0  501    0  0.00000000000E+00 -0.00000000000E+00 -0.31764206027E+04  0.31764206027E+04  0.00000000000E+00 0. -1.
         23    2    1    2    0    0 -0.24458534733E+03  0.18815606958E+03 -0.10064160366E+03  0.33662351284E+03  0.89229806481E+02 0.  0.
        254    2    1    2    0    0  0.24458534733E+03 -0.18815606958E+03 -0.28974964339E+04  0.30180796551E+04  0.78618987608E+03 0.  0.
         23    2    4    4    0    0 -0.24843891807E+03 -0.86878700396E+02 -0.56422236774E+03  0.62930568003E+03  0.91700349365E+02 0.  0.
         23    2    4    4    0    0  0.49302426540E+03 -0.10127736919E+03 -0.23332740662E+04  0.23887739751E+04  0.93505102625E+02 0.  0.
          1    1    3    3  502    0 -0.24532640301E+02 -0.60800068550E+01 -0.20004985254E+02  0.32233776672E+02  0.00000000000E+00 0. -1.
         -1    1    3    3    0  502 -0.22005270703E+03  0.19423607644E+03 -0.80636618402E+02  0.30438973617E+03  0.00000000000E+00 0.  1.
         13    1    5    5    0    0 -0.15830686994E+03 -0.85327632635E+02 -0.29609751102E+03  0.34643268609E+03  0.00000000000E+00 0. -1.
        -13    1    5    5    0    0 -0.90132048125E+02 -0.15510677611E+01 -0.26812485672E+03  0.28287299394E+03  0.00000000000E+00 0.  1.
          4    1    6    6  503    0  0.36733430233E+03 -0.67755457166E+02 -0.19010353844E+04  0.19373850481E+04  0.00000000000E+00 0. -1.
         -4    1    6    6    0  503  0.12568996307E+03 -0.33521912020E+02 -0.43223868176E+03  0.45138892699E+03  0.00000000000E+00 0.  1.
<mgrwt>
<rscale>  0 0.15050587E+04</rscale>
<asrwt>0</asrwt>
<pdfrwt beam="1">  1        2 0.48868005E+00 0.15050587E+04</pdfrwt>
<pdfrwt beam="2">  1       -2 0.27428090E-01 0.15050587E+04</pdfrwt>
<totfact> 0.15860822E+01</totfact>
</mgrwt>
</event>
<event>
12    3  0.4688899E-008  0.1828010E+04  0.7818608E-02  0.8691544E-01
         -2   -1    0    0    0  501 -0.00000000000E+00  0.00000000000E+00  0.25503458000E+03  0.25503458000E+03  0.00000000000E+00 0.  1.
          2   -1    0    0  501    0  0.00000000000E+00 -0.00000000000E+00 -0.32756534233E+04  0.32756534233E+04  0.00000000000E+00 0. -1.
         23    2    1    2    0    0 -0.14657565035E+03  0.61359896844E+03 -0.16643858562E+04  0.17822991898E+04  0.91771500813E+02 0.  0.
        254    2    1    2    0    0  0.14657565035E+03 -0.61359896844E+03 -0.13562329871E+04  0.17483888135E+04  0.90526648698E+03 0.  0.
         23    2    4    4    0    0  0.26574201351E+03 -0.11361052176E+03 -0.85506884590E+01  0.30305727681E+03  0.90798845593E+02 0.  0.
         23    2    4    4    0    0 -0.11916636316E+03 -0.49998844668E+03 -0.13476822986E+04  0.14453315367E+04  0.92447844116E+02 0.  0.
          1    1    3    3  502    0 -0.86241114534E+02  0.49132090451E+03 -0.12412004636E+04  0.13376891836E+04  0.00000000000E+00 0. -1.
         -1    1    3    3    0  502 -0.60334535813E+02  0.12227806392E+03 -0.42318539258E+03  0.44461000621E+03  0.00000000000E+00 0.  1.
         13    1    5    5    0    0  0.71794702968E+02 -0.13245515833E+02  0.34061524377E+02  0.80561222104E+02  0.00000000000E+00 0. -1.
        -13    1    5    5    0    0  0.19394731054E+03 -0.10036500593E+03 -0.42612212836E+02  0.22249605471E+03  0.00000000000E+00 0.  1.
          1    1    6    6  503    0 -0.16805698878E+02 -0.10287068691E+03 -0.18361138900E+03  0.21113491400E+03  0.00000000000E+00 0. -1.
         -1    1    6    6    0  503 -0.10236066428E+03 -0.39711775977E+03 -0.11640709096E+04  0.12341966227E+04  0.00000000000E+00 0.  1.
<mgrwt>
<rscale>  0 0.18280097E+04</rscale>
<asrwt>0</asrwt>
<pdfrwt beam="1">  1        2 0.50394668E+00 0.18280097E+04</pdfrwt>
<pdfrwt beam="2">  1       -2 0.39236090E-01 0.18280097E+04</pdfrwt>
<totfact> 0.67272750E+00</totfact>
</mgrwt>
</event>
<event>
12    3  0.4688899E-008  0.2407913E+04  0.7818608E-02  0.8436547E-01
         -2   -1    0    0    0  501 -0.00000000000E+00  0.00000000000E+00  0.43797514808E+03  0.43797514808E+03  0.00000000000E+00 0.  1.
          2   -1    0    0  501    0  0.00000000000E+00 -0.00000000000E+00 -0.33095731199E+04  0.33095731199E+04  0.00000000000E+00 0. -1.
         23    2    1    2    0    0 -0.99532461086E+03 -0.18969686863E+03 -0.15319301254E+04  0.18388684833E+04  0.89282734951E+02 0.  0.
        254    2    1    2    0    0  0.99532461086E+03  0.18969686863E+03 -0.13396678464E+04  0.19086797847E+04  0.90647261341E+03 0.  0.
         23    2    4    4    0    0  0.39321072215E+03 -0.12335778882E+03 -0.11074652112E+04  0.11852498094E+04  0.92228523157E+02 0.  0.
         23    2    4    4    0    0  0.60211388871E+03  0.31305465745E+03 -0.23220263520E+03  0.72342997533E+03  0.94278904731E+02 0.  0.
          4    1    3    3  502    0 -0.95359576956E+02 -0.45251402481E+00 -0.18164214982E+03  0.20515244156E+03  0.00000000000E+00 0.  1.
         -4    1    3    3    0  502 -0.89996503391E+03 -0.18924435461E+03 -0.13502879756E+04  0.16337160417E+04  0.00000000000E+00 0. -1.
         13    1    5    5    0    0  0.35413753973E+03 -0.13118071599E+03 -0.10451016569E+04  0.11112422106E+04  0.00000000000E+00 0.  1.
        -13    1    5    5    0    0  0.39073182419E+02  0.78229271744E+01 -0.62363554348E+02  0.74007598832E+02  0.00000000000E+00 0. -1.
          1    1    6    6  503    0  0.13377082319E+01 -0.19560489655E+01  0.44003258342E+01  0.49978453674E+01  0.00000000000E+00 0. -1.
         -1    1    6    6    0  503  0.60077618048E+03  0.31501070642E+03 -0.23660296103E+03  0.71843212996E+03  0.00000000000E+00 0.  1.
<mgrwt>
<rscale>  0 0.24079126E+04</rscale>
<asrwt>0</asrwt>
<pdfrwt beam="1">  1        2 0.50916509E+00 0.24079126E+04</pdfrwt>
<pdfrwt beam="2">  1       -2 0.67380792E-01 0.24079126E+04</pdfrwt>
<totfact> 0.19947082E+00</totfact>
</mgrwt>
</event>
<event>
12    3  0.4688899E-008  0.1347147E+04  0.7818608E-02  0.8992991E-01
          2   -1    0    0  501    0  0.00000000000E+00  0.00000000000E+00  0.28810401984E+04  0.28810401984E+04  0.00000000000E+00 0. -1.
         -2   -1    0    0    0  501 -0.00000000000E+00 -0.00000000000E+00 -0.15747829672E+03  0.15747829672E+03  0.00000000000E+00 0.  1.
         23    2    1    2    0    0  0.29166553604E+02  0.26288830145E+03  0.18024832586E+03  0.33233266380E+03  0.89412491105E+02 0.  0.
        254    2    1    2    0    0 -0.29166553604E+02 -0.26288830145E+03  0.25433135758E+04  0.27061858313E+04  0.88602305943E+03 0.  0.
         23    2    4    4    0    0 -0.42816995457E+02 -0.11895652262E+03  0.25355720867E+04  0.25401367844E+04  0.84765130060E+02 0.  0.
         23    2    4    4    0    0  0.13650441853E+02 -0.14393177883E+03  0.77414890984E+01  0.16604904690E+03  0.81299838883E+02 0.  0.
          4    1    3    3  502    0 -0.31198975228E+01  0.12306291532E+03  0.34616763148E+02  0.12787703147E+03  0.00000000000E+00 0. -1.
         -4    1    3    3    0  502  0.32286451126E+02  0.13982538613E+03  0.14563156271E+03  0.20445563233E+03  0.00000000000E+00 0.  1.
         13    1    5    5    0    0 -0.38799001834E+02 -0.73115741275E+02  0.86987814107E+03  0.87380733258E+03  0.00000000000E+00 0. -1.
        -13    1    5    5    0    0 -0.40179936226E+01 -0.45840781347E+02  0.16656939457E+04  0.16663294519E+04  0.00000000000E+00 0.  1.
          1    1    6    6  503    0  0.35642472071E+02 -0.31857257467E+02  0.18658194371E+02  0.51316653104E+02  0.00000000000E+00 0. -1.
         -1    1    6    6    0  503 -0.21992030217E+02 -0.11207452136E+03 -0.10916705273E+02  0.11473239379E+03  0.00000000000E+00 0.  1.
<mgrwt>
<rscale>  0 0.13471471E+04</rscale>
<asrwt>0</asrwt>
<pdfrwt beam="1">  1        2 0.44323691E+00 0.13471471E+04</pdfrwt>
<pdfrwt beam="2">  1       -2 0.24227432E-01 0.13471471E+04</pdfrwt>
<totfact> 0.30881857E+01</totfact>
</mgrwt>
</event>
<event>
12    3  0.4688899E-008  0.2002073E+04  0.7818608E-02  0.8605652E-01
         -1   -1    0    0    0  501 -0.00000000000E+00  0.00000000000E+00  0.15683884257E+04  0.15683884257E+04  0.00000000000E+00 0.  1.
          1   -1    0    0  501    0  0.00000000000E+00 -0.00000000000E+00 -0.63891982050E+03  0.63891982050E+03  0.00000000000E+00 0. -1.
         23    2    1    2    0    0  0.71095924023E+03 -0.11474059061E+03 -0.42108537171E+02  0.72729417117E+03  0.92494530219E+02 0.  0.
        254    2    1    2    0    0 -0.71095924023E+03  0.11474059061E+03  0.97157714239E+03  0.14800140751E+04  0.85314188406E+03 0.  0.
         23    2    4    4    0    0 -0.40198955448E+03 -0.30828111895E+03  0.73515634879E+03  0.89807112290E+03  0.97180421960E+02 0.  0.
         23    2    4    4    0    0 -0.30896968575E+03  0.42302170956E+03  0.23642079360E+03  0.58194295215E+03  0.91395702544E+02 0.  0.
          3    1    3    3  502    0  0.69938676538E+03 -0.12480527308E+03 -0.44232713942E+02  0.71181088553E+03  0.00000000000E+00 0. -1.
         -3    1    3    3    0  502  0.11572474850E+02  0.10064682470E+02  0.21241767714E+01  0.15483285644E+02  0.00000000000E+00 0.  1.
         13    1    5    5    0    0 -0.21809256057E+03 -0.12756183243E+03  0.29951591711E+03  0.39184967867E+03  0.00000000000E+00 0. -1.
        -13    1    5    5    0    0 -0.18389699391E+03 -0.18071928652E+03  0.43564043168E+03  0.50622144424E+03  0.00000000000E+00 0.  1.
          4    1    6    6  503    0 -0.80057211746E+01 -0.64897443210E+00  0.15072564872E+02  0.17079079342E+02  0.00000000000E+00 0. -1.
         -4    1    6    6    0  503 -0.30096396458E+03  0.42367068399E+03  0.22134822873E+03  0.56486387281E+03  0.00000000000E+00 0.  1.
<mgrwt>
<rscale>  0 0.20020734E+04</rscale>
<asrwt>0</asrwt>
<pdfrwt beam="1">  1        1 0.98295358E-01 0.20020734E+04</pdfrwt>
<pdfrwt beam="2">  1       -1 0.24129052E+00 0.20020734E+04</pdfrwt>
<totfact> 0.23036296E+00</totfact>
</mgrwt>
</event>
<event>
12    3  0.4688899E-008  0.1637100E+04  0.7818608E-02  0.8798075E-01
          1   -1    0    0  501    0  0.00000000000E+00  0.00000000000E+00  0.34902487424E+03  0.34902487424E+03  0.00000000000E+00 0. -1.
         -1   -1    0    0    0  501 -0.00000000000E+00 -0.00000000000E+00 -0.19197027550E+04  0.19197027550E+04  0.00000000000E+00 0.  1.
         23    2    1    2    0    0 -0.46905404155E+02  0.15200992845E+03  0.20666702066E+03  0.27753139877E+03  0.94896177962E+02 0.  0.
        254    2    1    2    0    0  0.46905404155E+02 -0.15200992845E+03 -0.17773449014E+04  0.19911962304E+04  0.88351592759E+03 0.  0.
         23    2    4    4    0    0  0.39175251774E+02 -0.25548899862E+03 -0.74906905585E+02  0.28316324950E+03  0.88096836470E+02 0.  0.
         23    2    4    4    0    0  0.77301523805E+01  0.10347907017E+03 -0.17024379958E+04  0.17080329809E+04  0.91180377081E+02 0.  0.
          1    1    3    3  502    0 -0.57003061080E+02  0.11052345155E+03  0.19822965970E+03  0.23400807743E+03  0.00000000000E+00 0. -1.
         -1    1    3    3    0  502  0.10097656925E+02  0.41486476904E+02  0.84373609524E+01  0.43523321348E+02  0.00000000000E+00 0.  1.
         13    1    5    5    0    0 -0.12473938225E+02 -0.15701143219E+03 -0.18842045345E+02  0.15862916392E+03  0.00000000000E+00 0. -1.
        -13    1    5    5    0    0  0.51649190000E+02 -0.98477566431E+02 -0.56064860240E+02  0.12453408558E+03  0.00000000000E+00 0.  1.
          2    1    6    6  503    0 -0.18413081643E+02  0.10260884163E+03 -0.15378515070E+04  0.15413808334E+04  0.00000000000E+00 0.  1.
         -2    1    6    6    0  503  0.26143234023E+02  0.87022854789E+00 -0.16458648876E+03  0.16665214749E+03  0.00000000000E+00 0. -1.
<mgrwt>
<rscale>  0 0.16370999E+04</rscale>
<asrwt>0</asrwt>
<pdfrwt beam="1">  1        1 0.53696134E-01 0.16370999E+04</pdfrwt>
<pdfrwt beam="2">  1       -1 0.29533889E+00 0.16370999E+04</pdfrwt>
<totfact> 0.24385428E+00</totfact>
</mgrwt>
</event>
<event>
12    3  0.4688899E-008  0.1319455E+04  0.7818608E-02  0.9014278E-01
          2   -1    0    0  501    0  0.00000000000E+00  0.00000000000E+00  0.37069966570E+04  0.37069966570E+04  0.00000000000E+00 0. -1.
         -2   -1    0    0    0  501 -0.00000000000E+00 -0.00000000000E+00 -0.11741050208E+03  0.11741050208E+03  0.00000000000E+00 0.  1.
         23    2    1    2    0    0  0.26679488480E+03 -0.17812336412E+03  0.11845528390E+04  0.12307691133E+04  0.93379540307E+02 0.  0.
        254    2    1    2    0    0 -0.26679488480E+03  0.17812336412E+03  0.24050333159E+04  0.25936380457E+04  0.91644182478E+03 0.  0.
         23    2    4    4    0    0  0.95013373202E+02  0.38475428092E+03  0.51514409890E+03  0.65621902953E+03  0.90479690048E+02 0.  0.
         23    2    4    4    0    0 -0.36180825801E+03 -0.20663091680E+03  0.18898892170E+04  0.19374190162E+04  0.91157229217E+02 0.  0.
          4    1    3    3  502    0  0.24820456917E+03 -0.18868276730E+03  0.10827226391E+04  0.11267186907E+04  0.00000000000E+00 0. -1.
         -4    1    3    3    0  502  0.18590315632E+02  0.10559403180E+02  0.10183019993E+03  0.10405042263E+03  0.00000000000E+00 0.  1.
         13    1    5    5    0    0 -0.11119730268E+02  0.33607969484E+02  0.77255086161E+02  0.84979364271E+02  0.00000000000E+00 0.  1.
        -13    1    5    5    0    0  0.10613310347E+03  0.35114631143E+03  0.43788901274E+03  0.57123966526E+03  0.00000000000E+00 0. -1.
          4    1    6    6  503    0 -0.23287922020E+03 -0.12747504473E+03  0.99389161819E+03  0.10287386291E+04  0.00000000000E+00 0. -1.
         -4    1    6    6    0  503 -0.12892903780E+03 -0.79155872063E+02  0.89599759880E+03  0.90868038711E+03  0.00000000000E+00 0.  1.
<mgrwt>
<rscale>  0 0.13194549E+04</rscale>
<asrwt>0</asrwt>
<pdfrwt beam="1">  1        2 0.57030709E+00 0.13194549E+04</pdfrwt>
<pdfrwt beam="2">  1       -2 0.18063157E-01 0.13194549E+04</pdfrwt>
<totfact> 0.14780530E+01</totfact>
</mgrwt>
</event>
<event>
12    3  0.4688899E-008  0.1113623E+04  0.7818608E-02  0.9192015E-01
         -2   -1    0    0    0  501 -0.00000000000E+00  0.00000000000E+00  0.11881903498E+03  0.11881903498E+03  0.00000000000E+00 0.  1.
          2   -1    0    0  501    0  0.00000000000E+00 -0.00000000000E+00 -0.26093380145E+04  0.26093380145E+04  0.00000000000E+00 0. -1.
         23    2    1    2    0    0 -0.16877589666E+03 -0.35049413354E+01 -0.50798673787E+03  0.54293683320E+03  0.90731973918E+02 0.  0.
        254    2    1    2    0    0  0.16877589666E+03  0.35049413354E+01 -0.19825322417E+04  0.21852202163E+04  0.90346871368E+03 0.  0.
         23    2    4    4    0    0  0.53026232068E+03 -0.30379547143E+02 -0.10578472971E+04  0.11871849479E+04  0.90918375730E+02 0.  0.
         23    2    4    4    0    0 -0.36148642403E+03  0.33884488479E+02 -0.92468494460E+03  0.99803526838E+03  0.95976855806E+02 0.  0.
          1    1    3    3  502    0  0.53002059311E+01  0.15606887815E+02 -0.47135450455E+02  0.49934134815E+02  0.00000000000E+00 0. -1.
         -1    1    3    3    0  502 -0.17407610259E+03 -0.19111829150E+02 -0.46085128742E+03  0.49300269839E+03  0.00000000000E+00 0.  1.
         13    1    5    5    0    0  0.15265314865E+03 -0.13472468837E+02 -0.22101892892E+03  0.26894954574E+03  0.00000000000E+00 0. -1.
        -13    1    5    5    0    0  0.37760917203E+03 -0.16907078306E+02 -0.83682836817E+03  0.91823540221E+03  0.00000000000E+00 0.  1.
          1    1    6    6  503    0 -0.22573511898E+03  0.45787135316E+02 -0.68016282068E+03  0.71810463607E+03  0.00000000000E+00 0. -1.
         -1    1    6    6    0  503 -0.13575130505E+03 -0.11902646838E+02 -0.24452212392E+03  0.27993063232E+03  0.00000000000E+00 0.  1.
<mgrwt>
<rscale>  0 0.11136230E+04</rscale>
<asrwt>0</asrwt>
<pdfrwt beam="1">  1        2 0.40143659E+00 0.11136230E+04</pdfrwt>
<pdfrwt beam="2">  1       -2 0.18279853E-01 0.11136230E+04</pdfrwt>
<totfact> 0.75340259E+01</totfact>
</mgrwt>
</event>
<event>
12    3  0.4688899E-008  0.2165746E+04  0.7818608E-02  0.8532822E-01
         -2   -1    0    0    0  501 -0.00000000000E+00  0.00000000000E+00  0.36629163961E+03  0.36629163961E+03  0.00000000000E+00 0.  1.
          2   -1    0    0  501    0  0.00000000000E+00 -0.00000000000E+00 -0.32013122652E+04  0.32013122652E+04  0.00000000000E+00 0. -1.
         23    2    1    2    0    0 -0.50994942282E+03 -0.65678607339E+02 -0.23814309211E+04  0.24380882383E+04  0.93268068575E+02 0.  0.
        254    2    1    2    0    0  0.50994942282E+03  0.65678607339E+02 -0.45358970447E+03  0.11295156665E+04  0.89760789185E+03 0.  0.
         23    2    4    4    0    0 -0.56800438265E+02 -0.20990862795E+03 -0.43231614820E+03  0.49236773820E+03  0.90778938946E+02 0.  0.
         23    2    4    4    0    0  0.56674986108E+03  0.27558723529E+03 -0.21273556272E+02  0.63714792827E+03  0.91384840156E+02 0.  0.
          1    1    3    3  502    0 -0.35108260382E+03 -0.21412710276E+02 -0.14410192200E+04  0.14833252817E+04  0.00000000000E+00 0. -1.
         -1    1    3    3    0  502 -0.15886681899E+03 -0.44265897062E+02 -0.94041170110E+03  0.95476295664E+03  0.00000000000E+00 0.  1.
         13    1    5    5    0    0 -0.12441851911E+02 -0.30701982482E+01 -0.21410424365E+01  0.12992684825E+02  0.00000000000E+00 0. -1.
        -13    1    5    5    0    0 -0.44358586355E+02 -0.20683842970E+03 -0.43017510576E+03  0.47937505338E+03  0.00000000000E+00 0.  1.
          1    1    6    6  503    0  0.24673445786E+03  0.70158918773E+02 -0.88026819953E+01  0.25666642513E+03  0.00000000000E+00 0. -1.
         -1    1    6    6    0  503  0.32001540323E+03  0.20542831651E+03 -0.12470874277E+02  0.38048150314E+03  0.00000000000E+00 0.  1.
<mgrwt>
<rscale>  0 0.21657460E+04</rscale>
<asrwt>0</asrwt>
<pdfrwt beam="1">  1        2 0.49250961E+00 0.21657460E+04</pdfrwt>
<pdfrwt beam="2">  1       -2 0.56352556E-01 0.21657460E+04</pdfrwt>
<totfact> 0.35137070E+00</totfact>
</mgrwt>
</event>
<event>
12    3  0.4688899E-008  0.1382057E+04  0.7818608E-02  0.8966910E-01
          1   -1    0    0  501    0  0.00000000000E+00  0.00000000000E+00  0.10341218231E+04  0.10341218231E+04  0.00000000000E+00 0. -1.
         -1   -1    0    0    0  501 -0.00000000000E+00 -0.00000000000E+00 -0.46176389811E+03  0.46176389811E+03  0.00000000000E+00 0.  1.
         23    2    1    2    0    0  0.24099863333E+03 -0.28626809680E+03  0.57641435824E+02  0.38939005963E+03  0.90952289173E+02 0.  0.
        254    2    1    2    0    0 -0.24099863333E+03  0.28626809680E+03  0.51471648914E+03  0.11064956616E+04  0.90519048843E+03 0.  0.
         23    2    4    4    0    0 -0.33307827021E+03  0.21801709272E+03 -0.14301181784E+03  0.43275586449E+03  0.91392950486E+02 0.  0.
         23    2    4    4    0    0  0.92079636887E+02  0.68251004083E+02  0.65772830698E+03  0.67373979707E+03  0.90454017396E+02 0.  0.
          2    1    3    3  502    0  0.97433570870E+02 -0.11588224360E+03  0.68813226236E+02  0.16630470594E+03  0.00000000000E+00 0. -1.
         -2    1    3    3    0  502  0.14356506246E+03 -0.17038585320E+03 -0.11171790413E+02  0.22308535369E+03  0.00000000000E+00 0.  1.
         13    1    5    5    0    0 -0.28226558527E+03  0.19969210996E+03 -0.90470771566E+02  0.35740139887E+03  0.00000000000E+00 0. -1.
        -13    1    5    5    0    0 -0.50812684943E+02  0.18324982760E+02 -0.52541046274E+02  0.75354465613E+02  0.00000000000E+00 0.  1.
          2    1    6    6  503    0  0.10059893149E+03  0.28401154328E+02  0.50202784622E+03  0.51279501652E+03  0.00000000000E+00 0. -1.
         -2    1    6    6    0  503 -0.85192946011E+01  0.39849849755E+02  0.15570046076E+03  0.16094478055E+03  0.00000000000E+00 0.  1.
<mgrwt>
<rscale>  0 0.13820566E+04</rscale>
<asrwt>0</asrwt>
<pdfrwt beam="1">  1        1 0.15909566E+00 0.13820566E+04</pdfrwt>
<pdfrwt beam="2">  1       -1 0.71040600E-01 0.13820566E+04</pdfrwt>
<totfact> 0.27821396E+01</totfact>
</mgrwt>
</event>
<event>
12    3  0.4688899E-008  0.2240054E+04  0.7818608E-02  0.8501939E-01
         -1   -1    0    0    0  501 -0.00000000000E+00  0.00000000000E+00  0.12227129491E+04  0.12227129491E+04  0.00000000000E+00 0. -1.
          1   -1    0    0  501    0  0.00000000000E+00 -0.00000000000E+00 -0.10259644518E+04  0.10259644518E+04  0.00000000000E+00 0.  1.
         23    2    1    2    0    0  0.83984702094E+03 -0.32055041696E+03 -0.17591286759E+03  0.92072919251E+03  0.93280869230E+02 0.  0.
        254    2    1    2    0    0 -0.83984702094E+03  0.32055041696E+03  0.37266136486E+03  0.13279482083E+04  0.90358970929E+03 0.  0.
         23    2    4    4    0    0 -0.51241260087E+03 -0.21494661544E+03 -0.50562345841E+02  0.56527492359E+03  0.90611629492E+02 0.  0.
         23    2    4    4    0    0 -0.32743442007E+03  0.53549703240E+03  0.42322371071E+03  0.76267328474E+03  0.92638322466E+02 0.  0.
          4    1    3    3  502    0  0.54334522480E+02 -0.16580297158E+02  0.11246054090E+02  0.57910450867E+02  0.00000000000E+00 0. -1.
         -4    1    3    3    0  502  0.78551249846E+03 -0.30397011980E+03 -0.18715892168E+03  0.86281874165E+03  0.00000000000E+00 0.  1.
         13    1    5    5    0    0 -0.39973416233E+03 -0.19603330905E+03 -0.14451771887E+02  0.44544956224E+03  0.00000000000E+00 0. -1.
        -13    1    5    5    0    0 -0.11267843855E+03 -0.18913306396E+02 -0.36110573954E+02  0.11982536135E+03  0.00000000000E+00 0.  1.
          4    1    6    6  503    0 -0.25299526540E+02  0.90197726623E+01  0.11594579764E+02  0.29255027293E+02  0.00000000000E+00 0.  1.
         -4    1    6    6    0  503 -0.30213489353E+03  0.52647725974E+03  0.41162913094E+03  0.73341825744E+03  0.00000000000E+00 0. -1.
<mgrwt>
<rscale>  0 0.22400536E+04</rscale>
<asrwt>0</asrwt>
<pdfrwt beam="1">  1        1 0.15784068E+00 0.22400536E+04</pdfrwt>
<pdfrwt beam="2">  1       -1 0.18810969E+00 0.22400536E+04</pdfrwt>
<totfact> 0.23908154E+00</totfact>
</mgrwt>
</event>
<event>
12    3  0.4688899E-008  0.1460503E+04  0.7818608E-02  0.8911151E-01
          2   -1    0    0  501    0  0.00000000000E+00  0.00000000000E+00  0.20076495430E+04  0.20076495430E+04  0.00000000000E+00 0. -1.
         -2   -1    0    0    0  501 -0.00000000000E+00 -0.00000000000E+00 -0.26561773999E+03  0.26561773999E+03  0.00000000000E+00 0.  1.
         23    2    1    2    0    0 -0.14542080328E+03 -0.34764732331E+03  0.91658511025E+03  0.99531625445E+03  0.92305528568E+02 0.  0.
        254    2    1    2    0    0  0.14542080328E+03  0.34764732331E+03  0.82544669277E+03  0.12779510286E+04  0.89988372435E+03 0.  0.
         23    2    4    4    0    0 -0.17670383092E+03  0.36546382278E+01  0.76947549647E+03  0.79465978953E+03  0.90299729662E+02 0.  0.
         23    2    4    4    0    0  0.32212463420E+03  0.34399268508E+03  0.55971196295E+02  0.48329123902E+03  0.91336737131E+02 0.  0.
          3    1    3    3  502    0 -0.52698620383E+02 -0.24031312976E+03  0.56962593969E+03  0.62048469449E+03  0.00000000000E+00 0. -1.
         -3    1    3    3    0  502 -0.92722182900E+02 -0.10733419355E+03  0.34695917055E+03  0.37483155995E+03  0.00000000000E+00 0.  1.
         13    1    5    5    0    0 -0.16164712031E+03 -0.25355243086E+02  0.59180754438E+03  0.61401046363E+03  0.00000000000E+00 0. -1.
        -13    1    5    5    0    0 -0.15056710615E+02  0.29009881313E+02  0.17766795209E+03  0.18064932590E+03  0.00000000000E+00 0.  1.
          1    1    6    6  503    0  0.28576647042E+03  0.31784378830E+03  0.23671941198E+02  0.42807418770E+03  0.00000000000E+00 0. -1.
         -1    1    6    6    0  503  0.36358163782E+02  0.26148896784E+02  0.32299255097E+02  0.55217051319E+02  0.00000000000E+00 0.  1.
<mgrwt>
<rscale>  0 0.14605031E+04</rscale>
<asrwt>0</asrwt>
<pdfrwt beam="1">  1        2 0.30886915E+00 0.14605031E+04</pdfrwt>
<pdfrwt beam="2">  1       -2 0.40864269E-01 0.14605031E+04</pdfrwt>
<totfact> 0.36375684E+01</totfact>
</mgrwt>
</event>
<event>
12    3  0.4688899E-008  0.1457384E+04  0.7818608E-02  0.8913297E-01
         -1   -1    0    0    0  501 -0.00000000000E+00  0.00000000000E+00  0.71898178908E+03  0.71898178908E+03  0.00000000000E+00 0.  1.
          1   -1    0    0  501    0  0.00000000000E+00 -0.00000000000E+00 -0.73853362023E+03  0.73853362023E+03  0.00000000000E+00 0. -1.
         23    2    1    2    0    0 -0.28516113896E+03  0.26703415403E+03 -0.22846420083E+03  0.46153436730E+03  0.90520531109E+02 0.  0.
        254    2    1    2    0    0  0.28516113896E+03 -0.26703415403E+03  0.20891236969E+03  0.99598104200E+03  0.89202564046E+03 0.  0.
         23    2    4    4    0    0  0.36299201507E+03  0.13452552294E+03 -0.16914352977E+03  0.43172803346E+03  0.88990122389E+02 0.  0.
         23    2    4    4    0    0 -0.77830876110E+02 -0.40155967697E+03  0.37805589946E+03  0.56425300855E+03  0.90262811253E+02 0.  0.
          2    1    3    3  502    0 -0.15727733566E+03  0.13478303288E+03 -0.69734037139E+02  0.21855311071E+03  0.00000000000E+00 0. -1.
         -2    1    3    3    0  502 -0.12788380330E+03  0.13225112114E+03 -0.15873016369E+03  0.24298125659E+03  0.00000000000E+00 0.  1.
         13    1    5    5    0    0  0.22509716406E+03  0.36934670793E+02 -0.10345931453E+03  0.25047301838E+03  0.00000000000E+00 0. -1.
        -13    1    5    5    0    0  0.13789485101E+03  0.97590852150E+02 -0.65684215243E+02  0.18125501507E+03  0.00000000000E+00 0.  1.
          3    1    6    6  503    0 -0.27214402729E+02 -0.25707888219E+03  0.28642086680E+03  0.38583297983E+03  0.00000000000E+00 0. -1.
         -3    1    6    6    0  503 -0.50616473381E+02 -0.14448079478E+03  0.91635032655E+02  0.17842002872E+03  0.00000000000E+00 0.  1.
<mgrwt>
<rscale>  0 0.14573843E+04</rscale>
<asrwt>0</asrwt>
<pdfrwt beam="1">  1        1 0.11362056E+00 0.14573843E+04</pdfrwt>
<pdfrwt beam="2">  1       -1 0.11061258E+00 0.14573843E+04</pdfrwt>
<totfact> 0.18348895E+01</totfact>
</mgrwt>
</event>
<event>
12    3  0.4688899E-008  0.1735287E+04  0.7818608E-02  0.8741491E-01
         -1   -1    0    0    0  501 -0.00000000000E+00  0.00000000000E+00  0.37875061698E+03  0.37875061698E+03  0.00000000000E+00 0.  1.
          1   -1    0    0  501    0  0.00000000000E+00 -0.00000000000E+00 -0.19876015674E+04  0.19876015674E+04  0.00000000000E+00 0. -1.
         23    2    1    2    0    0 -0.17227392003E+03  0.35830660498E+03 -0.12610208321E+04  0.13250007387E+04  0.85973786066E+02 0.  0.
        254    2    1    2    0    0  0.17227392003E+03 -0.35830660498E+03 -0.34783011840E+03  0.10413514457E+04  0.89742137014E+03 0.  0.
         23    2    4    4    0    0  0.36196671108E+03 -0.17181592068E+03 -0.55459476311E+03  0.69036080009E+03  0.92098167775E+02 0.  0.
         23    2    4    4    0    0 -0.18969279105E+03 -0.18649068431E+03  0.20676464471E+03  0.35099064565E+03  0.98390470705E+02 0.  0.
          4    1    3    3  502    0 -0.11026890497E+03  0.19302427262E+03 -0.57073226992E+03  0.61249728583E+03  0.00000000000E+00 0.  1.
         -4    1    3    3    0  502 -0.62005015059E+02  0.16528233236E+03 -0.69028856215E+03  0.71250345285E+03  0.00000000000E+00 0. -1.
         13    1    5    5    0    0  0.36963835755E+02 -0.30187374424E+02 -0.27341555802E+02  0.55001485453E+02  0.00000000000E+00 0. -1.
        -13    1    5    5    0    0  0.32500287532E+03 -0.14162854625E+03 -0.52725320731E+03  0.63535931464E+03  0.00000000000E+00 0.  1.
          2    1    6    6  503    0 -0.38582649505E+02 -0.43863658498E+02  0.80624809023E+00  0.58423380728E+02  0.00000000000E+00 0. -1.
         -2    1    6    6    0  503 -0.15111014154E+03 -0.14262702581E+03  0.20595839662E+03  0.29256726493E+03  0.00000000000E+00 0.  1.
<mgrwt>
<rscale>  0 0.17352871E+04</rscale>
<asrwt>0</asrwt>
<pdfrwt beam="1">  1        1 0.30578486E+00 0.17352871E+04</pdfrwt>
<pdfrwt beam="2">  1       -1 0.58269326E-01 0.17352871E+04</pdfrwt>
<totfact> 0.86044358E+00</totfact>
</mgrwt>
</event>
<event>
12    3  0.4688899E-008  0.1627911E+04  0.7818608E-02  0.8803582E-01
          1   -1    0    0  501    0  0.00000000000E+00  0.00000000000E+00  0.16100128490E+04  0.16100128490E+04  0.00000000000E+00 0. -1.
         -1   -1    0    0    0  501 -0.00000000000E+00 -0.00000000000E+00 -0.41150200590E+03  0.41150200590E+03  0.00000000000E+00 0.  1.
         23    2    1    2    0    0  0.29319727883E+03 -0.44976853381E+03  0.22576656393E+03  0.58955280596E+03  0.91354207943E+02 0.  0.
        254    2    1    2    0    0 -0.29319727883E+03  0.44976853381E+03  0.97274427913E+03  0.14319620489E+04  0.90334240383E+03 0.  0.
         23    2    4    4    0    0 -0.14052921670E+03 -0.20489632868E+03  0.60502226230E+03  0.66034650054E+03  0.90964809910E+02 0.  0.
         23    2    4    4    0    0 -0.15266806213E+03  0.65466486249E+03  0.36772201683E+03  0.77161554835E+03  0.90980511262E+02 0.  0.
          3    1    3    3  502    0  0.20170964255E+03 -0.28408109782E+03  0.10060371735E+03  0.36264301728E+03  0.00000000000E+00 0. -1.
         -3    1    3    3    0  502  0.91487636286E+02 -0.16568743599E+03  0.12516284657E+03  0.22690978869E+03  0.00000000000E+00 0.  1.
         13    1    5    5    0    0  0.48028373404E+01 -0.41941998557E+02  0.61396451484E+02  0.74509883534E+02  0.00000000000E+00 0.  1.
        -13    1    5    5    0    0 -0.14533205404E+03 -0.16295433012E+03  0.54362581082E+03  0.58583661700E+03  0.00000000000E+00 0. -1.
          3    1    6    6  503    0 -0.13593348271E+03  0.58297610917E+03  0.29210147490E+03  0.66607982046E+03  0.00000000000E+00 0. -1.
         -3    1    6    6    0  503 -0.16734579419E+02  0.71688753318E+02  0.75620541927E+02  0.10553572789E+03  0.00000000000E+00 0.  1.
<mgrwt>
<rscale>  0 0.16279110E+04</rscale>
<asrwt>0</asrwt>
<pdfrwt beam="1">  1        1 0.24769428E+00 0.16279110E+04</pdfrwt>
<pdfrwt beam="2">  1       -1 0.63308001E-01 0.16279110E+04</pdfrwt>
<totfact> 0.13305512E+01</totfact>
</mgrwt>
</event>
<event>
12    3  0.4688899E-008  0.1712398E+04  0.7818608E-02  0.8754325E-01
         -1   -1    0    0    0  501 -0.00000000000E+00  0.00000000000E+00  0.40184766846E+03  0.40184766846E+03  0.00000000000E+00 0.  1.
          1   -1    0    0  501    0  0.00000000000E+00 -0.00000000000E+00 -0.18242647754E+04  0.18242647754E+04  0.00000000000E+00 0. -1.
         23    2    1    2    0    0  0.25128760790E+03 -0.26006819205E+03 -0.11665285832E+04  0.12237482373E+04  0.77394357003E+02 0.  0.
        254    2    1    2    0    0 -0.25128760790E+03  0.26006819205E+03 -0.25588852379E+03  0.10023642066E+04  0.89915190021E+03 0.  0.
         23    2    4    4    0    0 -0.27721888613E+03  0.12466487319E+03 -0.56725054947E+03  0.64984925104E+03  0.90217635616E+02 0.  0.
         23    2    4    4    0    0  0.25931278235E+02  0.13540331887E+03  0.31136202567E+03  0.35251495555E+03  0.91181099500E+02 0.  0.
          3    1    3    3  502    0  0.56157117052E+02 -0.66542985709E+02 -0.40208327122E+03  0.41140314503E+03  0.00000000000E+00 0. -1.
         -3    1    3    3    0  502  0.19513049084E+03 -0.19352520635E+03 -0.76444531194E+03  0.81234509225E+03  0.00000000000E+00 0.  1.
         13    1    5    5    0    0 -0.13353999430E+03  0.74094632196E+02 -0.37261880736E+03  0.40270053414E+03  0.00000000000E+00 0.  1.
        -13    1    5    5    0    0 -0.14367889183E+03  0.50570240991E+02 -0.19463174210E+03  0.24714871690E+03  0.00000000000E+00 0. -1.
          3    1    6    6  503    0 -0.19790983821E+02  0.12502220007E+01  0.18317475524E+02  0.26995851630E+02  0.00000000000E+00 0. -1.
         -3    1    6    6    0  503  0.45722262057E+02  0.13415309687E+03  0.29304455015E+03  0.32551910392E+03  0.00000000000E+00 0.  1.
<mgrwt>
<rscale>  0 0.17123978E+04</rscale>
<asrwt>0</asrwt>
<pdfrwt beam="1">  1        1 0.28065611E+00 0.17123978E+04</pdfrwt>
<pdfrwt beam="2">  1       -1 0.61822719E-01 0.17123978E+04</pdfrwt>
<totfact> 0.98949689E+00</totfact>
</mgrwt>
</event>
<event>
12    3  0.4688899E-008  0.1757548E+04  0.7818608E-02  0.8729206E-01
          2   -1    0    0  501    0  0.00000000000E+00  0.00000000000E+00  0.10089708000E+04  0.10089708000E+04  0.00000000000E+00 0.  1.
         -2   -1    0    0    0  501 -0.00000000000E+00 -0.00000000000E+00 -0.76537797901E+03  0.76537797901E+03  0.00000000000E+00 0. -1.
         23    2    1    2    0    0  0.96835764735E+02  0.62336775974E+03 -0.40745995930E+02  0.63876260441E+03  0.91612768722E+02 0.  0.
        254    2    1    2    0    0 -0.96835764735E+02 -0.62336775974E+03  0.28433881689E+03  0.11355861746E+04  0.90041260978E+03 0.  0.
         23    2    4    4    0    0 -0.42466789288E+03 -0.20533981730E+03 -0.76830422443E+02  0.48669961223E+03  0.92012710609E+02 0.  0.
         23    2    4    4    0    0  0.32783212815E+03 -0.41802794244E+03  0.36116923933E+03  0.64888656233E+03  0.91593047943E+02 0.  0.
          4    1    3    3  502    0  0.56172765276E+01  0.16125623068E+03 -0.45724902382E+02  0.16770775899E+03  0.00000000000E+00 0. -1.
         -4    1    3    3    0  502  0.91218488207E+02  0.46211152906E+03  0.49789064516E+01  0.47105484542E+03  0.00000000000E+00 0.  1.
         13    1    5    5    0    0 -0.42086012210E+03 -0.20805331098E+03 -0.85168009004E+02  0.47714045348E+03  0.00000000000E+00 0.  1.
        -13    1    5    5    0    0 -0.38077707816E+01  0.27134936855E+01  0.83375865612E+01  0.95591587481E+01  0.00000000000E+00 0. -1.
          2    1    6    6  503    0  0.13195941053E+03 -0.16844581371E+03  0.92385282749E+02  0.23307148829E+03  0.00000000000E+00 0. -1.
         -2    1    6    6    0  503  0.19587271762E+03 -0.24958212873E+03  0.26878395658E+03  0.41581507405E+03  0.00000000000E+00 0.  1.
<mgrwt>
<rscale>  0 0.17575483E+04</rscale>
<asrwt>0</asrwt>
<pdfrwt beam="1">  1        2 0.15522628E+00 0.17575483E+04</pdfrwt>
<pdfrwt beam="2">  1       -2 0.11775046E+00 0.17575483E+04</pdfrwt>
<totfact> 0.13103602E+01</totfact>
</mgrwt>
</event>
<event>
12    3  0.4688899E-008  0.2845571E+04  0.7818608E-02  0.8289258E-01
         -1   -1    0    0    0  501 -0.00000000000E+00  0.00000000000E+00  0.10520005012E+04  0.10520005012E+04  0.00000000000E+00 0.  1.
          1   -1    0    0  501    0  0.00000000000E+00 -0.00000000000E+00 -0.19242565172E+04  0.19242565172E+04  0.00000000000E+00 0. -1.
         23    2    1    2    0    0 -0.10254754821E+04 -0.13143491928E+03 -0.11725832305E+04  0.15660718936E+04  0.93566238760E+02 0.  0.
        254    2    1    2    0    0  0.10254754821E+04  0.13143491928E+03  0.30032721456E+03  0.14101851248E+04  0.91079665574E+03 0.  0.
         23    2    4    4    0    0  0.52427911021E+03 -0.37338891762E+03  0.55968093891E+02  0.65327240898E+03  0.96667179540E+02 0.  0.
         23    2    4    4    0    0  0.50119637187E+03  0.50482383691E+03  0.24435912067E+03  0.75691271584E+03  0.84620151612E+02 0.  0.
          4    1    3    3  502    0 -0.95380844138E+03 -0.14263312460E+03 -0.11082153708E+04  0.14690936182E+04  0.00000000000E+00 0. -1.
         -4    1    3    3    0  502 -0.71667040697E+02  0.11198205323E+02 -0.64367859776E+02  0.96978275386E+02  0.00000000000E+00 0.  1.
         13    1    5    5    0    0  0.12441584445E+02 -0.32421004197E+02  0.11810080133E+02  0.36679592819E+02  0.00000000000E+00 0.  1.
        -13    1    5    5    0    0  0.51183752576E+03 -0.34096791343E+03  0.44158013758E+02  0.61659281617E+03  0.00000000000E+00 0. -1.
          1    1    6    6  503    0  0.34332678063E+03  0.28919030800E+03  0.16272070951E+03  0.47747496463E+03  0.00000000000E+00 0.  1.
         -1    1    6    6    0  503  0.15786959124E+03  0.21563352891E+03  0.81638411152E+02  0.27943775121E+03  0.00000000000E+00 0. -1.
<mgrwt>
<rscale>  0 0.28455712E+04</rscale>
<asrwt>0</asrwt>
<pdfrwt beam="1">  1        1 0.29603946E+00 0.28455712E+04</pdfrwt>
<pdfrwt beam="2">  1       -1 0.16184623E+00 0.28455712E+04</pdfrwt>
<totfact> 0.81861150E-01</totfact>
</mgrwt>
</event>
<event>
12    3  0.4688899E-008  0.2909528E+04  0.7818608E-02  0.8270048E-01
          1   -1    0    0  501    0  0.00000000000E+00  0.00000000000E+00  0.35689491916E+04  0.35689491916E+04  0.00000000000E+00 0. -1.
         -1   -1    0    0    0  501 -0.00000000000E+00 -0.00000000000E+00 -0.59298618984E+03  0.59298618984E+03  0.00000000000E+00 0.  1.
         23    2    1    2    0    0 -0.35447120186E+03 -0.58800909895E+03  0.29448096669E+04  0.30251577983E+04  0.90946120848E+02 0.  0.
        254    2    1    2    0    0  0.35447120186E+03  0.58800909895E+03  0.31153334925E+02  0.11367775832E+04  0.90547678601E+03 0.  0.
         23    2    4    4    0    0 -0.11547973290E+02  0.11446917322E+02 -0.34100999948E+03  0.35342678857E+03  0.91423670536E+02 0.  0.
         23    2    4    4    0    0  0.36601917515E+03  0.57656218163E+03  0.37216333440E+03  0.78335079463E+03  0.93482266263E+02 0.  0.
          3    1    3    3  502    0 -0.24440757688E+03 -0.33641904267E+03  0.18881932877E+04  0.19334390934E+04  0.00000000000E+00 0. -1.
         -3    1    3    3    0  502 -0.11006362498E+03 -0.25159005629E+03  0.10566163791E+04  0.10917187049E+04  0.00000000000E+00 0.  1.
         13    1    5    5    0    0  0.11315032573E+02 -0.24965841795E+02 -0.35221783765E+02  0.44630676336E+02  0.00000000000E+00 0.  1.
        -13    1    5    5    0    0 -0.22863005863E+02  0.36412759118E+02 -0.30578821571E+03  0.30879611224E+03  0.00000000000E+00 0. -1.
          4    1    6    6  503    0  0.71257859415E+02  0.13266478324E+03  0.41363186288E+02  0.15616830799E+03  0.00000000000E+00 0.  1.
         -4    1    6    6    0  503  0.29476131573E+03  0.44389739839E+03  0.33080014812E+03  0.62718248664E+03  0.00000000000E+00 0. -1.
<mgrwt>
<rscale>  0 0.29095275E+04</rscale>
<asrwt>0</asrwt>
<pdfrwt beam="1">  1        1 0.54906909E+00 0.29095275E+04</pdfrwt>
<pdfrwt beam="2">  1       -1 0.91228647E-01 0.29095275E+04</pdfrwt>
<totfact> 0.22133781E-01</totfact>
</mgrwt>
</event>
<event>
12    3  0.4688899E-008  0.2276308E+04  0.7818608E-02  0.8487322E-01
         -1   -1    0    0    0  501 -0.00000000000E+00  0.00000000000E+00  0.14898358624E+04  0.14898358624E+04  0.00000000000E+00 0.  1.
          1   -1    0    0  501    0  0.00000000000E+00 -0.00000000000E+00 -0.86948795897E+03  0.86948795897E+03  0.00000000000E+00 0. -1.
         23    2    1    2    0    0  0.38213383943E+03 -0.60671840078E+03  0.88468039738E+03  0.11424894241E+04  0.92136798027E+02 0.  0.
        254    2    1    2    0    0 -0.38213383943E+03  0.60671840078E+03 -0.26433249398E+03  0.12168343973E+04  0.94693230692E+03 0.  0.
         23    2    4    4    0    0 -0.40292842768E+02  0.69456745692E+03  0.90787320160E+02  0.70767388171E+03  0.92263318624E+02 0.  0.
         23    2    4    4    0    0 -0.34184099666E+03 -0.87849056144E+02 -0.35511981414E+03  0.50916051554E+03  0.92529046965E+02 0.  0.
          4    1    3    3  502    0  0.10692835396E+03 -0.12034384607E+03  0.24410532976E+03  0.29241020192E+03  0.00000000000E+00 0. -1.
         -4    1    3    3    0  502  0.27520548546E+03 -0.48637455471E+03  0.64057506761E+03  0.85007922216E+03  0.00000000000E+00 0.  1.
         13    1    5    5    0    0 -0.48066971236E+02  0.18856442619E+03  0.43575584482E+02  0.19941366079E+03  0.00000000000E+00 0. -1.
        -13    1    5    5    0    0  0.77741284678E+01  0.50600303073E+03  0.47211735678E+02  0.50826022092E+03  0.00000000000E+00 0.  1.
          4    1    6    6  503    0 -0.36304301977E+02  0.79098396281E+01 -0.75136965726E+02  0.83822022903E+02  0.00000000000E+00 0. -1.
         -4    1    6    6    0  503 -0.30553669468E+03 -0.95758895772E+02 -0.27998284841E+03  0.42533849264E+03  0.00000000000E+00 0.  1.
<mgrwt>
<rscale>  0 0.22763078E+04</rscale>
<asrwt>0</asrwt>
<pdfrwt beam="1">  1        1 0.13376738E+00 0.22763078E+04</pdfrwt>
<pdfrwt beam="2">  1       -1 0.22920552E+00 0.22763078E+04</pdfrwt>
<totfact> 0.16689349E+00</totfact>
</mgrwt>
</event>
<event>
12    3  0.4688899E-008  0.1780847E+04  0.7818608E-02  0.8716551E-01
          1   -1    0    0  501    0  0.00000000000E+00  0.00000000000E+00  0.62636580402E+03  0.62636580402E+03  0.00000000000E+00 0. -1.
         -1   -1    0    0    0  501 -0.00000000000E+00 -0.00000000000E+00 -0.12658009784E+04  0.12658009784E+04  0.00000000000E+00 0.  1.
         23    2    1    2    0    0 -0.43894878759E+02  0.60207517424E+03 -0.51725279695E+03  0.80088776688E+03  0.97208453207E+02 0.  0.
        254    2    1    2    0    0  0.43894878759E+02 -0.60207517424E+03 -0.12218237743E+03  0.10912790155E+04  0.90085519402E+03 0.  0.
         23    2    4    4    0    0 -0.34635510488E+03 -0.24120356968E+03  0.18531788700E+03  0.47042302566E+03  0.93883348500E+02 0.  0.
         23    2    4    4    0    0  0.39024998364E+03 -0.36087160456E+03 -0.30750026443E+03  0.62085598988E+03  0.91555353933E+02 0.  0.
          4    1    3    3  502    0 -0.30481488136E+02  0.27375047415E+03 -0.17450167846E+03  0.32606637208E+03  0.00000000000E+00 0. -1.
         -4    1    3    3    0  502 -0.13413390623E+02  0.32832470009E+03 -0.34275111849E+03  0.47482139481E+03  0.00000000000E+00 0.  1.
         13    1    5    5    0    0 -0.98097626314E+02 -0.12251884873E+03  0.75216423852E+02  0.17404460060E+03  0.00000000000E+00 0. -1.
        -13    1    5    5    0    0 -0.24825747857E+03 -0.11868472095E+03  0.11010146315E+03  0.29637842506E+03  0.00000000000E+00 0.  1.
          2    1    6    6  503    0  0.77364994468E+01 -0.68728113924E+01  0.66633911956E+01  0.12308116930E+02  0.00000000000E+00 0. -1.
         -2    1    6    6    0  503  0.38251348419E+03 -0.35399879317E+03 -0.31416365562E+03  0.60854787295E+03  0.00000000000E+00 0.  1.
<mgrwt>
<rscale>  0 0.17808475E+04</rscale>
<asrwt>0</asrwt>
<pdfrwt beam="1">  1        1 0.96363972E-01 0.17808475E+04</pdfrwt>
<pdfrwt beam="2">  1       -1 0.19473861E+00 0.17808475E+04</pdfrwt>
<totfact> 0.49762414E+00</totfact>
</mgrwt>
</event>
<event>
12    3  0.5496613E-008  0.2725398E+04  0.7818608E-02  0.8326811E-01
         -1   -1    0    0    0  501 -0.00000000000E+00  0.00000000000E+00  0.79561476448E+03  0.79561476448E+03  0.00000000000E+00 0.  1.
          1   -1    0    0  501    0  0.00000000000E+00 -0.00000000000E+00 -0.23339798963E+04  0.23339798963E+04  0.00000000000E+00 0. -1.
         23    2    1    2    0    0 -0.61443071044E+03  0.14187531414E+03 -0.18780894216E+04  0.19831991972E+04  0.90584091026E+02 0.  0.
        254    2    1    2    0    0  0.61443071044E+03 -0.14187531414E+03  0.33972428978E+03  0.11463954636E+04  0.89507332837E+03 0.  0.
         23    2    4    4    0    0  0.26844387213E+03  0.22331264241E+03  0.49424263302E+03  0.61217957960E+03  0.92506262730E+02 0.  0.
         23    2    4    4    0    0  0.34598683832E+03 -0.36518795656E+03 -0.15451834324E+03  0.53421588398E+03  0.91877942949E+02 0.  0.
          3    1    3    3  502    0 -0.57960683177E+03  0.12811453452E+03 -0.18174421918E+04  0.19119240398E+04  0.00000000000E+00 0. -1.
         -3    1    3    3    0  502 -0.34823878670E+02  0.13760779625E+02 -0.60647229818E+02  0.71275157426E+02  0.00000000000E+00 0.  1.
         13    1    5    5    0    0  0.22732673103E+03  0.22053567981E+03  0.40719331571E+03  0.51586803068E+03  0.00000000000E+00 0. -1.
        -13    1    5    5    0    0  0.41117141095E+02  0.27769626004E+01  0.87049317307E+02  0.96311548927E+02  0.00000000000E+00 0.  1.
          2    1    6    6  503    0  0.31979607534E+03 -0.35845550740E+03 -0.12985662255E+03  0.49761694405E+03  0.00000000000E+00 0. -1.
         -2    1    6    6    0  503  0.26190762974E+02 -0.67324491603E+01 -0.24661720686E+02  0.36598939931E+02  0.00000000000E+00 0.  1.
<mgrwt>
<rscale>  0 0.27253982E+04</rscale>
<asrwt>0</asrwt>
<pdfrwt beam="1">  1        1 0.35907383E+00 0.27253982E+04</pdfrwt>
<pdfrwt beam="2">  1       -1 0.12240227E+00 0.27253982E+04</pdfrwt>
<totfact> 0.90575719E-01</totfact>
</mgrwt>
</event>
<event>
12    3  0.4688899E-008  0.2107230E+04  0.7818608E-02  0.8558065E-01
          3   -1    0    0  501    0  0.00000000000E+00  0.00000000000E+00  0.16909252976E+04  0.16909252976E+04  0.00000000000E+00 0. -1.
         -3   -1    0    0    0  501 -0.00000000000E+00 -0.00000000000E+00 -0.65650722690E+03  0.65650722690E+03  0.00000000000E+00 0.  1.
         23    2    1    2    0    0 -0.52350578989E+03 -0.40626363637E+03 -0.18294243012E+03  0.69449791144E+03  0.98746959302E+02 0.  0.
        254    2    1    2    0    0  0.52350578989E+03  0.40626363637E+03  0.12173605009E+04  0.16529346131E+04  0.90062078136E+03 0.  0.
         23    2    4    4    0    0  0.56841941403E+03  0.43223761949E+03  0.38928337920E+03  0.81829895927E+03  0.90231078140E+02 0.  0.
         23    2    4    4    0    0 -0.44913624143E+02 -0.25973983121E+02  0.82807712166E+03  0.83463565383E+03  0.90626010542E+02 0.  0.
          2    1    3    3  502    0 -0.13288218250E+03 -0.58878444816E+02 -0.18600669364E+02  0.14652757621E+03  0.00000000000E+00 0. -1.
         -2    1    3    3    0  502 -0.39062360739E+03 -0.34738519156E+03 -0.16434176076E+03  0.54797033523E+03  0.00000000000E+00 0.  1.
         13    1    5    5    0    0  0.20459153446E+03  0.21076117967E+03  0.15207302298E+03  0.33076301962E+03  0.00000000000E+00 0.  1.
        -13    1    5    5    0    0  0.36382787957E+03  0.22147643982E+03  0.23721035622E+03  0.48753593965E+03  0.00000000000E+00 0. -1.
          3    1    6    6  503    0 -0.66993489039E+02  0.18485664719E+01  0.61200036088E+03  0.61565898555E+03  0.00000000000E+00 0. -1.
         -3    1    6    6    0  503  0.22079864895E+02 -0.27822549593E+02  0.21607676078E+03  0.21897666828E+03  0.00000000000E+00 0.  1.
<mgrwt>
<rscale>  0 0.21072301E+04</rscale>
<asrwt>0</asrwt>
<pdfrwt beam="1">  1        3 0.26014235E+00 0.21072301E+04</pdfrwt>
<pdfrwt beam="2">  1       -3 0.10100111E+00 0.21072301E+04</pdfrwt>
<totfact> 0.13275828E-01</totfact>
</mgrwt>
</event>
<event>
12    3  0.4688899E-008  0.1420033E+04  0.7818608E-02  0.8939444E-01
          1   -1    0    0  501    0  0.00000000000E+00  0.00000000000E+00  0.21592542259E+04  0.21592542259E+04  0.00000000000E+00 0. -1.
         -1   -1    0    0    0  501 -0.00000000000E+00 -0.00000000000E+00 -0.23347111523E+03  0.23347111523E+03  0.00000000000E+00 0.  1.
         23    2    1    2    0    0 -0.12823044449E+03  0.10041228458E+02 -0.83541901713E+02  0.17993995842E+03  0.94102423619E+02 0.  0.
        254    2    1    2    0    0  0.12823044449E+03 -0.10041228458E+02  0.20093250124E+04  0.22127853827E+04  0.91787159852E+03 0.  0.
         23    2    4    4    0    0 -0.15308060274E+03  0.10452349093E+03  0.18431955484E+04  0.18547046434E+04  0.90557458736E+02 0.  0.
         23    2    4    4    0    0  0.28131104723E+03 -0.11456471939E+03  0.16612946396E+03  0.35808073933E+03  0.91443079913E+02 0.  0.
          1    1    3    3  502    0  0.10829322684E+00  0.14319160446E+02 -0.42938718800E+02  0.45263491419E+02  0.00000000000E+00 0. -1.
         -1    1    3    3    0  502 -0.12833873772E+03 -0.42779319886E+01 -0.40603182913E+02  0.13467646700E+03  0.00000000000E+00 0.  1.
         13    1    5    5    0    0 -0.32997304147E+02 -0.11075120176E+02  0.19310036789E+03  0.19621221279E+03  0.00000000000E+00 0. -1.
        -13    1    5    5    0    0 -0.12008329859E+03  0.11559861111E+03  0.16500951805E+04  0.16584924306E+04  0.00000000000E+00 0.  1.
          1    1    6    6  503    0  0.19331493101E+03 -0.30918291833E+02  0.10495354084E+03  0.22213025245E+03  0.00000000000E+00 0. -1.
         -1    1    6    6    0  503  0.87996116218E+02 -0.83646427556E+02  0.61175923120E+02  0.13595048688E+03  0.00000000000E+00 0.  1.
<mgrwt>
<rscale>  0 0.14200331E+04</rscale>
<asrwt>0</asrwt>
<pdfrwt beam="1">  1        1 0.33219294E+00 0.14200331E+04</pdfrwt>
<pdfrwt beam="2">  1       -1 0.35918635E-01 0.14200331E+04</pdfrwt>
<totfact> 0.16770515E+01</totfact>
</mgrwt>
</event>
<event>
12    3  0.4688899E-008  0.1402384E+04  0.7818608E-02  0.8952095E-01
         -4   -1    0    0    0  501 -0.00000000000E+00  0.00000000000E+00  0.33406897427E+03  0.33406897427E+03  0.00000000000E+00 0.  1.
          4   -1    0    0  501    0  0.00000000000E+00 -0.00000000000E+00 -0.14717627984E+04  0.14717627984E+04  0.00000000000E+00 0. -1.
         23    2    1    2    0    0  0.38956657145E+02  0.24035179474E+03  0.83545822353E+02  0.27309868921E+03  0.91194206211E+02 0.  0.
        254    2    1    2    0    0 -0.38956657145E+02 -0.24035179474E+03 -0.12212396465E+04  0.15327330835E+04  0.89362062678E+03 0.  0.
         23    2    4    4    0    0  0.82063864700E+02 -0.15266047411E+03  0.83955903698E+02  0.21586579659E+03  0.97517947734E+02 0.  0.
         23    2    4    4    0    0 -0.12102052184E+03 -0.87691320632E+02 -0.13051955502E+04  0.13168672869E+04  0.90930152082E+02 0.  0.
          2    1    3    3  502    0  0.52900567687E+02  0.63907126315E+02  0.29154355836E+02  0.87935017596E+02  0.00000000000E+00 0.  1.
         -2    1    3    3    0  502 -0.13943910541E+02  0.17644466842E+03  0.54391466518E+02  0.18516367162E+03  0.00000000000E+00 0. -1.
         13    1    5    5    0    0  0.28576470550E+02 -0.56101837597E+02  0.84629157755E+02  0.10548044934E+03  0.00000000000E+00 0. -1.
        -13    1    5    5    0    0  0.53487394150E+02 -0.96558636508E+02 -0.67325405682E+00  0.11038534725E+03  0.00000000000E+00 0.  1.
          1    1    6    6  503    0 -0.19687724571E+02 -0.69179194606E+02 -0.54106283278E+03  0.54582264197E+03  0.00000000000E+00 0. -1.
         -1    1    6    6    0  503 -0.10133279727E+03 -0.18512126026E+02 -0.76413271742E+03  0.77104464491E+03  0.00000000000E+00 0.  1.
<mgrwt>
<rscale>  0 0.14023841E+04</rscale>
<asrwt>0</asrwt>
<pdfrwt beam="1">  1        4 0.22642505E+00 0.14023841E+04</pdfrwt>
<pdfrwt beam="2">  1       -4 0.51395226E-01 0.14023841E+04</pdfrwt>
<totfact> 0.63022075E-01</totfact>
</mgrwt>
</event>
<event>
12    3  0.4688899E-008  0.2577731E+04  0.7818608E-02  0.8375805E-01
         -2   -1    0    0    0  501 -0.00000000000E+00  0.00000000000E+00  0.94119569902E+03  0.94119569902E+03  0.00000000000E+00 0.  1.
          2   -1    0    0  501    0  0.00000000000E+00 -0.00000000000E+00 -0.17649612838E+04  0.17649612838E+04  0.00000000000E+00 0. -1.
         23    2    1    2    0    0 -0.54253787277E+03  0.87449401435E+03  0.12493699992E+03  0.10406014987E+04  0.90305595676E+02 0.  0.
        254    2    1    2    0    0  0.54253787277E+03 -0.87449401435E+03 -0.94870258474E+03  0.16655554842E+04  0.90274656025E+03 0.  0.
         23    2    4    4    0    0  0.29391349657E+03 -0.38199312187E+03 -0.98972932025E+03  0.11047626711E+04  0.92911482447E+02 0.  0.
         23    2    4    4    0    0  0.24862437621E+03 -0.49250089248E+03  0.41026735509E+02  0.56079281303E+03  0.91837773174E+02 0.  0.
          3    1    3    3  502    0 -0.25128525596E+03  0.43182891965E+03  0.10382320009E+03  0.51029379046E+03  0.00000000000E+00 0. -1.
         -3    1    3    3    0  502 -0.29125261682E+03  0.44266509470E+03  0.21113799829E+02  0.53030770824E+03  0.00000000000E+00 0.  1.
         13    1    5    5    0    0  0.26210839408E+03 -0.27888736063E+03 -0.75788263009E+03  0.84903772069E+03  0.00000000000E+00 0. -1.
        -13    1    5    5    0    0  0.31805102485E+02 -0.10310576124E+03 -0.23184669016E+03  0.25572495046E+03  0.00000000000E+00 0.  1.
          2    1    6    6  503    0  0.35167357787E+02 -0.11849047915E+03  0.40791479174E+02  0.13015637316E+03  0.00000000000E+00 0. -1.
         -2    1    6    6    0  503  0.21345701842E+03 -0.37401041334E+03  0.23525633451E+00  0.43063643987E+03  0.00000000000E+00 0.  1.
<mgrwt>
<rscale>  0 0.25777308E+04</rscale>
<asrwt>0</asrwt>
<pdfrwt beam="1">  1        2 0.27153251E+00 0.25777308E+04</pdfrwt>
<pdfrwt beam="2">  1       -2 0.14479934E+00 0.25777308E+04</pdfrwt>
<totfact> 0.26304059E+00</totfact>
</mgrwt>
</event>
<event>
12    3  0.4688899E-008  0.2398440E+04  0.7818608E-02  0.8440088E-01
         -2   -1    0    0    0  501 -0.00000000000E+00  0.00000000000E+00  0.50449144025E+03  0.50449144025E+03  0.00000000000E+00 0.  1.
          2   -1    0    0  501    0  0.00000000000E+00 -0.00000000000E+00 -0.28506491489E+04  0.28506491489E+04  0.00000000000E+00 0. -1.
         23    2    1    2    0    0 -0.46016788302E+03  0.20089572218E+03  0.24446465939E+03  0.56589615434E+03  0.91443512920E+02 0.  0.
        254    2    1    2    0    0  0.46016788302E+03 -0.20089572218E+03 -0.25906223680E+04  0.27892444348E+04  0.90357439733E+03 0.  0.
         23    2    4    4    0    0 -0.27580862327E+01  0.18704513626E+03 -0.16812848045E+04  0.16938026724E+04  0.85178688517E+02 0.  0.
         23    2    4    4    0    0  0.46292596925E+03 -0.38794085843E+03 -0.90933756350E+03  0.10954417624E+04  0.91100426944E+02 0.  0.
          2    1    3    3  502    0 -0.13812784180E+03  0.37828952116E+02  0.31002314010E+02  0.14653147707E+03  0.00000000000E+00 0. -1.
         -2    1    3    3    0  502 -0.32204004122E+03  0.16306677006E+03  0.21346234538E+03  0.41936467727E+03  0.00000000000E+00 0.  1.
         13    1    5    5    0    0 -0.24702220431E+02  0.17693450690E+02 -0.15156697254E+03  0.15458268032E+03  0.00000000000E+00 0. -1.
        -13    1    5    5    0    0  0.21944134198E+02  0.16935168557E+03 -0.15297178320E+04  0.15392199921E+04  0.00000000000E+00 0.  1.
          2    1    6    6  503    0  0.26622813029E+02 -0.30744548971E+02 -0.10964055463E+03  0.11694038090E+03  0.00000000000E+00 0. -1.
         -2    1    6    6    0  503  0.43630315623E+03 -0.35719630946E+03 -0.79969700886E+03  0.97850138150E+03  0.00000000000E+00 0.  1.
<mgrwt>
<rscale>  0 0.23984396E+04</rscale>
<asrwt>0</asrwt>
<pdfrwt beam="1">  1        2 0.43856140E+00 0.23984396E+04</pdfrwt>
<pdfrwt beam="2">  1       -2 0.77614070E-01 0.23984396E+04</pdfrwt>
<totfact> 0.28667261E+00</totfact>
</mgrwt>
</event>
<event>
12    3  0.4688899E-008  0.2128888E+04  0.7818608E-02  0.8548624E-01
          2   -1    0    0  501    0  0.00000000000E+00  0.00000000000E+00  0.27348812350E+04  0.27348812350E+04  0.00000000000E+00 0. -1.
         -2   -1    0    0    0  501 -0.00000000000E+00 -0.00000000000E+00 -0.41429256800E+03  0.41429256800E+03  0.00000000000E+00 0.  1.
         23    2    1    2    0    0 -0.82292414701E+03  0.57204168768E+02  0.56562491947E+03  0.10044547348E+04  0.92310866372E+02 0.  0.
        254    2    1    2    0    0  0.82292414701E+03 -0.57204168768E+02  0.17549637475E+04  0.21447190682E+04  0.91621267058E+03 0.  0.
         23    2    4    4    0    0  0.47274872059E+03 -0.39895518560E+03  0.52056169472E+03  0.81355467120E+03  0.90720075459E+02 0.  0.
         23    2    4    4    0    0  0.35017542642E+03  0.34175101683E+03  0.12344020528E+04  0.13311643970E+04  0.93987430534E+02 0.  0.
          2    1    3    3  502    0 -0.48630122276E+03  0.27921624587E+02  0.27885774783E+03  0.56127545813E+03  0.00000000000E+00 0.  1.
         -2    1    3    3    0  502 -0.33662292425E+03  0.29282544180E+02  0.28676717164E+03  0.44317927665E+03  0.00000000000E+00 0. -1.
         13    1    5    5    0    0  0.38724336028E+02 -0.72181485072E+02  0.69888842927E+02  0.10767632680E+03  0.00000000000E+00 0.  1.
        -13    1    5    5    0    0  0.43402438457E+03 -0.32677370052E+03  0.45067285179E+03  0.70587834440E+03  0.00000000000E+00 0. -1.
          1    1    6    6  503    0  0.34866214212E+03  0.32412208155E+03  0.11448275114E+04  0.12398590419E+04  0.00000000000E+00 0. -1.
         -1    1    6    6    0  503  0.15132842971E+01  0.17628935279E+02  0.89574541466E+02  0.91305355085E+02  0.00000000000E+00 0.  1.
<mgrwt>
<rscale>  0 0.21288879E+04</rscale>
<asrwt>0</asrwt>
<pdfrwt beam="1">  1        2 0.42075095E+00 0.21288879E+04</pdfrwt>
<pdfrwt beam="2">  1       -2 0.63737320E-01 0.21288879E+04</pdfrwt>
<totfact> 0.53027639E+00</totfact>
</mgrwt>
</event>
<event>
12    3  0.4688899E-008  0.2600518E+04  0.7818608E-02  0.8368025E-01
          2   -1    0    0  501    0  0.00000000000E+00  0.00000000000E+00  0.71492915272E+03  0.71492915272E+03  0.00000000000E+00 0.  1.
         -2   -1    0    0    0  501 -0.00000000000E+00 -0.00000000000E+00 -0.23648124087E+04  0.23648124087E+04  0.00000000000E+00 0. -1.
         23    2    1    2    0    0 -0.93480339720E+03  0.17372791126E+03 -0.14850908142E+04  0.17655472610E+04  0.87313377563E+02 0.  0.
        254    2    1    2    0    0  0.93480339720E+03 -0.17372791126E+03 -0.16479244176E+03  0.13141943004E+04  0.89213862808E+03 0.  0.
         23    2    4    4    0    0  0.35160442081E+03 -0.39349550796E+03  0.21707690558E+03  0.57767135726E+03  0.90096784319E+02 0.  0.
         23    2    4    4    0    0  0.58319897640E+03  0.21976759670E+03 -0.38186934733E+03  0.73652294312E+03  0.90680784523E+02 0.  0.
          3    1    3    3  502    0 -0.85679455084E+03  0.15111281008E+03 -0.13966705739E+04  0.16454849364E+04  0.00000000000E+00 0. -1.
         -3    1    3    3    0  502 -0.78008846363E+02  0.22615101182E+02 -0.88420240266E+02  0.12006232465E+03  0.00000000000E+00 0.  1.
         13    1    5    5    0    0  0.16970651743E+03 -0.23260788542E+03  0.80129325149E+02  0.29887696326E+03  0.00000000000E+00 0.  1.
        -13    1    5    5    0    0  0.18189790338E+03 -0.16088762254E+03  0.13694758043E+03  0.27879439400E+03  0.00000000000E+00 0. -1.
          1    1    6    6  503    0  0.53298710883E+03  0.17222493775E+03 -0.33024865035E+03  0.65023138837E+03  0.00000000000E+00 0. -1.
         -1    1    6    6    0  503  0.50211867565E+02  0.47542658947E+02 -0.51620696986E+02  0.86291554751E+02  0.00000000000E+00 0.  1.
<mgrwt>
<rscale>  0 0.26005179E+04</rscale>
<asrwt>0</asrwt>
<pdfrwt beam="1">  1        2 0.10998910E+00 0.26005179E+04</pdfrwt>
<pdfrwt beam="2">  1       -2 0.36381729E+00 0.26005179E+04</pdfrwt>
<totfact> 0.44873679E-01</totfact>
</mgrwt>
</event>
<event>
12    3  0.4688899E-008  0.1619430E+04  0.7818608E-02  0.8808700E-01
         -1   -1    0    0    0  501 -0.00000000000E+00  0.00000000000E+00  0.56582378174E+03  0.56582378174E+03  0.00000000000E+00 0.  1.
          1   -1    0    0  501    0  0.00000000000E+00 -0.00000000000E+00 -0.11587317704E+04  0.11587317704E+04  0.00000000000E+00 0. -1.
         23    2    1    2    0    0  0.14048498300E+03 -0.12434055376E+03 -0.76731373716E+03  0.79585789485E+03  0.97071179039E+02 0.  0.
        254    2    1    2    0    0 -0.14048498300E+03  0.12434055376E+03  0.17440574847E+03  0.92869765733E+03  0.89267315960E+03 0.  0.
         23    2    4    4    0    0 -0.31912913527E+03  0.17100498451E+03  0.45058073101E+03  0.58532754405E+03  0.92191262939E+02 0.  0.
         23    2    4    4    0    0  0.17864415227E+03 -0.46664430747E+02 -0.27617498254E+03  0.34337011327E+03  0.86828056911E+02 0.  0.
          1    1    3    3  502    0  0.13738225979E+03 -0.10540291103E+03 -0.75089743554E+03  0.77060406024E+03  0.00000000000E+00 0. -1.
         -1    1    3    3    0  502  0.31027232006E+01 -0.18937642733E+02 -0.16416301625E+02  0.25253834611E+02  0.00000000000E+00 0.  1.
         13    1    5    5    0    0 -0.10191720664E+03  0.22131798789E+02  0.17813847320E+03  0.20642250158E+03  0.00000000000E+00 0.  1.
        -13    1    5    5    0    0 -0.21721192863E+03  0.14887318572E+03  0.27244225782E+03  0.37890504247E+03  0.00000000000E+00 0. -1.
          4    1    6    6  503    0  0.17276204063E+03 -0.40904290177E+02 -0.28203686425E+03  0.33326367404E+03  0.00000000000E+00 0. -1.
         -4    1    6    6    0  503  0.58821116405E+01 -0.57601405704E+01  0.58618817089E+01  0.10106439230E+02  0.00000000000E+00 0.  1.
<mgrwt>
<rscale>  0 0.16194295E+04</rscale>
<asrwt>0</asrwt>
<pdfrwt beam="1">  1        1 0.17826642E+00 0.16194295E+04</pdfrwt>
<pdfrwt beam="2">  1       -1 0.87049814E-01 0.16194295E+04</pdfrwt>
<totfact> 0.14272118E+01</totfact>
</mgrwt>
</event>
<event>
12    3  0.4688899E-008  0.1073885E+04  0.7818608E-02  0.9231025E-01
          2   -1    0    0  501    0  0.00000000000E+00  0.00000000000E+00  0.79054508062E+03  0.79054508062E+03  0.00000000000E+00 0. -1.
         -2   -1    0    0    0  501 -0.00000000000E+00 -0.00000000000E+00 -0.36469456804E+03  0.36469456804E+03  0.00000000000E+00 0.  1.
         23    2    1    2    0    0 -0.64860465204E+02 -0.15188787835E+02 -0.73295829743E+02  0.13244121409E+03  0.87925066451E+02 0.  0.
        254    2    1    2    0    0  0.64860465204E+02  0.15188787835E+02  0.49914634233E+03  0.10227984346E+04  0.89024265650E+03 0.  0.
         23    2    4    4    0    0  0.15652062400E+02  0.39069895985E+03  0.48798912767E+03  0.63318118636E+03  0.99470406435E+02 0.  0.
         23    2    4    4    0    0  0.49208402804E+02 -0.37551017201E+03  0.11157214662E+02  0.38961724820E+03  0.90817181544E+02 0.  0.
          1    1    3    3  502    0 -0.15374473364E+02  0.74176709069E+01  0.18851423306E+02  0.25431721011E+02  0.00000000000E+00 0. -1.
         -1    1    3    3    0  502 -0.49485991840E+02 -0.22606458742E+02 -0.92147253050E+02  0.10700949308E+03  0.00000000000E+00 0.  1.
         13    1    5    5    0    0  0.77568135965E+01  0.12001351196E+03  0.22802287695E+03  0.25779418850E+03  0.00000000000E+00 0. -1.
        -13    1    5    5    0    0  0.78952488034E+01  0.27068544789E+03  0.25996625071E+03  0.37538699786E+03  0.00000000000E+00 0.  1.
          4    1    6    6  503    0  0.19419618679E+02 -0.12602402527E+03 -0.39121250815E+02  0.13337784223E+03  0.00000000000E+00 0. -1.
         -4    1    6    6    0  503  0.29788784125E+02 -0.24948614675E+03  0.50278465477E+02  0.25623940597E+03  0.00000000000E+00 0.  1.
<mgrwt>
<rscale>  0 0.10738855E+04</rscale>
<asrwt>0</asrwt>
<pdfrwt beam="1">  1        2 0.12162232E+00 0.10738855E+04</pdfrwt>
<pdfrwt beam="2">  1       -2 0.56106857E-01 0.10738855E+04</pdfrwt>
<totfact> 0.10380929E+02</totfact>
</mgrwt>
</event>
<event>
12    3  0.4688899E-008  0.4421831E+04  0.7818608E-02  0.7924467E-01
          1   -1    0    0  501    0  0.00000000000E+00  0.00000000000E+00  0.41456495928E+04  0.41456495928E+04  0.00000000000E+00 0. -1.
         -1   -1    0    0    0  501 -0.00000000000E+00 -0.00000000000E+00 -0.11791030883E+04  0.11791030883E+04  0.00000000000E+00 0.  1.
         23    2    1    2    0    0  0.20467589347E+04 -0.52544934724E+03  0.15691710323E+04  0.26336983086E+04  0.93540892828E+02 0.  0.
        254    2    1    2    0    0 -0.20467589347E+04  0.52544934724E+03  0.13973754722E+04  0.26910543725E+04  0.90763223409E+03 0.  0.
         23    2    4    4    0    0 -0.18615614647E+04  0.14785533796E+03  0.11458050199E+04  0.21927572854E+04  0.89683226881E+02 0.  0.
         23    2    4    4    0    0 -0.18519747003E+03  0.37759400928E+03  0.25157045229E+03  0.49829708717E+03  0.90205076686E+02 0.  0.
          1    1    3    3  502    0  0.96937788275E+03 -0.26411943401E+03  0.80125481460E+03  0.12850921496E+04  0.00000000000E+00 0. -1.
         -1    1    3    3    0  502  0.10773810520E+04 -0.26132991324E+03  0.76791621775E+03  0.13486061590E+04  0.00000000000E+00 0.  1.
         13    1    5    5    0    0 -0.27437517838E+03  0.28347205821E+01  0.13895751984E+03  0.30756944984E+03  0.00000000000E+00 0. -1.
        -13    1    5    5    0    0 -0.15871862863E+04  0.14502061738E+03  0.10068475000E+04  0.18851878355E+04  0.00000000000E+00 0.  1.
          3    1    6    6  503    0 -0.17957168293E+03  0.28728099615E+03  0.21107975946E+03  0.39916290523E+03  0.00000000000E+00 0. -1.
         -3    1    6    6    0  503 -0.56257870971E+01  0.90313013134E+02  0.40490692837E+02  0.99134181937E+02  0.00000000000E+00 0.  1.
<mgrwt>
<rscale>  0 0.44218314E+04</rscale>
<asrwt>0</asrwt>
<pdfrwt beam="1">  1        1 0.63779224E+00 0.44218314E+04</pdfrwt>
<pdfrwt beam="2">  1       -1 0.18140048E+00 0.44218314E+04</pdfrwt>
<totfact> 0.10870836E-02</totfact>
</mgrwt>
</event>
<event>
12    3  0.4688899E-008  0.1663166E+04  0.7818608E-02  0.8782656E-01
          1   -1    0    0  501    0  0.00000000000E+00  0.00000000000E+00  0.13597196459E+04  0.13597196459E+04  0.00000000000E+00 0. -1.
         -1   -1    0    0    0  501 -0.00000000000E+00 -0.00000000000E+00 -0.50858296644E+03  0.50858296644E+03  0.00000000000E+00 0.  1.
         23    2    1    2    0    0  0.30361273452E+03 -0.23410738365E+03 -0.19487622078E+03  0.44137889704E+03  0.99255376100E+02 0.  0.
        254    2    1    2    0    0 -0.30361273452E+03  0.23410738365E+03  0.10460129003E+04  0.14269237153E+04  0.89161726218E+03 0.  0.
         23    2    4    4    0    0 -0.37643149584E+03 -0.17392311638E+03  0.17842508484E+03  0.46058535826E+03  0.91397154611E+02 0.  0.
         23    2    4    4    0    0  0.72818761319E+02  0.40803050003E+03  0.86758781542E+03  0.96633835707E+03  0.96487003866E+02 0.  0.
          3    1    3    3  502    0  0.20215313007E+03 -0.17243158487E+03 -0.83325104892E+02  0.27846294648E+03  0.00000000000E+00 0. -1.
         -3    1    3    3    0  502  0.10145960445E+03 -0.61675798773E+02 -0.11155111589E+03  0.16291595055E+03  0.00000000000E+00 0.  1.
         13    1    5    5    0    0 -0.72620444663E+02  0.26527850857E+01  0.39608616037E+02  0.82762362921E+02  0.00000000000E+00 0. -1.
        -13    1    5    5    0    0 -0.30381105117E+03 -0.17657590147E+03  0.13881646880E+03  0.37782299534E+03  0.00000000000E+00 0.  1.
          2    1    6    6  503    0 -0.15831028853E+02  0.59680503037E+02  0.84127832744E+02  0.10435456942E+03  0.00000000000E+00 0. -1.
         -2    1    6    6    0  503  0.88649790172E+02  0.34834999699E+03  0.78345998268E+03  0.86198378765E+03  0.00000000000E+00 0.  1.
<mgrwt>
<rscale>  0 0.16631660E+04</rscale>
<asrwt>0</asrwt>
<pdfrwt beam="1">  1        1 0.20918764E+00 0.16631660E+04</pdfrwt>
<pdfrwt beam="2">  1       -1 0.78243534E-01 0.16631660E+04</pdfrwt>
<totfact> 0.12803663E+01</totfact>
</mgrwt>
</event>
<event>
12    3  0.4688899E-008  0.1444859E+04  0.7818608E-02  0.8921972E-01
          1   -1    0    0  501    0  0.00000000000E+00  0.00000000000E+00  0.11707146804E+04  0.11707146804E+04  0.00000000000E+00 0. -1.
         -1   -1    0    0    0  501 -0.00000000000E+00 -0.00000000000E+00 -0.44579975487E+03  0.44579975487E+03  0.00000000000E+00 0.  1.
         23    2    1    2    0    0  0.41869084529E+03 -0.80002453445E+02  0.11800987700E+03  0.44996918147E+03  0.82725550540E+02 0.  0.
        254    2    1    2    0    0 -0.41869084529E+03  0.80002453445E+02  0.60690504857E+03  0.11665452538E+04  0.90043971191E+03 0.  0.
         23    2    4    4    0    0  0.67342774252E+02 -0.29916856597E+03  0.39626831171E+03  0.50896205310E+03  0.89313585326E+02 0.  0.
         23    2    4    4    0    0 -0.48603361954E+03  0.37917101942E+03  0.21063673686E+03  0.65758320073E+03  0.89713375139E+02 0.  0.
          1    1    3    3  502    0  0.69874601781E+02  0.10885130387E+02  0.11780989755E+00  0.70717465430E+02  0.00000000000E+00 0. -1.
         -1    1    3    3    0  502  0.34881624351E+03 -0.90887583831E+02  0.11789206710E+03  0.37925171604E+03  0.00000000000E+00 0.  1.
         13    1    5    5    0    0  0.13477702752E+02 -0.15016339143E+03  0.12978585149E+03  0.19893481306E+03  0.00000000000E+00 0.  1.
        -13    1    5    5    0    0  0.53865071500E+02 -0.14900517454E+03  0.26648246022E+03  0.31002724005E+03  0.00000000000E+00 0. -1.
          2    1    6    6  503    0 -0.28339744240E+03  0.25952598455E+03  0.16336913288E+03  0.41756115791E+03  0.00000000000E+00 0. -1.
         -2    1    6    6    0  503 -0.20263617715E+03  0.11964503487E+03  0.47267603977E+02  0.24002204283E+03  0.00000000000E+00 0.  1.
<mgrwt>
<rscale>  0 0.14448589E+04</rscale>
<asrwt>0</asrwt>
<pdfrwt beam="1">  1        1 0.18010995E+00 0.14448589E+04</pdfrwt>
<pdfrwt beam="2">  1       -1 0.68584578E-01 0.14448589E+04</pdfrwt>
<totfact> 0.23475206E+01</totfact>
</mgrwt>
</event>
<event>
12    3  0.4688899E-008  0.2070740E+04  0.7818608E-02  0.8574243E-01
          2   -1    0    0  501    0  0.00000000000E+00  0.00000000000E+00  0.89109112513E+03  0.89109112513E+03  0.00000000000E+00 0. -1.
         -2   -1    0    0    0  501 -0.00000000000E+00 -0.00000000000E+00 -0.12030099980E+04  0.12030099980E+04  0.00000000000E+00 0.  1.
         23    2    1    2    0    0 -0.45982277876E+03  0.58754398154E+03 -0.46180005198E+03  0.88242281178E+03  0.93625918550E+02 0.  0.
        254    2    1    2    0    0  0.45982277876E+03 -0.58754398154E+03  0.14988117913E+03  0.12116783113E+04  0.94289715460E+03 0.  0.
         23    2    4    4    0    0  0.12616248831E+03  0.24902129899E+03  0.76945851499E+02  0.30363237550E+03  0.91342074557E+02 0.  0.
         23    2    4    4    0    0  0.33366029045E+03 -0.83656528053E+03  0.72935327635E+02  0.90804593581E+03  0.89761915753E+02 0.  0.
          4    1    3    3  502    0 -0.93063951411E+02  0.92976699870E+02 -0.45586700803E+02  0.13922540379E+03  0.00000000000E+00 0. -1.
         -4    1    3    3    0  502 -0.36675882735E+03  0.49456728167E+03 -0.41621335118E+03  0.74319740799E+03  0.00000000000E+00 0.  1.
         13    1    5    5    0    0  0.69435510663E+02  0.21776002287E+03  0.53422696088E+02  0.23472260683E+03  0.00000000000E+00 0. -1.
        -13    1    5    5    0    0  0.56726977651E+02  0.31261276121E+02  0.23523155411E+02  0.68909768674E+02  0.00000000000E+00 0.  1.
          3    1    6    6  503    0  0.28856446357E+03 -0.65569576152E+03  0.31423814399E+02  0.71707310466E+03  0.00000000000E+00 0. -1.
         -3    1    6    6    0  503  0.45095826876E+02 -0.18086951901E+03  0.41511513236E+02  0.19097283115E+03  0.00000000000E+00 0.  1.
<mgrwt>
<rscale>  0 0.20707405E+04</rscale>
<asrwt>0</asrwt>
<pdfrwt beam="1">  1        2 0.13709094E+00 0.20707405E+04</pdfrwt>
<pdfrwt beam="2">  1       -2 0.18507846E+00 0.20707405E+04</pdfrwt>
<totfact> 0.45945923E+00</totfact>
</mgrwt>
</event>
<event>
12    3  0.4688899E-008  0.1144269E+04  0.7818608E-02  0.9163087E-01
         -2   -1    0    0    0  501 -0.00000000000E+00  0.00000000000E+00  0.45904217551E+03  0.45904217551E+03  0.00000000000E+00 0.  1.
          2   -1    0    0  501    0  0.00000000000E+00 -0.00000000000E+00 -0.71308945680E+03  0.71308945680E+03  0.00000000000E+00 0. -1.
         23    2    1    2    0    0 -0.89583032328E+01  0.18909083612E+03 -0.11407351345E+03  0.23893159436E+03  0.90774141752E+02 0.  0.
        254    2    1    2    0    0  0.89583032328E+01 -0.18909083612E+03 -0.13997376783E+03  0.93320003795E+03  0.90301387567E+03 0.  0.
         23    2    4    4    0    0 -0.98320748923E+02 -0.53261822743E+03 -0.55277511565E+02  0.55204899217E+03  0.91396611566E+02 0.  0.
         23    2    4    4    0    0  0.10727905216E+03  0.34352739131E+03 -0.84696256266E+02  0.38115104578E+03  0.92643403766E+02 0.  0.
          2    1    3    3  502    0 -0.30901495579E+02  0.10874647425E+03 -0.22723152928E+02  0.11531279101E+03  0.00000000000E+00 0. -1.
         -2    1    3    3    0  502  0.21943192346E+02  0.80344361870E+02 -0.91350360523E+02  0.12361880335E+03  0.00000000000E+00 0.  1.
         13    1    5    5    0    0 -0.77188143948E+02 -0.44562941259E+03 -0.79756246617E+02  0.45924355391E+03  0.00000000000E+00 0.  1.
        -13    1    5    5    0    0 -0.21132604974E+02 -0.86988814844E+02  0.24478735052E+02  0.92805438260E+02  0.00000000000E+00 0. -1.
          3    1    6    6  503    0 -0.43966558176E+01  0.98504926881E+02 -0.47073565771E+02  0.10926331405E+03  0.00000000000E+00 0. -1.
         -3    1    6    6    0  503  0.11167570797E+03  0.24502246443E+03 -0.37622690495E+02  0.27188773174E+03  0.00000000000E+00 0.  1.
<mgrwt>
<rscale>  0 0.11442694E+04</rscale>
<asrwt>0</asrwt>
<pdfrwt beam="1">  1        2 0.10970607E+00 0.11442694E+04</pdfrwt>
<pdfrwt beam="2">  1       -2 0.70621874E-01 0.11442694E+04</pdfrwt>
<totfact> 0.72290656E+01</totfact>
</mgrwt>
</event>
<event>
12    3  0.4688899E-008  0.2154241E+04  0.7818608E-02  0.8537719E-01
          1   -1    0    0  501    0  0.00000000000E+00  0.00000000000E+00  0.87517735490E+03  0.87517735490E+03  0.00000000000E+00 0. -1.
         -1   -1    0    0    0  501 -0.00000000000E+00 -0.00000000000E+00 -0.13256605051E+04  0.13256605051E+04  0.00000000000E+00 0.  1.
         23    2    1    2    0    0  0.31250503680E+03 -0.17945385607E+03  0.66647552218E+03  0.76265582659E+03  0.87127513913E+02 0.  0.
        254    2    1    2    0    0 -0.31250503680E+03  0.17945385607E+03 -0.11169586724E+04  0.14381820334E+04  0.83120863862E+03 0.  0.
         23    2    4    4    0    0 -0.19093231402E+03 -0.29345123096E+03 -0.70731831395E+03  0.79442904092E+03  0.90826925113E+02 0.  0.
         23    2    4    4    0    0 -0.12157272278E+03  0.47290508703E+03 -0.40964035844E+03  0.64375299249E+03  0.90518196043E+02 0.  0.
          1    1    3    3  502    0  0.22643190248E+03 -0.10458920818E+03  0.38263303233E+03  0.45674757401E+03  0.00000000000E+00 0. -1.
         -1    1    3    3    0  502  0.86073134320E+02 -0.74864647883E+02  0.28384248985E+03  0.30590825258E+03  0.00000000000E+00 0.  1.
         13    1    5    5    0    0  0.97525346404E+01 -0.14373613515E+02 -0.44697895064E+02  0.47954296163E+02  0.00000000000E+00 0.  1.
        -13    1    5    5    0    0 -0.20068484866E+03 -0.27907761745E+03 -0.66262041889E+03  0.74647474476E+03  0.00000000000E+00 0. -1.
          3    1    6    6  503    0 -0.13686526124E+02  0.15481277148E+03 -0.87507601658E+02  0.17835889537E+03  0.00000000000E+00 0.  1.
         -3    1    6    6    0  503 -0.10788619666E+03  0.31809231555E+03 -0.32213275678E+03  0.46539409712E+03  0.00000000000E+00 0. -1.
<mgrwt>
<rscale>  0 0.21542405E+04</rscale>
<asrwt>0</asrwt>
<pdfrwt beam="1">  1        1 0.13464267E+00 0.21542405E+04</pdfrwt>
<pdfrwt beam="2">  1       -1 0.20394777E+00 0.21542405E+04</pdfrwt>
<totfact> 0.24686709E+00</totfact>
</mgrwt>
</event>
<event>
12    3  0.4688899E-008  0.1250239E+04  0.7818608E-02  0.9069984E-01
         -1   -1    0    0    0  501 -0.00000000000E+00  0.00000000000E+00  0.12544197816E+04  0.12544197816E+04  0.00000000000E+00 0.  1.
          1   -1    0    0  501    0  0.00000000000E+00 -0.00000000000E+00 -0.31151810971E+03  0.31151810971E+03  0.00000000000E+00 0. -1.
         23    2    1    2    0    0  0.53331986588E+02  0.28362304450E+03  0.28923871488E+03  0.41716818531E+03  0.84166076792E+02 0.  0.
        254    2    1    2    0    0 -0.53331986588E+02 -0.28362304450E+03  0.65366295701E+03  0.11487697060E+04  0.89950555523E+03 0.  0.
         23    2    4    4    0    0  0.31705177263E+03 -0.22337511672E+03  0.10774345323E+02  0.39851018320E+03  0.90972579926E+02 0.  0.
         23    2    4    4    0    0 -0.37038375922E+03 -0.60247927781E+02  0.64288861169E+03  0.75025952280E+03  0.93646370076E+02 0.  0.
          1    1    3    3  502    0 -0.10241622386E+02  0.49779420109E+02  0.19172813412E+02  0.54318305106E+02  0.00000000000E+00 0. -1.
         -1    1    3    3    0  502  0.63573608974E+02  0.23384362439E+03  0.27006590147E+03  0.36284988020E+03  0.00000000000E+00 0.  1.
         13    1    5    5    0    0  0.18426754665E+03 -0.78128563430E+02  0.22259652813E+02  0.20138046905E+03  0.00000000000E+00 0. -1.
        -13    1    5    5    0    0  0.13278422598E+03 -0.14524655329E+03 -0.11485307490E+02  0.19712971415E+03  0.00000000000E+00 0.  1.
          1    1    6    6  503    0 -0.33213889284E+03 -0.54995936838E+02  0.50395356583E+03  0.60606104785E+03  0.00000000000E+00 0. -1.
         -1    1    6    6    0  503 -0.38244866381E+02 -0.52519909426E+01  0.13893504585E+03  0.14419847495E+03  0.00000000000E+00 0.  1.
<mgrwt>
<rscale>  0 0.12502391E+04</rscale>
<asrwt>0</asrwt>
<pdfrwt beam="1">  1        1 0.47925864E-01 0.12502391E+04</pdfrwt>
<pdfrwt beam="2">  1       -1 0.19298766E+00 0.12502391E+04</pdfrwt>
<totfact> 0.13858818E+01</totfact>
</mgrwt>
</event>
<event>
12    3  0.4688899E-008  0.1851803E+04  0.7818608E-02  0.8679226E-01
         -2   -1    0    0    0  501 -0.00000000000E+00  0.00000000000E+00  0.28580188816E+03  0.28580188816E+03  0.00000000000E+00 0.  1.
          2   -1    0    0  501    0  0.00000000000E+00 -0.00000000000E+00 -0.29996083130E+04  0.29996083130E+04  0.00000000000E+00 0. -1.
         23    2    1    2    0    0 -0.15570269105E+03 -0.57551926657E+03 -0.37783788805E+03  0.71144571815E+03  0.89038115637E+02 0.  0.
        254    2    1    2    0    0  0.15570269105E+03  0.57551926657E+03 -0.23359685368E+04  0.25739644830E+04  0.90170860080E+03 0.  0.
         23    2    4    4    0    0  0.29782754772E+03 -0.24035481999E+02 -0.14955153378E+04  0.15279022163E+04  0.92952161735E+02 0.  0.
         23    2    4    4    0    0 -0.14212485667E+03  0.59955474857E+03 -0.84045319900E+03  0.10460622667E+04  0.90660436582E+02 0.  0.
          1    1    3    3  502    0 -0.15450333310E+03 -0.50148390612E+03 -0.30194584706E+03  0.60541612350E+03  0.00000000000E+00 0. -1.
         -1    1    3    3    0  502 -0.11993579534E+01 -0.74035360444E+02 -0.75892040989E+02  0.10602959465E+03  0.00000000000E+00 0.  1.
         13    1    5    5    0    0  0.28865267082E+03 -0.17701248293E+02 -0.14838392359E+04  0.15117581078E+04  0.00000000000E+00 0.  1.
        -13    1    5    5    0    0  0.91748769075E+01 -0.63342337052E+01 -0.11676101918E+02  0.16144108489E+02  0.00000000000E+00 0. -1.
          3    1    6    6  503    0 -0.33902397343E+02  0.25834492454E+03 -0.41543731677E+03  0.49038723143E+03  0.00000000000E+00 0. -1.
         -3    1    6    6    0  503 -0.10822245933E+03  0.34120982403E+03 -0.42501588223E+03  0.55567503531E+03  0.00000000000E+00 0.  1.
<mgrwt>
<rscale>  0 0.18518031E+04</rscale>
<asrwt>0</asrwt>
<pdfrwt beam="1">  1        2 0.46147820E+00 0.18518031E+04</pdfrwt>
<pdfrwt beam="2">  1       -2 0.43969522E-01 0.18518031E+04</pdfrwt>
<totfact> 0.80615382E+00</totfact>
</mgrwt>
</event>
<event>
12    3  0.4688899E-008  0.1995383E+04  0.7818608E-02  0.8608782E-01
         -2   -1    0    0    0  501 -0.00000000000E+00  0.00000000000E+00  0.23121265050E+04  0.23121265050E+04  0.00000000000E+00 0.  1.
          2   -1    0    0  501    0  0.00000000000E+00 -0.00000000000E+00 -0.43050763851E+03  0.43050763851E+03  0.00000000000E+00 0. -1.
         23    2    1    2    0    0 -0.45493298607E+03  0.28682684524E+03 -0.40246845771E+02  0.54686720401E+03  0.90610536162E+02 0.  0.
        254    2    1    2    0    0  0.45493298607E+03 -0.28682684524E+03  0.19218657123E+04  0.21957669395E+04  0.91574613058E+03 0.  0.
         23    2    4    4    0    0  0.68473517098E+03 -0.29163192684E+02  0.10959968079E+04  0.12959066748E+04  0.91936720355E+02 0.  0.
         23    2    4    4    0    0 -0.22980218491E+03 -0.25766365256E+03  0.82586890436E+03  0.89986026476E+03  0.92138194330E+02 0.  0.
          4    1    3    3  502    0 -0.19951946309E+03  0.16962431021E+03  0.66366460211E+01  0.26196272222E+03  0.00000000000E+00 0. -1.
         -4    1    3    3    0  502 -0.25541352299E+03  0.11720253503E+03 -0.46883491792E+02  0.28490448179E+03  0.00000000000E+00 0.  1.
         13    1    5    5    0    0  0.16353706283E+01  0.55626782285E+01  0.20786644217E+02  0.21580139109E+02  0.00000000000E+00 0. -1.
        -13    1    5    5    0    0  0.68309980035E+03 -0.34725870912E+02  0.10752101637E+04  0.12743265357E+04  0.00000000000E+00 0.  1.
          2    1    6    6  503    0 -0.19582461795E+03 -0.21222476076E+03  0.75950735725E+03  0.81255034046E+03  0.00000000000E+00 0.  1.
         -2    1    6    6    0  503 -0.33977566956E+02 -0.45438891800E+02  0.66361547115E+02  0.87309924291E+02  0.00000000000E+00 0. -1.
<mgrwt>
<rscale>  0 0.19953828E+04</rscale>
<asrwt>0</asrwt>
<pdfrwt beam="1">  1        2 0.66231945E-01 0.19953828E+04</pdfrwt>
<pdfrwt beam="2">  1       -2 0.35571176E+00 0.19953828E+04</pdfrwt>
<totfact> 0.97593458E-01</totfact>
</mgrwt>
</event>
<event>
12    3  0.4688899E-008  0.2118255E+04  0.7818608E-02  0.8553244E-01
         -1   -1    0    0    0  501 -0.00000000000E+00  0.00000000000E+00  0.90036954406E+03  0.90036954406E+03  0.00000000000E+00 0.  1.
          1   -1    0    0  501    0  0.00000000000E+00 -0.00000000000E+00 -0.12458780140E+04  0.12458780140E+04  0.00000000000E+00 0. -1.
         23    2    1    2    0    0  0.32569808504E+03 -0.69218410842E+03 -0.56131565735E+03  0.95308980855E+03  0.90037955426E+02 0.  0.
        254    2    1    2    0    0 -0.32569808504E+03  0.69218410842E+03  0.21580718740E+03  0.11931577495E+04  0.88986211883E+03 0.  0.
         23    2    4    4    0    0 -0.29971117478E+03  0.78273324160E+03  0.42650507144E+03  0.94481196182E+03  0.90911778299E+02 0.  0.
         23    2    4    4    0    0 -0.25986910264E+02 -0.90549133178E+02 -0.21069788403E+03  0.24834578770E+03  0.91692785457E+02 0.  0.
          1    1    3    3  502    0  0.31459240775E+03 -0.60175255581E+03 -0.48924158703E+03  0.83691806762E+03  0.00000000000E+00 0. -1.
         -1    1    3    3    0  502  0.11105677288E+02 -0.90431552618E+02 -0.72074070322E+02  0.11617174093E+03  0.00000000000E+00 0.  1.
         13    1    5    5    0    0 -0.12078608573E+03  0.23334541394E+03  0.16768666022E+03  0.31170206405E+03  0.00000000000E+00 0. -1.
        -13    1    5    5    0    0 -0.17892508904E+03  0.54938782766E+03  0.25881841122E+03  0.63310989777E+03  0.00000000000E+00 0.  1.
          2    1    6    6  503    0  0.32025480544E+02 -0.50042716181E+02 -0.11366159070E+03  0.12825311711E+03  0.00000000000E+00 0. -1.
         -2    1    6    6    0  503 -0.58012390808E+02 -0.40506416996E+02 -0.97036293333E+02  0.12009267059E+03  0.00000000000E+00 0.  1.
<mgrwt>
<rscale>  0 0.21182546E+04</rscale>
<asrwt>0</asrwt>
<pdfrwt beam="1">  1        1 0.19167354E+00 0.21182546E+04</pdfrwt>
<pdfrwt beam="2">  1       -1 0.13851839E+00 0.21182546E+04</pdfrwt>
<totfact> 0.39159403E+00</totfact>
</mgrwt>
</event>
<event>
12    3  0.4688899E-008  0.1546979E+04  0.7818608E-02  0.8853799E-01
         -2   -1    0    0    0  501 -0.00000000000E+00  0.00000000000E+00  0.35291745103E+03  0.35291745103E+03  0.00000000000E+00 0.  1.
          2   -1    0    0  501    0  0.00000000000E+00 -0.00000000000E+00 -0.16952585994E+04  0.16952585994E+04  0.00000000000E+00 0. -1.
         23    2    1    2    0    0 -0.48655206367E+03  0.11224675910E+03 -0.31134028607E+03  0.59440130744E+03  0.83951741905E+02 0.  0.
        254    2    1    2    0    0  0.48655206367E+03 -0.11224675910E+03 -0.10310008623E+04  0.14537747430E+04  0.89507875616E+03 0.  0.
         23    2    4    4    0    0  0.64734664685E+03  0.13619510906E+03 -0.88856592043E+03  0.11126086320E+04  0.10364257837E+03 0.  0.
         23    2    4    4    0    0 -0.16079458318E+03 -0.24844186816E+03 -0.14243494188E+03  0.34116611105E+03  0.92349027203E+02 0.  0.
          3    1    3    3  502    0 -0.14121347709E+03 -0.51578306897E+01 -0.95917102334E+02  0.17078624022E+03  0.00000000000E+00 0. -1.
         -3    1    3    3    0  502 -0.34533858658E+03  0.11740458979E+03 -0.21542318374E+03  0.42361506722E+03  0.00000000000E+00 0.  1.
         13    1    5    5    0    0  0.62151942506E+03  0.15102809367E+03 -0.84319332468E+03  0.10583340038E+04  0.00000000000E+00 0. -1.
        -13    1    5    5    0    0  0.25827221791E+02 -0.14832984608E+02 -0.45372595745E+02  0.54274628165E+02  0.00000000000E+00 0.  1.
          3    1    6    6  503    0 -0.47282358712E+02 -0.14802842244E+03 -0.96008865217E+02  0.18266290673E+03  0.00000000000E+00 0. -1.
         -3    1    6    6    0  503 -0.11351222446E+03 -0.10041344572E+03 -0.46426076667E+02  0.15850320432E+03  0.00000000000E+00 0.  1.
<mgrwt>
<rscale>  0 0.15469794E+04</rscale>
<asrwt>0</asrwt>
<pdfrwt beam="1">  1        2 0.26080901E+00 0.15469794E+04</pdfrwt>
<pdfrwt beam="2">  1       -2 0.54294993E-01 0.15469794E+04</pdfrwt>
<totfact> 0.30333031E+01</totfact>
</mgrwt>
</event>
<event>
12    3  0.4688899E-008  0.1687181E+04  0.7818608E-02  0.8768710E-01
         -2   -1    0    0    0  501 -0.00000000000E+00  0.00000000000E+00  0.50028158976E+03  0.50028158976E+03  0.00000000000E+00 0.  1.
          2   -1    0    0  501    0  0.00000000000E+00 -0.00000000000E+00 -0.14224883286E+04  0.14224883286E+04  0.00000000000E+00 0. -1.
         23    2    1    2    0    0  0.73938097976E+00 -0.25769034553E+03 -0.96072743095E+03  0.99951073343E+03  0.98079808299E+02 0.  0.
        254    2    1    2    0    0 -0.73938097976E+00  0.25769034553E+03  0.38520692081E+02  0.92325918495E+03  0.88573066901E+03 0.  0.
         23    2    4    4    0    0 -0.16651771182E+03  0.20510028637E+01 -0.36454363903E+03  0.41028266930E+03  0.87792078272E+02 0.  0.
         23    2    4    4    0    0  0.16577833084E+03  0.25563934266E+03  0.40306433111E+03  0.51297651565E+03  0.88600914818E+02 0.  0.
          4    1    3    3  502    0 -0.32321999526E+02 -0.39872134833E+02 -0.12259781267E+03  0.13290869972E+03  0.00000000000E+00 0.  1.
         -4    1    3    3    0  502  0.33061380505E+02 -0.21781821069E+03 -0.83812961828E+03  0.86660203371E+03  0.00000000000E+00 0. -1.
         13    1    5    5    0    0 -0.67131101198E+02 -0.29838077153E+02 -0.22036655072E+03  0.23228928574E+03  0.00000000000E+00 0. -1.
        -13    1    5    5    0    0 -0.99386610620E+02  0.31889080017E+02 -0.14417708831E+03  0.17799338355E+03  0.00000000000E+00 0.  1.
          1    1    6    6  503    0  0.84320062585E+02  0.20320380875E+03  0.26735744615E+03  0.34623931732E+03  0.00000000000E+00 0. -1.
         -1    1    6    6    0  503  0.81458268253E+02  0.52435533915E+02  0.13570688496E+03  0.16673719834E+03  0.00000000000E+00 0.  1.
<mgrwt>
<rscale>  0 0.16871808E+04</rscale>
<asrwt>0</asrwt>
<pdfrwt beam="1">  1        2 0.21884436E+00 0.16871808E+04</pdfrwt>
<pdfrwt beam="2">  1       -2 0.76966398E-01 0.16871808E+04</pdfrwt>
<totfact> 0.20170926E+01</totfact>
</mgrwt>
</event>
<event>
12    3  0.4688899E-008  0.1601717E+04  0.7818608E-02  0.8819494E-01
          2   -1    0    0  501    0  0.00000000000E+00  0.00000000000E+00  0.18573330834E+04  0.18573330834E+04  0.00000000000E+00 0. -1.
         -2   -1    0    0    0  501 -0.00000000000E+00 -0.00000000000E+00 -0.34532007681E+03  0.34532007681E+03  0.00000000000E+00 0.  1.
         23    2    1    2    0    0  0.21605766441E+02 -0.43989141635E+03  0.82452334158E+02  0.45697114538E+03  0.89738358477E+02 0.  0.
        254    2    1    2    0    0 -0.21605766441E+02  0.43989141635E+03  0.14295606724E+04  0.17456820148E+04  0.89988372214E+03 0.  0.
         23    2    4    4    0    0 -0.13024369342E+03  0.31638564556E+03  0.15042943065E+04  0.15454533303E+04  0.91985536690E+02 0.  0.
         23    2    4    4    0    0  0.10863792698E+03  0.12350577080E+03 -0.74733634123E+02  0.20022868454E+03  0.86316484193E+02 0.  0.
          3    1    3    3  502    0  0.33381338124E+02 -0.23151461862E+03  0.83186487944E+02  0.24826059725E+03  0.00000000000E+00 0. -1.
         -3    1    3    3    0  502 -0.11775571683E+02 -0.20837679773E+03 -0.73415378533E+00  0.20871054814E+03  0.00000000000E+00 0.  1.
         13    1    5    5    0    0 -0.34478509943E+02  0.20144507107E+03  0.83622771673E+03  0.86084010044E+03  0.00000000000E+00 0. -1.
        -13    1    5    5    0    0 -0.95765183479E+02  0.11494057449E+03  0.66806658981E+03  0.68461322983E+03  0.00000000000E+00 0.  1.
          3    1    6    6  503    0  0.11939955548E+03  0.98630280453E+02 -0.77143467971E+02  0.17301820922E+03  0.00000000000E+00 0. -1.
         -3    1    6    6    0  503 -0.10761628500E+02  0.24875490343E+02  0.24098338478E+01  0.27210475316E+02  0.00000000000E+00 0.  1.
<mgrwt>
<rscale>  0 0.16017171E+04</rscale>
<asrwt>0</asrwt>
<pdfrwt beam="1">  1        2 0.28574354E+00 0.16017171E+04</pdfrwt>
<pdfrwt beam="2">  1       -2 0.53126167E-01 0.16017171E+04</pdfrwt>
<totfact> 0.25686314E+01</totfact>
</mgrwt>
</event>
<event>
12    3  0.4688899E-008  0.1965733E+04  0.7818608E-02  0.8622811E-01
         -2   -1    0    0    0  501 -0.00000000000E+00  0.00000000000E+00  0.75126884157E+03  0.75126884157E+03  0.00000000000E+00 0. -1.
          2   -1    0    0  501    0  0.00000000000E+00 -0.00000000000E+00 -0.12858602317E+04  0.12858602317E+04  0.00000000000E+00 0.  1.
         23    2    1    2    0    0  0.22246923933E+03  0.22279305131E+03  0.51294346689E+03  0.60971412856E+03  0.97524418404E+02 0.  0.
        254    2    1    2    0    0 -0.22246923933E+03 -0.22279305131E+03 -0.10475348570E+04  0.14274149447E+04  0.91709042165E+03 0.  0.
         23    2    4    4    0    0 -0.54212239231E+03 -0.52641427949E+02 -0.82263931038E+03  0.99079626924E+03  0.90961552229E+02 0.  0.
         23    2    4    4    0    0  0.31965315299E+03 -0.17015162336E+03 -0.22489554661E+03  0.43661867542E+03  0.94488876030E+02 0.  0.
          1    1    3    3  502    0  0.82443741613E+02  0.15124505835E+03  0.27582394683E+03  0.32519361594E+03  0.00000000000E+00 0. -1.
         -1    1    3    3    0  502  0.14002549771E+03  0.71547992957E+02  0.23711952007E+03  0.28452051262E+03  0.00000000000E+00 0.  1.
         13    1    5    5    0    0 -0.77531636456E+02 -0.10129188000E+02 -0.68163327307E+02  0.10373039232E+03  0.00000000000E+00 0. -1.
        -13    1    5    5    0    0 -0.46459075586E+03 -0.42512239949E+02 -0.75447598307E+03  0.88706587692E+03  0.00000000000E+00 0.  1.
          1    1    6    6  503    0 -0.17944839681E+01 -0.56740642440E+01 -0.21249128063E+02  0.22066731094E+02  0.00000000000E+00 0. -1.
         -1    1    6    6    0  503  0.32144763695E+03 -0.16447755911E+03 -0.20364641855E+03  0.41455194432E+03  0.00000000000E+00 0.  1.
<mgrwt>
<rscale>  0 0.19657332E+04</rscale>
<asrwt>0</asrwt>
<pdfrwt beam="1">  1        2 0.19782465E+00 0.19657332E+04</pdfrwt>
<pdfrwt beam="2">  1       -2 0.11557982E+00 0.19657332E+04</pdfrwt>
<totfact> 0.91443933E+00</totfact>
</mgrwt>
</event>
<event>
12    3  0.4688899E-008  0.2466132E+04  0.7818608E-02  0.8415151E-01
         -2   -1    0    0    0  501 -0.00000000000E+00  0.00000000000E+00  0.72834677783E+03  0.72834677783E+03  0.00000000000E+00 0.  1.
          2   -1    0    0  501    0  0.00000000000E+00 -0.00000000000E+00 -0.20875386703E+04  0.20875386703E+04  0.00000000000E+00 0. -1.
         23    2    1    2    0    0  0.64321950665E+02 -0.60579062347E+03  0.41025724769E+03  0.73986829217E+03  0.89299986913E+02 0.  0.
        254    2    1    2    0    0 -0.64321950665E+02  0.60579062347E+03 -0.17694491402E+04  0.20760171560E+04  0.89876436258E+03 0.  0.
         23    2    4    4    0    0 -0.18976826734E+03  0.22984331804E+01 -0.16326979396E+02  0.21541737757E+03  0.10060217800E+03 0.  0.
         23    2    4    4    0    0  0.12544631668E+03  0.60349219029E+03 -0.17531221608E+04  0.18605997784E+04  0.91949022158E+02 0.  0.
          3    1    3    3  502    0  0.64588489325E+02 -0.24868257421E+03  0.19866774387E+03  0.32478233961E+03  0.00000000000E+00 0. -1.
         -3    1    3    3    0  502 -0.26653865989E+00 -0.35710804926E+03  0.21158950382E+03  0.41508595256E+03  0.00000000000E+00 0.  1.
         13    1    5    5    0    0 -0.16423767925E+03  0.81616595465E+01  0.25158539382E+02  0.16635377986E+03  0.00000000000E+00 0.  1.
        -13    1    5    5    0    0 -0.25530588096E+02 -0.58632263661E+01 -0.41485518778E+02  0.49063597709E+02  0.00000000000E+00 0. -1.
          1    1    6    6  503    0  0.19964889347E+02  0.43447047482E+02 -0.21612061266E+03  0.22134670080E+03  0.00000000000E+00 0. -1.
         -1    1    6    6    0  503  0.10548142733E+03  0.56004514281E+03 -0.15370015482E+04  0.16392530776E+04  0.00000000000E+00 0.  1.
<mgrwt>
<rscale>  0 0.24661322E+04</rscale>
<asrwt>0</asrwt>
<pdfrwt beam="1">  1        2 0.32115979E+00 0.24661322E+04</pdfrwt>
<pdfrwt beam="2">  1       -2 0.11205335E+00 0.24661322E+04</pdfrwt>
<totfact> 0.33542901E+00</totfact>
</mgrwt>
</event>
<event>
12    3  0.4688899E-008  0.1294556E+04  0.7818608E-02  0.9033893E-01
         -1   -1    0    0    0  501 -0.00000000000E+00  0.00000000000E+00  0.62499465818E+03  0.62499465818E+03  0.00000000000E+00 0.  1.
          1   -1    0    0  501    0  0.00000000000E+00 -0.00000000000E+00 -0.67035600713E+03  0.67035600713E+03  0.00000000000E+00 0. -1.
         23    2    1    2    0    0 -0.18407237171E+02 -0.17848173050E+03  0.24872781973E+03  0.31986165228E+03  0.90837182863E+02 0.  0.
        254    2    1    2    0    0  0.18407237171E+02  0.17848173050E+03 -0.29408916868E+03  0.97548901303E+03  0.91263126229E+03 0.  0.
         23    2    4    4    0    0 -0.27423776448E+03  0.30779712729E+03  0.12449385935E+03  0.44075296548E+03  0.93909704098E+02 0.  0.
         23    2    4    4    0    0  0.29264500165E+03 -0.12931539679E+03 -0.41858302803E+03  0.53473604755E+03  0.91473058094E+02 0.  0.
          2    1    3    3  502    0 -0.26394661769E+02 -0.10941812371E+02  0.65467454602E+02  0.71431008952E+02  0.00000000000E+00 0. -1.
         -2    1    3    3    0  502  0.79874245982E+01 -0.16753991813E+03  0.18326036513E+03  0.24843064333E+03  0.00000000000E+00 0.  1.
         13    1    5    5    0    0 -0.27219560189E+03  0.30816718317E+03  0.10933757549E+03  0.42545524310E+03  0.00000000000E+00 0.  1.
        -13    1    5    5    0    0 -0.20421625886E+01 -0.37005587218E+00  0.15156283861E+02  0.15297722375E+02  0.00000000000E+00 0. -1.
          1    1    6    6  503    0  0.10401476692E+03 -0.31560108904E+01 -0.15801212215E+03  0.18920058903E+03  0.00000000000E+00 0. -1.
         -1    1    6    6    0  503  0.18863023473E+03 -0.12615938590E+03 -0.26057090588E+03  0.34553545852E+03  0.00000000000E+00 0.  1.
<mgrwt>
<rscale>  0 0.12945562E+04</rscale>
<asrwt>0</asrwt>
<pdfrwt beam="1">  1        1 0.10313169E+00 0.12945562E+04</pdfrwt>
<pdfrwt beam="2">  1       -1 0.96153024E-01 0.12945562E+04</pdfrwt>
<totfact> 0.29806649E+01</totfact>
</mgrwt>
</event>
<event>
12    3  0.4688899E-008  0.1350670E+04  0.7818608E-02  0.8990321E-01
          1   -1    0    0  501    0  0.00000000000E+00  0.00000000000E+00  0.21635433448E+04  0.21635433448E+04  0.00000000000E+00 0. -1.
         -1   -1    0    0    0  501 -0.00000000000E+00 -0.00000000000E+00 -0.21080115256E+03  0.21080115256E+03  0.00000000000E+00 0.  1.
         23    2    1    2    0    0 -0.17036918329E+03  0.11053312383E+03  0.10872619455E+04  0.11096741208E+04  0.89414126499E+02 0.  0.
        254    2    1    2    0    0  0.17036918329E+03 -0.11053312383E+03  0.86548024667E+03  0.12646703765E+04  0.89949534400E+03 0.  0.
         23    2    4    4    0    0 -0.29766860288E+03 -0.14897636964E+03  0.95830992699E+02  0.35839931086E+03  0.92010494002E+02 0.  0.
         23    2    4    4    0    0  0.46803778617E+03  0.38443245809E+02  0.76964925397E+03  0.90627106569E+03  0.91815129197E+02 0.  0.
          3    1    3    3  502    0 -0.17974656795E+03  0.10879142340E+03  0.10637570053E+04  0.10843077832E+04  0.00000000000E+00 0. -1.
         -3    1    3    3    0  502  0.93773846666E+01  0.17417004319E+01  0.23504940243E+02  0.25366337524E+02  0.00000000000E+00 0.  1.
         13    1    5    5    0    0 -0.28988322250E+03 -0.15572769604E+03  0.78599063682E+02  0.33832116519E+03  0.00000000000E+00 0.  1.
        -13    1    5    5    0    0 -0.77853803822E+01  0.67513264000E+01  0.17231929017E+02  0.20078145669E+02  0.00000000000E+00 0. -1.
          3    1    6    6  503    0  0.11697191306E+03  0.37495990798E+02  0.14792980718E+03  0.19228001878E+03  0.00000000000E+00 0. -1.
         -3    1    6    6    0  503  0.35106587311E+03  0.94725501073E+00  0.62171944679E+03  0.71399104691E+03  0.00000000000E+00 0.  1.
<mgrwt>
<rscale>  0 0.13506701E+04</rscale>
<asrwt>0</asrwt>
<pdfrwt beam="1">  1        1 0.33285281E+00 0.13506701E+04</pdfrwt>
<pdfrwt beam="2">  1       -1 0.32430948E-01 0.13506701E+04</pdfrwt>
<totfact> 0.20113352E+01</totfact>
</mgrwt>
</event>
<event>
12    3  0.4688899E-008  0.1547086E+04  0.7818608E-02  0.8853731E-01
          2   -1    0    0  501    0  0.00000000000E+00  0.00000000000E+00  0.62181073666E+03  0.62181073666E+03  0.00000000000E+00 0.  1.
         -2   -1    0    0    0  501 -0.00000000000E+00 -0.00000000000E+00 -0.96230100924E+03  0.96230100924E+03  0.00000000000E+00 0. -1.
         23    2    1    2    0    0 -0.46231993490E+03  0.13726379150E+03 -0.35258828823E+03  0.60394007409E+03  0.88566593207E+02 0.  0.
        254    2    1    2    0    0  0.46231993490E+03 -0.13726379150E+03  0.12098015652E+02  0.98017167181E+03  0.85323447749E+03 0.  0.
         23    2    4    4    0    0  0.10889180196E+03  0.58264346188E+02 -0.38022606577E+03  0.41000556281E+03  0.90997482797E+02 0.  0.
         23    2    4    4    0    0  0.35342813294E+03 -0.19552813768E+03  0.39232408142E+03  0.57016610900E+03  0.89601948668E+02 0.  0.
          1    1    3    3  502    0 -0.11777619618E+03  0.15000127242E+02 -0.12934935906E+03  0.17557759793E+03  0.00000000000E+00 0. -1.
         -1    1    3    3    0  502 -0.34454373872E+03  0.12226366425E+03 -0.22323892916E+03  0.42836247616E+03  0.00000000000E+00 0.  1.
         13    1    5    5    0    0  0.77264992861E+02 -0.86267293714E+01 -0.22485115670E+03  0.23791246762E+03  0.00000000000E+00 0.  1.
        -13    1    5    5    0    0  0.31626809102E+02  0.66891075559E+02 -0.15537490907E+03  0.17209309519E+03  0.00000000000E+00 0. -1.
          4    1    6    6  503    0  0.32524260193E+03 -0.20403193425E+03  0.35809633315E+03  0.52501882263E+03  0.00000000000E+00 0. -1.
         -4    1    6    6    0  503  0.28185531015E+02  0.85037965625E+01  0.34227748274E+02  0.45147286369E+02  0.00000000000E+00 0.  1.
<mgrwt>
<rscale>  0 0.15470864E+04</rscale>
<asrwt>0</asrwt>
<pdfrwt beam="1">  1        2 0.95663190E-01 0.15470864E+04</pdfrwt>
<pdfrwt beam="2">  1       -2 0.14804631E+00 0.15470864E+04</pdfrwt>
<totfact> 0.14172695E+01</totfact>
</mgrwt>
</event>
<event>
12    3  0.4688899E-008  0.1440733E+04  0.7818608E-02  0.8924851E-01
          1   -1    0    0  501    0  0.00000000000E+00  0.00000000000E+00  0.34300453953E+03  0.34300453953E+03  0.00000000000E+00 0. -1.
         -1   -1    0    0    0  501 -0.00000000000E+00 -0.00000000000E+00 -0.15128886329E+04  0.15128886329E+04  0.00000000000E+00 0.  1.
         23    2    1    2    0    0 -0.96436990530E+02 -0.32089778396E+03 -0.72052637752E+03  0.79985164099E+03  0.91262840223E+02 0.  0.
        254    2    1    2    0    0  0.96436990530E+02  0.32089778396E+03 -0.44935771586E+03  0.10560415314E+04  0.89500049074E+03 0.  0.
         23    2    4    4    0    0 -0.69271177423E+02 -0.25585279126E+03 -0.33589880572E+03  0.43824058183E+03  0.94697693004E+02 0.  0.
         23    2    4    4    0    0  0.16570816795E+03  0.57675057522E+03 -0.11345891014E+03  0.61780094961E+03  0.93298800117E+02 0.  0.
          4    1    3    3  502    0 -0.31938561545E+01 -0.10992794838E+03 -0.31050319080E+03  0.32940337892E+03  0.00000000000E+00 0. -1.
         -4    1    3    3    0  502 -0.93243134376E+02 -0.21096983558E+03 -0.41002318672E+03  0.47044826207E+03  0.00000000000E+00 0.  1.
         13    1    5    5    0    0 -0.46491405715E+02 -0.23981577036E+03 -0.25702387315E+03  0.35459036350E+03  0.00000000000E+00 0. -1.
        -13    1    5    5    0    0 -0.22779771708E+02 -0.16037020900E+02 -0.78874932568E+02  0.83650218327E+02  0.00000000000E+00 0.  1.
          4    1    6    6  503    0  0.10600526279E+02  0.19150769186E+03 -0.28547842524E+02  0.19391376050E+03  0.00000000000E+00 0.  1.
         -4    1    6    6    0  503  0.15510764167E+03  0.38524288336E+03 -0.84911067611E+02  0.42388718911E+03  0.00000000000E+00 0. -1.
<mgrwt>
<rscale>  0 0.14407327E+04</rscale>
<asrwt>0</asrwt>
<pdfrwt beam="1">  1        1 0.52769930E-01 0.14407327E+04</pdfrwt>
<pdfrwt beam="2">  1       -1 0.23275210E+00 0.14407327E+04</pdfrwt>
<totfact> 0.64725536E+00</totfact>
</mgrwt>
</event>
<event>
12    3  0.4688899E-008  0.1596940E+04  0.7818608E-02  0.8822430E-01
          2   -1    0    0  501    0  0.00000000000E+00  0.00000000000E+00  0.24766422582E+04  0.24766422582E+04  0.00000000000E+00 0. -1.
         -2   -1    0    0    0  501 -0.00000000000E+00 -0.00000000000E+00 -0.25742697446E+03  0.25742697446E+03  0.00000000000E+00 0.  1.
         23    2    1    2    0    0 -0.16715530489E+03 -0.50483761216E+03  0.70267981713E+03  0.88603814018E+03  0.92210356530E+02 0.  0.
        254    2    1    2    0    0  0.16715530489E+03  0.50483761216E+03  0.15165354666E+04  0.18480310925E+04  0.91243475749E+03 0.  0.
         23    2    4    4    0    0 -0.26994141930E+03 -0.10005858748E+03  0.37859280122E+03  0.48411129018E+03  0.90283671625E+02 0.  0.
         23    2    4    4    0    0  0.43709672420E+03  0.60489619963E+03  0.11379426654E+04  0.13639198023E+04  0.91710188911E+02 0.  0.
          3    1    3    3  502    0  0.11212954431E+02 -0.18363546551E+02  0.25360753876E+02  0.33258352728E+02  0.00000000000E+00 0. -1.
         -3    1    3    3    0  502 -0.17836825933E+03 -0.48647406560E+03  0.67731906326E+03  0.85277978746E+03  0.00000000000E+00 0.  1.
         13    1    5    5    0    0 -0.27282651504E+03 -0.97082869794E+02  0.38156524832E+03  0.47901088677E+03  0.00000000000E+00 0.  1.
        -13    1    5    5    0    0  0.28850957405E+01 -0.29757176828E+01 -0.29724471028E+01  0.51004034094E+01  0.00000000000E+00 0. -1.
          1    1    6    6  503    0  0.34041590330E+02  0.25566026950E+02  0.10090068395E+03  0.10951438092E+03  0.00000000000E+00 0. -1.
         -1    1    6    6    0  503  0.40305513387E+03  0.57933017268E+03  0.10370419814E+04  0.12544054214E+04  0.00000000000E+00 0.  1.
<mgrwt>
<rscale>  0 0.15969402E+04</rscale>
<asrwt>0</asrwt>
<pdfrwt beam="1">  1        2 0.38102187E+00 0.15969402E+04</pdfrwt>
<pdfrwt beam="2">  1       -2 0.39604152E-01 0.15969402E+04</pdfrwt>
<totfact> 0.20815441E+01</totfact>
</mgrwt>
</event>
<event>
12    3  0.4688899E-008  0.1707258E+04  0.7818608E-02  0.8757236E-01
          2   -1    0    0  501    0  0.00000000000E+00  0.00000000000E+00  0.33618633406E+04  0.33618633406E+04  0.00000000000E+00 0. -1.
         -2   -1    0    0    0  501 -0.00000000000E+00 -0.00000000000E+00 -0.21674962465E+03  0.21674962465E+03  0.00000000000E+00 0.  1.
         23    2    1    2    0    0 -0.45140733462E+03 -0.35236812047E+03  0.67947411138E+03  0.89303596421E+03  0.88861078456E+02 0.  0.
        254    2    1    2    0    0  0.45140733462E+03  0.35236812047E+03  0.24656396046E+04  0.26855770011E+04  0.89722533114E+03 0.  0.
         23    2    4    4    0    0 -0.18967437600E+03 -0.10815955718E+03  0.87785322328E+03  0.91010856583E+03  0.99982304732E+02 0.  0.
         23    2    4    4    0    0  0.64108171062E+03  0.46052767765E+03  0.15877863813E+04  0.17754684352E+04  0.90283277793E+02 0.  0.
          4    1    3    3  502    0 -0.18393674074E+03 -0.18216060306E+03  0.25641554555E+03  0.36436814062E+03  0.00000000000E+00 0. -1.
         -4    1    3    3    0  502 -0.26747059388E+03 -0.17020751741E+03  0.42305856583E+03  0.52866782359E+03  0.00000000000E+00 0.  1.
         13    1    5    5    0    0 -0.59443228904E+02 -0.88577397114E+02  0.33855064576E+03  0.35495914199E+03  0.00000000000E+00 0. -1.
        -13    1    5    5    0    0 -0.13023114710E+03 -0.19582160064E+02  0.53930257752E+03  0.55514942384E+03  0.00000000000E+00 0.  1.
          1    1    6    6  503    0  0.22974795964E+03  0.21288735490E+03  0.58064025336E+03  0.65973347244E+03  0.00000000000E+00 0. -1.
         -1    1    6    6    0  503  0.41133375098E+03  0.24764032275E+03  0.10071461279E+04  0.11157349628E+04  0.00000000000E+00 0.  1.
<mgrwt>
<rscale>  0 0.17072582E+04</rscale>
<asrwt>0</asrwt>
<pdfrwt beam="1">  1        2 0.51720970E+00 0.17072582E+04</pdfrwt>
<pdfrwt beam="2">  1       -2 0.33346099E-01 0.17072582E+04</pdfrwt>
<totfact> 0.81539667E+00</totfact>
</mgrwt>
</event>
<event>
12    3  0.4688899E-008  0.1711794E+04  0.7818608E-02  0.8754666E-01
          1   -1    0    0  501    0  0.00000000000E+00  0.00000000000E+00  0.23680069133E+04  0.23680069133E+04  0.00000000000E+00 0. -1.
         -1   -1    0    0    0  501 -0.00000000000E+00 -0.00000000000E+00 -0.30935701048E+03  0.30935701048E+03  0.00000000000E+00 0.  1.
         23    2    1    2    0    0 -0.39313770561E+03  0.46494980192E+03  0.60345175638E+03  0.86205921473E+03  0.90865249449E+02 0.  0.
        254    2    1    2    0    0  0.39313770561E+03 -0.46494980192E+03  0.14551981464E+04  0.18153047090E+04  0.89832842959E+03 0.  0.
         23    2    4    4    0    0 -0.15712955696E+03 -0.27893558909E+03  0.10472347340E+04  0.10995926108E+04  0.99541755096E+02 0.  0.
         23    2    4    4    0    0  0.55026726257E+03 -0.18601421283E+03  0.40796341240E+03  0.71571209825E+03  0.91729570499E+02 0.  0.
          4    1    3    3  502    0 -0.30371022616E+03  0.34886506686E+03  0.40117121651E+03  0.61227859779E+03  0.00000000000E+00 0.  1.
         -4    1    3    3    0  502 -0.89427479449E+02  0.11608473505E+03  0.20228053987E+03  0.24978061695E+03  0.00000000000E+00 0. -1.
         13    1    5    5    0    0  0.13461003338E+02 -0.16989507126E+02  0.49585131402E+02  0.54115868462E+02  0.00000000000E+00 0. -1.
        -13    1    5    5    0    0 -0.17059056030E+03 -0.26194608196E+03  0.99764960261E+03  0.10454767423E+04  0.00000000000E+00 0.  1.
          1    1    6    6  503    0  0.35037066288E+02 -0.16633028233E+02  0.59612080856E+02  0.71118589878E+02  0.00000000000E+00 0. -1.
         -1    1    6    6    0  503  0.51523019628E+03 -0.16938118459E+03  0.34835133154E+03  0.64459350837E+03  0.00000000000E+00 0.  1.
<mgrwt>
<rscale>  0 0.17117938E+04</rscale>
<asrwt>0</asrwt>
<pdfrwt beam="1">  1        1 0.36430874E+00 0.17117938E+04</pdfrwt>
<pdfrwt beam="2">  1       -1 0.47593388E-01 0.17117938E+04</pdfrwt>
<totfact> 0.70111862E+00</totfact>
</mgrwt>
</event>
<event>
12    3  0.4688899E-008  0.2114617E+04  0.7818608E-02  0.8554832E-01
          2   -1    0    0  501    0  0.00000000000E+00  0.00000000000E+00  0.21120074966E+04  0.21120074966E+04  0.00000000000E+00 0.  1.
         -2   -1    0    0    0  501 -0.00000000000E+00 -0.00000000000E+00 -0.52930759804E+03  0.52930759804E+03  0.00000000000E+00 0. -1.
         23    2    1    2    0    0 -0.64360822954E+03 -0.34987188754E+03  0.83771773498E+02  0.74287533282E+03  0.90576814091E+02 0.  0.
        254    2    1    2    0    0  0.64360822954E+03  0.34987188754E+03  0.14989281251E+04  0.18984397618E+04  0.90589520053E+03 0.  0.
         23    2    4    4    0    0  0.52933303190E+03  0.63139671298E+03  0.12259586569E+04  0.14798734765E+04  0.90529608895E+02 0.  0.
         23    2    4    4    0    0  0.11427519764E+03 -0.28152482544E+03  0.27296946817E+03  0.41856628536E+03  0.91489652722E+02 0.  0.
          3    1    3    3  502    0 -0.53061991939E+03 -0.32564625828E+03  0.69891543617E+02  0.62648847735E+03  0.00000000000E+00 0. -1.
         -3    1    3    3    0  502 -0.11298831015E+03 -0.24225629260E+02  0.13880229881E+02  0.11638685547E+03  0.00000000000E+00 0.  1.
         13    1    5    5    0    0  0.40367177504E+03  0.43454072408E+03  0.82926050001E+03  0.10195339718E+04  0.00000000000E+00 0.  1.
        -13    1    5    5    0    0  0.12566125687E+03  0.19685598890E+03  0.39669815690E+03  0.46033950464E+03  0.00000000000E+00 0. -1.
          4    1    6    6  503    0  0.24803963058E+02 -0.13578464795E+02  0.40916654167E+01  0.28571892052E+02  0.00000000000E+00 0. -1.
         -4    1    6    6    0  503  0.89471234580E+02 -0.26794636064E+03  0.26887780276E+03  0.38999439331E+03  0.00000000000E+00 0.  1.
<mgrwt>
<rscale>  0 0.21146173E+04</rscale>
<asrwt>0</asrwt>
<pdfrwt beam="1">  1        2 0.32492423E+00 0.21146173E+04</pdfrwt>
<pdfrwt beam="2">  1       -2 0.81431939E-01 0.21146173E+04</pdfrwt>
<totfact> 0.70719298E+00</totfact>
</mgrwt>
</event>
<event>
12    3  0.4688899E-008  0.2309379E+04  0.7818608E-02  0.8474232E-01
         -2   -1    0    0    0  501 -0.00000000000E+00  0.00000000000E+00  0.76298201067E+03  0.76298201067E+03  0.00000000000E+00 0.  1.
          2   -1    0    0  501    0  0.00000000000E+00 -0.00000000000E+00 -0.17474959472E+04  0.17474959472E+04  0.00000000000E+00 0. -1.
         23    2    1    2    0    0  0.40369711391E+03  0.67597560820E+03 -0.10635647233E+04  0.13265121314E+04  0.92466921612E+02 0.  0.
        254    2    1    2    0    0 -0.40369711391E+03 -0.67597560820E+03  0.79050786742E+02  0.11839658264E+04  0.88068817898E+03 0.  0.
         23    2    4    4    0    0 -0.52989434912E+03 -0.60144683549E+02 -0.19245315655E+02  0.54118390674E+03  0.90023522198E+02 0.  0.
         23    2    4    4    0    0  0.12619723521E+03 -0.61583092465E+03  0.98296102397E+02  0.64278191969E+03  0.91285281380E+02 0.  0.
          3    1    3    3  502    0  0.36254205983E+03  0.64945750423E+03 -0.99880805224E+03  0.12453310083E+04  0.00000000000E+00 0. -1.
         -3    1    3    3    0  502  0.41155054084E+02  0.26518103972E+02 -0.64756671024E+02  0.81181123157E+02  0.00000000000E+00 0.  1.
         13    1    5    5    0    0 -0.20743678980E+03 -0.52020174520E+02 -0.41530001364E+02  0.21785513842E+03  0.00000000000E+00 0.  1.
        -13    1    5    5    0    0 -0.32245755932E+03 -0.81245090291E+01  0.22284685709E+02  0.32332876833E+03  0.00000000000E+00 0. -1.
          3    1    6    6  503    0  0.13360337155E+03 -0.57411305762E+03  0.74380131954E+02  0.59412798945E+03  0.00000000000E+00 0. -1.
         -3    1    6    6    0  503 -0.74061363371E+01 -0.41717867030E+02  0.23915970443E+02  0.48653930234E+02  0.00000000000E+00 0.  1.
<mgrwt>
<rscale>  0 0.23093791E+04</rscale>
<asrwt>0</asrwt>
<pdfrwt beam="1">  1        2 0.26884553E+00 0.23093791E+04</pdfrwt>
<pdfrwt beam="2">  1       -2 0.11738185E+00 0.23093791E+04</pdfrwt>
<totfact> 0.46885065E+00</totfact>
</mgrwt>
</event>
<event>
12    3  0.4688899E-008  0.1640089E+04  0.7818608E-02  0.8796291E-01
          1   -1    0    0  501    0  0.00000000000E+00  0.00000000000E+00  0.21767788328E+04  0.21767788328E+04  0.00000000000E+00 0. -1.
         -1   -1    0    0    0  501 -0.00000000000E+00 -0.00000000000E+00 -0.30893048799E+03  0.30893048799E+03  0.00000000000E+00 0.  1.
         23    2    1    2    0    0 -0.21786169491E+03 -0.25459708264E+03 -0.44901191220E+02  0.34931570856E+03  0.87874653190E+02 0.  0.
        254    2    1    2    0    0  0.21786169491E+03  0.25459708264E+03  0.19127495361E+04  0.21363936123E+04  0.89066463174E+03 0.  0.
         23    2    4    4    0    0 -0.11908318616E+03 -0.74209564819E+02  0.10541558292E+01  0.16542380694E+03  0.87613126414E+02 0.  0.
         23    2    4    4    0    0  0.33694488107E+03  0.32880664746E+03  0.19116953802E+04  0.19709698053E+04  0.92179620387E+02 0.  0.
          1    1    3    3  502    0 -0.15134061169E+03 -0.14255471254E+03  0.94731835025E+01  0.20812392467E+03  0.00000000000E+00 0. -1.
         -1    1    3    3    0  502 -0.66521083216E+02 -0.11204237010E+03 -0.54374374723E+02  0.14119178388E+03  0.00000000000E+00 0.  1.
         13    1    5    5    0    0 -0.73476987790E+02 -0.84786713490E+02  0.21671185563E+02  0.11426852061E+03  0.00000000000E+00 0. -1.
        -13    1    5    5    0    0 -0.45606198374E+02  0.10577148672E+02 -0.20617029733E+02  0.51155286326E+02  0.00000000000E+00 0.  1.
          2    1    6    6  503    0  0.19053364924E+03  0.20555654630E+03  0.95310070314E+03  0.99345735467E+03  0.00000000000E+00 0. -1.
         -2    1    6    6    0  503  0.14641123183E+03  0.12325010117E+03  0.95859467710E+03  0.97751245067E+03  0.00000000000E+00 0.  1.
<mgrwt>
<rscale>  0 0.16400894E+04</rscale>
<asrwt>0</asrwt>
<pdfrwt beam="1">  1        1 0.33488904E+00 0.16400894E+04</pdfrwt>
<pdfrwt beam="2">  1       -1 0.47527769E-01 0.16400894E+04</pdfrwt>
<totfact> 0.95567659E+00</totfact>
</mgrwt>
</event>
<event>
12    3  0.4688899E-008  0.1543189E+04  0.7818608E-02  0.8856230E-01
          2   -1    0    0  501    0  0.00000000000E+00  0.00000000000E+00  0.12902364433E+04  0.12902364433E+04  0.00000000000E+00 0. -1.
         -2   -1    0    0    0  501 -0.00000000000E+00 -0.00000000000E+00 -0.46143303049E+03  0.46143303049E+03  0.00000000000E+00 0.  1.
         23    2    1    2    0    0 -0.27760208300E+02 -0.27147211436E+03 -0.20173327935E+03  0.35073963968E+03  0.88624154762E+02 0.  0.
        254    2    1    2    0    0  0.27760208300E+02  0.27147211436E+03  0.10305366922E+04  0.14009298341E+04  0.90891737148E+03 0.  0.
         23    2    4    4    0    0 -0.23767473764E+03  0.49901131922E+03  0.78386707685E+03  0.96342731459E+03  0.90791071755E+02 0.  0.
         23    2    4    4    0    0  0.26543494594E+03 -0.22753920487E+03  0.24666961534E+03  0.43750251954E+03  0.91283926259E+02 0.  0.
          4    1    3    3  502    0  0.14808066641E+01 -0.13923908215E+03 -0.51473581732E+02  0.14845620365E+03  0.00000000000E+00 0. -1.
         -4    1    3    3    0  502 -0.29241014964E+02 -0.13223303221E+03 -0.15025969762E+03  0.20228343603E+03  0.00000000000E+00 0.  1.
         13    1    5    5    0    0 -0.87205975411E+02  0.11822195152E+03  0.25884505656E+03  0.29762741015E+03  0.00000000000E+00 0.  1.
        -13    1    5    5    0    0 -0.15046876223E+03  0.38078936771E+03  0.52502202028E+03  0.66579990444E+03  0.00000000000E+00 0. -1.
          2    1    6    6  503    0  0.13857658870E+03 -0.17467033781E+03  0.16773834085E+03  0.27901496167E+03  0.00000000000E+00 0. -1.
         -2    1    6    6    0  503  0.12685835724E+03 -0.52868867057E+02  0.78931274493E+02  0.15848755787E+03  0.00000000000E+00 0.  1.
<mgrwt>
<rscale>  0 0.15431885E+04</rscale>
<asrwt>0</asrwt>
<pdfrwt beam="1">  1        2 0.19849791E+00 0.15431885E+04</pdfrwt>
<pdfrwt beam="2">  1       -2 0.70989698E-01 0.15431885E+04</pdfrwt>
<totfact> 0.29080204E+01</totfact>
</mgrwt>
</event>
<event>
12    3  0.4688899E-008  0.2006417E+04  0.7818608E-02  0.8603626E-01
         -1   -1    0    0    0  501 -0.00000000000E+00  0.00000000000E+00  0.11850171074E+04  0.11850171074E+04  0.00000000000E+00 0.  1.
          1   -1    0    0  501    0  0.00000000000E+00 -0.00000000000E+00 -0.84929344390E+03  0.84929344390E+03  0.00000000000E+00 0. -1.
         23    2    1    2    0    0  0.46405945385E+03  0.60733568634E+03 -0.91683372744E+02  0.77528675201E+03  0.91955937219E+02 0.  0.
        254    2    1    2    0    0 -0.46405945385E+03 -0.60733568634E+03  0.42740703621E+03  0.12590237993E+04  0.90457522621E+03 0.  0.
         23    2    4    4    0    0  0.18998849633E+03 -0.13204666910E+03 -0.12102369568E+03  0.27786829592E+03  0.95037378975E+02 0.  0.
         23    2    4    4    0    0 -0.65404795018E+03 -0.47528901725E+03  0.54843073189E+03  0.98115550334E+03  0.90617233475E+02 0.  0.
          1    1    3    3  502    0  0.25873610492E+03  0.41098184375E+03 -0.51730171643E+02  0.48839170605E+03  0.00000000000E+00 0. -1.
         -1    1    3    3    0  502  0.20532334893E+03  0.19635384260E+03 -0.39953201101E+02  0.28689504596E+03  0.00000000000E+00 0.  1.
         13    1    5    5    0    0  0.18537288094E+03 -0.13082237142E+03 -0.13437174247E+03  0.26369179553E+03  0.00000000000E+00 0.  1.
        -13    1    5    5    0    0  0.46156153866E+01 -0.12242976745E+01  0.13348046790E+02  0.14176500390E+02  0.00000000000E+00 0. -1.
          3    1    6    6  503    0 -0.41164487960E+03 -0.30817142044E+03  0.29598302649E+03  0.59331870293E+03  0.00000000000E+00 0. -1.
         -3    1    6    6    0  503 -0.24240307058E+03 -0.16711759680E+03  0.25244770541E+03  0.38783680041E+03  0.00000000000E+00 0.  1.
<mgrwt>
<rscale>  0 0.20064170E+04</rscale>
<asrwt>0</asrwt>
<pdfrwt beam="1">  1        1 0.13066053E+00 0.20064170E+04</pdfrwt>
<pdfrwt beam="2">  1       -1 0.18231032E+00 0.20064170E+04</pdfrwt>
<totfact> 0.37246239E+00</totfact>
</mgrwt>
</event>
<event>
12    3  0.4688899E-008  0.1597102E+04  0.7818608E-02  0.8822331E-01
          1   -1    0    0  501    0  0.00000000000E+00  0.00000000000E+00  0.14932366405E+04  0.14932366405E+04  0.00000000000E+00 0. -1.
         -1   -1    0    0    0  501 -0.00000000000E+00 -0.00000000000E+00 -0.42704784222E+03  0.42704784222E+03  0.00000000000E+00 0.  1.
         23    2    1    2    0    0 -0.17526949161E+03 -0.19116039916E+03 -0.20375720131E+03  0.34213903695E+03  0.90996871506E+02 0.  0.
        254    2    1    2    0    0  0.17526949161E+03  0.19116039916E+03  0.12699459996E+04  0.15781454458E+04  0.90028801682E+03 0.  0.
         23    2    4    4    0    0  0.12329838612E+03  0.22376790936E+03  0.13890252751E+04  0.14156345012E+04  0.96722575707E+02 0.  0.
         23    2    4    4    0    0  0.51971105485E+02 -0.32607510195E+02 -0.11907927554E+03  0.16251094461E+03  0.92009171984E+02 0.  0.
          1    1    3    3  502    0  0.91894033174E+01 -0.12162208936E+02 -0.19878040004E+01  0.15372567264E+02  0.00000000000E+00 0. -1.
         -1    1    3    3    0  502 -0.18445889493E+03 -0.17899819023E+03 -0.20176939730E+03  0.32676646968E+03  0.00000000000E+00 0.  1.
         13    1    5    5    0    0  0.13845722335E+03  0.19350674769E+03  0.11631586973E+04  0.11872461494E+04  0.00000000000E+00 0.  1.
        -13    1    5    5    0    0 -0.15158837228E+02  0.30261161668E+02  0.22586657784E+03  0.22838835180E+03  0.00000000000E+00 0. -1.
          1    1    6    6  503    0  0.31112806297E+02  0.21778254015E+02 -0.10676476111E+02  0.39449793482E+02  0.00000000000E+00 0. -1.
         -1    1    6    6    0  503  0.20858299189E+02 -0.54385764210E+02 -0.10840279943E+03  0.12306115113E+03  0.00000000000E+00 0.  1.
<mgrwt>
<rscale>  0 0.15971017E+04</rscale>
<asrwt>0</asrwt>
<pdfrwt beam="1">  1        1 0.22972871E+00 0.15971017E+04</pdfrwt>
<pdfrwt beam="2">  1       -1 0.65699668E-01 0.15971017E+04</pdfrwt>
<totfact> 0.14903067E+01</totfact>
</mgrwt>
</event>
<event>
12    3  0.4688899E-008  0.2486628E+04  0.7818608E-02  0.8407765E-01
          2   -1    0    0  501    0  0.00000000000E+00  0.00000000000E+00  0.22303231261E+04  0.22303231261E+04  0.00000000000E+00 0. -1.
         -2   -1    0    0    0  501 -0.00000000000E+00 -0.00000000000E+00 -0.69309681591E+03  0.69309681591E+03  0.00000000000E+00 0.  1.
         23    2    1    2    0    0  0.23070785454E+03  0.30376386367E+02  0.19611489723E+04  0.19770580794E+04  0.92219946265E+02 0.  0.
        254    2    1    2    0    0 -0.23070785454E+03 -0.30376386367E+02 -0.42392266212E+03  0.94636186267E+03  0.81347496130E+03 0.  0.
         23    2    4    4    0    0 -0.35349221283E+03  0.93233634496E+01 -0.60604771205E+03  0.70743513893E+03  0.90149746941E+02 0.  0.
         23    2    4    4    0    0  0.12278435829E+03 -0.39699749816E+02  0.18212504993E+03  0.23892672374E+03  0.85231313082E+02 0.  0.
          2    1    3    3  502    0  0.17280991520E+03  0.55966378985E+02  0.16135449727E+04  0.16237373190E+04  0.00000000000E+00 0. -1.
         -2    1    3    3    0  502  0.57897939343E+02 -0.25589992619E+02  0.34760399965E+03  0.35332076033E+03  0.00000000000E+00 0.  1.
         13    1    5    5    0    0 -0.59213066727E+02  0.34385717014E+02 -0.93634987902E+02  0.11600032657E+03  0.00000000000E+00 0.  1.
        -13    1    5    5    0    0 -0.29427914610E+03 -0.25062353565E+02 -0.51241272415E+03  0.59143481236E+03  0.00000000000E+00 0. -1.
          3    1    6    6  503    0  0.10798313271E+03  0.37630867908E+01  0.13778523003E+03  0.17509793656E+03  0.00000000000E+00 0. -1.
         -3    1    6    6    0  503  0.14801225579E+02 -0.43462836607E+02  0.44339819896E+02  0.63828787181E+02  0.00000000000E+00 0.  1.
<mgrwt>
<rscale>  0 0.24866281E+04</rscale>
<asrwt>0</asrwt>
<pdfrwt beam="1">  1        2 0.34312663E+00 0.24866281E+04</pdfrwt>
<pdfrwt beam="2">  1       -2 0.10663028E+00 0.24866281E+04</pdfrwt>
<totfact> 0.31393562E+00</totfact>
</mgrwt>
</event>
<event>
12    3  0.4688899E-008  0.3054845E+04  0.7818608E-02  0.8228241E-01
         -2   -1    0    0    0  501 -0.00000000000E+00  0.00000000000E+00  0.10976206084E+04  0.10976206084E+04  0.00000000000E+00 0.  1.
          2   -1    0    0  501    0  0.00000000000E+00 -0.00000000000E+00 -0.21255250888E+04  0.21255250888E+04  0.00000000000E+00 0. -1.
         23    2    1    2    0    0 -0.10499358236E+04  0.33858185850E+03 -0.13674271159E+04  0.17592916892E+04  0.90815317125E+02 0.  0.
        254    2    1    2    0    0  0.10499358236E+04 -0.33858185850E+03  0.33952263547E+03  0.14638540080E+04  0.90032773387E+03 0.  0.
         23    2    4    4    0    0  0.28098448929E+03 -0.62461027662E+02  0.54001227370E+03  0.61775476714E+03  0.84581519182E+02 0.  0.
         23    2    4    4    0    0  0.76895133427E+03 -0.27612083084E+03 -0.20048963823E+03  0.84609924090E+03  0.90326976734E+02 0.  0.
          3    1    3    3  502    0 -0.95673818141E+03  0.28033959238E+03 -0.12364059495E+04  0.15882814318E+04  0.00000000000E+00 0. -1.
         -3    1    3    3    0  502 -0.93197642149E+02  0.58242266123E+02 -0.13102116640E+03  0.17101025733E+03  0.00000000000E+00 0.  1.
         13    1    5    5    0    0  0.22191255787E+02  0.17929357538E+02  0.62564242132E+02  0.68761894162E+02  0.00000000000E+00 0.  1.
        -13    1    5    5    0    0  0.25879323351E+03 -0.80390385201E+02  0.47744803156E+03  0.54899287298E+03  0.00000000000E+00 0. -1.
          3    1    6    6  503    0  0.67503796810E+03 -0.22892998705E+03 -0.20239618612E+03  0.74097868627E+03  0.00000000000E+00 0. -1.
         -3    1    6    6    0  503  0.93913366165E+02 -0.47190843781E+02  0.19065478898E+01  0.10512055463E+03  0.00000000000E+00 0.  1.
<mgrwt>
<rscale>  0 0.30548454E+04</rscale>
<asrwt>0</asrwt>
<pdfrwt beam="1">  1        2 0.32700386E+00 0.30548454E+04</pdfrwt>
<pdfrwt beam="2">  1       -2 0.16886471E+00 0.30548454E+04</pdfrwt>
<totfact> 0.10521532E+00</totfact>
</mgrwt>
</event>
<event>
12    3  0.4688899E-008  0.1418498E+04  0.7818608E-02  0.8940537E-01
          3   -1    0    0  501    0  0.00000000000E+00  0.00000000000E+00  0.13505009836E+04  0.13505009836E+04  0.00000000000E+00 0. -1.
         -3   -1    0    0    0  501 -0.00000000000E+00 -0.00000000000E+00 -0.37247957468E+03  0.37247957468E+03  0.00000000000E+00 0.  1.
         23    2    1    2    0    0 -0.22161036210E+03 -0.40487870048E+02 -0.12908261439E+03  0.27672954215E+03  0.95741829683E+02 0.  0.
        254    2    1    2    0    0  0.22161036210E+03  0.40487870048E+02  0.11071040234E+04  0.14462510162E+04  0.90289105822E+03 0.  0.
         23    2    4    4    0    0 -0.22263417582E+03  0.30407928789E+03  0.61551278283E+03  0.72735681179E+03  0.90342438873E+02 0.  0.
         23    2    4    4    0    0  0.44424453792E+03 -0.26359141784E+03  0.49159124052E+03  0.71889420437E+03  0.91177213687E+02 0.  0.
          2    1    3    3  502    0 -0.52529904293E+01  0.98345607099E+01  0.97239716636E+01  0.14794192027E+02  0.00000000000E+00 0. -1.
         -2    1    3    3    0  502 -0.21635737167E+03 -0.50322430758E+02 -0.13880658606E+03  0.26193535013E+03  0.00000000000E+00 0.  1.
         13    1    5    5    0    0 -0.12887715115E+03  0.24139420984E+03  0.40998149038E+03  0.49291511144E+03  0.00000000000E+00 0. -1.
        -13    1    5    5    0    0 -0.93757024671E+02  0.62685078045E+02  0.20553129245E+03  0.23444170035E+03  0.00000000000E+00 0.  1.
          3    1    6    6  503    0  0.36853554438E+03 -0.23372289729E+03  0.45234263222E+03  0.62853694968E+03  0.00000000000E+00 0. -1.
         -3    1    6    6    0  503  0.75708993536E+02 -0.29868520554E+02  0.39248608303E+02  0.90357254696E+02  0.00000000000E+00 0.  1.
<mgrwt>
<rscale>  0 0.14184978E+04</rscale>
<asrwt>0</asrwt>
<pdfrwt beam="1">  1        3 0.20776938E+00 0.14184978E+04</pdfrwt>
<pdfrwt beam="2">  1       -3 0.57304551E-01 0.14184978E+04</pdfrwt>
<totfact> 0.10042678E+00</totfact>
</mgrwt>
</event>
<event>
12    3  0.4688899E-008  0.2221344E+04  0.7818608E-02  0.8509596E-01
          1   -1    0    0  501    0  0.00000000000E+00  0.00000000000E+00  0.17663105196E+04  0.17663105196E+04  0.00000000000E+00 0. -1.
         -1   -1    0    0    0  501 -0.00000000000E+00 -0.00000000000E+00 -0.69840084262E+03  0.69840084262E+03  0.00000000000E+00 0.  1.
         23    2    1    2    0    0  0.37945091602E+03  0.64988394479E+03  0.10490459464E+04  0.12942735458E+04  0.91183739026E+02 0.  0.
        254    2    1    2    0    0 -0.37945091602E+03 -0.64988394479E+03  0.18863730527E+02  0.11704378164E+04  0.89623473621E+03 0.  0.
         23    2    4    4    0    0 -0.64903736192E+03 -0.50920372309E+03  0.11716873831E+03  0.83818097741E+03  0.90999499272E+02 0.  0.
         23    2    4    4    0    0  0.26958644591E+03 -0.14068022169E+03 -0.98305007784E+02  0.33225683900E+03  0.90900802586E+02 0.  0.
          1    1    3    3  502    0  0.36423452365E+03  0.57236320111E+03  0.95502996034E+03  0.11714728539E+04  0.00000000000E+00 0. -1.
         -1    1    3    3    0  502  0.15216392364E+02  0.77520743675E+02  0.94015986090E+02  0.12280069192E+03  0.00000000000E+00 0.  1.
         13    1    5    5    0    0 -0.39391807440E+03 -0.32019908056E+03  0.28085859792E+02  0.50841687231E+03  0.00000000000E+00 0. -1.
        -13    1    5    5    0    0 -0.25511928752E+03 -0.18900464254E+03  0.89082878519E+02  0.32976410510E+03  0.00000000000E+00 0.  1.
          1    1    6    6  503    0  0.13729729060E+03 -0.23083127669E+02 -0.29261178767E+02  0.14226592484E+03  0.00000000000E+00 0. -1.
         -1    1    6    6    0  503  0.13228915531E+03 -0.11759709402E+03 -0.69043829018E+02  0.18999091416E+03  0.00000000000E+00 0.  1.
<mgrwt>
<rscale>  0 0.22213444E+04</rscale>
<asrwt>0</asrwt>
<pdfrwt beam="1">  1        1 0.27174008E+00 0.22213444E+04</pdfrwt>
<pdfrwt beam="2">  1       -1 0.10744628E+00 0.22213444E+04</pdfrwt>
<totfact> 0.31524010E+00</totfact>
</mgrwt>
</event>
<event>
12    3  0.4688899E-008  0.1189799E+04  0.7818608E-02  0.9121833E-01
          1   -1    0    0  501    0  0.00000000000E+00  0.00000000000E+00  0.11117225193E+04  0.11117225193E+04  0.00000000000E+00 0. -1.
         -1   -1    0    0    0  501 -0.00000000000E+00 -0.00000000000E+00 -0.31833959857E+03  0.31833959857E+03  0.00000000000E+00 0.  1.
         23    2    1    2    0    0  0.75930241348E+02  0.81928308638E+02 -0.60719794720E+02  0.15747749850E+03  0.92922654689E+02 0.  0.
        254    2    1    2    0    0 -0.75930241348E+02 -0.81928308638E+02  0.85410271548E+03  0.12725846194E+04  0.93675104251E+03 0.  0.
         23    2    4    4    0    0  0.41693624898E+03 -0.96216778028E+02  0.46361137846E+03  0.63731792442E+03  0.90250332213E+02 0.  0.
         23    2    4    4    0    0 -0.49286649033E+03  0.14288469390E+02  0.39049133703E+03  0.63526669499E+03  0.89211836778E+02 0.  0.
          2    1    3    3  502    0  0.25424719092E+02  0.32250520207E+02  0.23586262110E+02  0.47358464448E+02  0.00000000000E+00 0. -1.
         -2    1    3    3    0  502  0.50505522256E+02  0.49677788431E+02 -0.84306056830E+02  0.11011903405E+03  0.00000000000E+00 0.  1.
         13    1    5    5    0    0  0.31246764353E+03 -0.66605995003E+02  0.39830960675E+03  0.51061035012E+03  0.00000000000E+00 0.  1.
        -13    1    5    5    0    0  0.10446860545E+03 -0.29610783025E+02  0.65301771709E+02  0.12670757430E+03  0.00000000000E+00 0. -1.
          4    1    6    6  503    0 -0.95731359034E+02  0.18481619172E+02  0.12061025233E+03  0.15508996201E+03  0.00000000000E+00 0. -1.
         -4    1    6    6    0  503 -0.39713513129E+03 -0.41931497821E+01  0.26988108469E+03  0.48017673297E+03  0.00000000000E+00 0.  1.
<mgrwt>
<rscale>  0 0.11897988E+04</rscale>
<asrwt>0</asrwt>
<pdfrwt beam="1">  1        1 0.17103423E+00 0.11897988E+04</pdfrwt>
<pdfrwt beam="2">  1       -1 0.48975323E-01 0.11897988E+04</pdfrwt>
<totfact> 0.51358683E+01</totfact>
</mgrwt>
</event>
<event>
12    3  0.4688899E-008  0.1892237E+04  0.7818608E-02  0.8658730E-01
         -1   -1    0    0    0  501 -0.00000000000E+00  0.00000000000E+00  0.83275869171E+03  0.83275869171E+03  0.00000000000E+00 0.  1.
          1   -1    0    0  501    0  0.00000000000E+00 -0.00000000000E+00 -0.10749091683E+04  0.10749091683E+04  0.00000000000E+00 0. -1.
         23    2    1    2    0    0  0.65067536165E+03  0.13858052627E+03 -0.39086709008E+03  0.77708709074E+03  0.92218631389E+02 0.  0.
        254    2    1    2    0    0 -0.65067536165E+03 -0.13858052627E+03  0.14871661351E+03  0.11305807692E+04  0.90194969711E+03 0.  0.
         23    2    4    4    0    0 -0.39314950080E+03 -0.50249267104E+03  0.19464381735E+03  0.67335501028E+03  0.91952921705E+02 0.  0.
         23    2    4    4    0    0 -0.25752586085E+03  0.36391214477E+03 -0.45927203833E+02  0.45722575896E+03  0.90523303590E+02 0.  0.
          3    1    3    3  502    0  0.59855217476E+03  0.12837117826E+03 -0.32702044134E+03  0.69403619096E+03  0.00000000000E+00 0. -1.
         -3    1    3    3    0  502  0.52123186886E+02  0.10209348006E+02 -0.63846648741E+02  0.83050899775E+02  0.00000000000E+00 0.  1.
         13    1    5    5    0    0 -0.12791257645E+03 -0.10984707611E+03  0.75684368709E+02  0.18481377387E+03  0.00000000000E+00 0.  1.
        -13    1    5    5    0    0 -0.26523692435E+03 -0.39264559492E+03  0.11895944864E+03  0.48854123641E+03  0.00000000000E+00 0. -1.
          2    1    6    6  503    0 -0.15923071720E+02  0.12262066609E+02  0.16539084451E+02  0.26027750671E+02  0.00000000000E+00 0. -1.
         -2    1    6    6    0  503 -0.24160278913E+03  0.35165007816E+03 -0.62466288283E+02  0.43119800829E+03  0.00000000000E+00 0.  1.
<mgrwt>
<rscale>  0 0.18922367E+04</rscale>
<asrwt>0</asrwt>
<pdfrwt beam="1">  1        1 0.16537064E+00 0.18922367E+04</pdfrwt>
<pdfrwt beam="2">  1       -1 0.12811672E+00 0.18922367E+04</pdfrwt>
<totfact> 0.65258673E+00</totfact>
</mgrwt>
</event>
<event>
12    3  0.4688899E-008  0.2560905E+04  0.7818608E-02  0.8381603E-01
          1   -1    0    0  501    0  0.00000000000E+00  0.00000000000E+00  0.28147632952E+04  0.28147632952E+04  0.00000000000E+00 0. -1.
         -1   -1    0    0    0  501 -0.00000000000E+00 -0.00000000000E+00 -0.58248542763E+03  0.58248542763E+03  0.00000000000E+00 0.  1.
         23    2    1    2    0    0  0.44553231726E+03  0.94091339252E+03  0.42558121820E+03  0.11283932793E+04  0.91296011184E+02 0.  0.
        254    2    1    2    0    0 -0.44553231726E+03 -0.94091339252E+03  0.18066966493E+04  0.22688554435E+04  0.89427914133E+03 0.  0.
         23    2    4    4    0    0 -0.68894441835E+03 -0.56629787622E+03  0.10057518211E+04  0.13473122899E+04  0.91520405015E+02 0.  0.
         23    2    4    4    0    0  0.24341210109E+03 -0.37461551630E+03  0.80094482824E+03  0.92154315361E+03  0.90238185251E+02 0.  0.
          4    1    3    3  502    0  0.34998755318E+03  0.64745296437E+03  0.31479098153E+03  0.80048734563E+03  0.00000000000E+00 0. -1.
         -4    1    3    3    0  502  0.95544764082E+02  0.29346042815E+03  0.11079023666E+03  0.32790593372E+03  0.00000000000E+00 0.  1.
         13    1    5    5    0    0 -0.58825267690E+03 -0.44121011849E+03  0.84386021445E+03  0.11192889002E+04  0.00000000000E+00 0.  1.
        -13    1    5    5    0    0 -0.10069174145E+03 -0.12508775773E+03  0.16189160666E+03  0.22802338967E+03  0.00000000000E+00 0. -1.
          1    1    6    6  503    0  0.67693534196E+02 -0.65042568995E+02  0.11257279326E+03  0.14657961706E+03  0.00000000000E+00 0. -1.
         -1    1    6    6    0  503  0.17571856689E+03 -0.30957294730E+03  0.68837203497E+03  0.77496353655E+03  0.00000000000E+00 0.  1.
<mgrwt>
<rscale>  0 0.25609050E+04</rscale>
<asrwt>0</asrwt>
<pdfrwt beam="1">  1        1 0.43304050E+00 0.25609050E+04</pdfrwt>
<pdfrwt beam="2">  1       -1 0.89613144E-01 0.25609050E+04</pdfrwt>
<totfact> 0.87634466E-01</totfact>
</mgrwt>
</event>
<event>
12    3  0.4688899E-008  0.2961081E+04  0.7818608E-02  0.8254933E-01
         -2   -1    0    0    0  501 -0.00000000000E+00  0.00000000000E+00  0.11191242216E+04  0.11191242216E+04  0.00000000000E+00 0. -1.
          2   -1    0    0  501    0  0.00000000000E+00 -0.00000000000E+00 -0.19586742160E+04  0.19586742160E+04  0.00000000000E+00 0.  1.
         23    2    1    2    0    0  0.10892588034E+04 -0.48078869590E+03 -0.10141062336E+04  0.15666095594E+04  0.90617589656E+02 0.  0.
        254    2    1    2    0    0 -0.10892588034E+04  0.48078869590E+03  0.17455623926E+03  0.15111888782E+04  0.91410034135E+03 0.  0.
         23    2    4    4    0    0 -0.82599773571E+02 -0.12994942736E+03  0.27402003576E+03  0.32611765948E+03  0.86926242076E+02 0.  0.
         23    2    4    4    0    0 -0.10066590299E+04  0.61073812326E+03 -0.99463796493E+02  0.11850712187E+04  0.90206923820E+02 0.  0.
          2    1    3    3  502    0  0.79380122103E+02 -0.52187454516E+02 -0.57453658341E+02  0.11102097572E+03  0.00000000000E+00 0. -1.
         -2    1    3    3    0  502  0.10098786813E+04 -0.42860124138E+03 -0.95665257530E+03  0.14555885837E+04  0.00000000000E+00 0.  1.
         13    1    5    5    0    0  0.13106786775E+02 -0.37392877448E+02  0.95685027454E+02  0.10356466397E+03  0.00000000000E+00 0. -1.
        -13    1    5    5    0    0 -0.95706560346E+02 -0.92556549912E+02  0.17833500830E+03  0.22255299551E+03  0.00000000000E+00 0.  1.
          4    1    6    6  503    0 -0.82244142731E+03  0.45847439409E+03 -0.89906564474E+02  0.94588152626E+03  0.00000000000E+00 0. -1.
         -4    1    6    6    0  503 -0.18421760255E+03  0.15226372917E+03 -0.95572320192E+01  0.23918969249E+03  0.00000000000E+00 0.  1.
<mgrwt>
<rscale>  0 0.29610807E+04</rscale>
<asrwt>0</asrwt>
<pdfrwt beam="1">  1        2 0.30133449E+00 0.29610807E+04</pdfrwt>
<pdfrwt beam="2">  1       -2 0.17217296E+00 0.29610807E+04</pdfrwt>
<totfact> 0.12444902E+00</totfact>
</mgrwt>
</event>
<event>
12    3  0.4688899E-008  0.1103643E+04  0.7818608E-02  0.9201648E-01
         -1   -1    0    0    0  501 -0.00000000000E+00  0.00000000000E+00  0.63049582651E+03  0.63049582651E+03  0.00000000000E+00 0.  1.
          1   -1    0    0  501    0  0.00000000000E+00 -0.00000000000E+00 -0.48296422193E+03  0.48296422193E+03  0.00000000000E+00 0. -1.
         23    2    1    2    0    0 -0.97377382783E+01 -0.10659838084E+03 -0.84270202170E+02  0.17084468348E+03  0.10309413444E+03 0.  0.
        254    2    1    2    0    0  0.97377382783E+01  0.10659838084E+03  0.23180180676E+03  0.94261536495E+03  0.90737732520E+03 0.  0.
         23    2    4    4    0    0 -0.79977377743E+02 -0.28455171706E+03 -0.18194233370E+03  0.35867042142E+03  0.90417906315E+02 0.  0.
         23    2    4    4    0    0  0.89715116021E+02  0.39115009790E+03  0.41374414046E+03  0.58394494353E+03  0.93596379093E+02 0.  0.
          2    1    3    3  502    0 -0.14140716751E+02 -0.11331602502E+03 -0.32885125680E+02  0.11883565495E+03  0.00000000000E+00 0. -1.
         -2    1    3    3    0  502  0.44029784729E+01  0.67176441811E+01 -0.51385076490E+02  0.52009028530E+02  0.00000000000E+00 0.  1.
         13    1    5    5    0    0 -0.36448504188E+02 -0.22904469040E+02 -0.16745993423E+02  0.46190220343E+02  0.00000000000E+00 0. -1.
        -13    1    5    5    0    0 -0.43528873554E+02 -0.26164724802E+03 -0.16519634028E+03  0.31248020108E+03  0.00000000000E+00 0.  1.
          3    1    6    6  503    0 -0.15330363588E+01 -0.48033400663E+01  0.18832128973E+01  0.53822641227E+01  0.00000000000E+00 0. -1.
         -3    1    6    6    0  503  0.91248152380E+02  0.39595343796E+03  0.41186092756E+03  0.57856267940E+03  0.00000000000E+00 0.  1.
<mgrwt>
<rscale>  0 0.11036429E+04</rscale>
<asrwt>0</asrwt>
<pdfrwt beam="1">  1        1 0.74302188E-01 0.11036429E+04</pdfrwt>
<pdfrwt beam="2">  1       -1 0.96999358E-01 0.11036429E+04</pdfrwt>
<totfact> 0.47345559E+01</totfact>
</mgrwt>
</event>
<event>
12    3  0.4688899E-008  0.1293791E+04  0.7818608E-02  0.9034503E-01
          1   -1    0    0  501    0  0.00000000000E+00  0.00000000000E+00  0.44540696902E+03  0.44540696902E+03  0.00000000000E+00 0. -1.
         -1   -1    0    0    0  501 -0.00000000000E+00 -0.00000000000E+00 -0.93953152461E+03  0.93953152461E+03  0.00000000000E+00 0.  1.
         23    2    1    2    0    0 -0.80270308145E+02 -0.26861277601E+03  0.45041892988E+02  0.29859939439E+03  0.92394157834E+02 0.  0.
        254    2    1    2    0    0  0.80270308145E+02  0.26861277601E+03 -0.53916644858E+03  0.10863390992E+04  0.90046434325E+03 0.  0.
         23    2    4    4    0    0 -0.18360592627E+03  0.68388441188E+02 -0.68238568781E+03  0.71584909421E+03  0.91660153366E+02 0.  0.
         23    2    4    4    0    0  0.26387623441E+03  0.20022433482E+03  0.14321923923E+03  0.37049000502E+03  0.83848923639E+02 0.  0.
          4    1    3    3  502    0 -0.10054234685E+03 -0.23898009659E+03  0.38732591362E+02  0.26214588249E+03  0.00000000000E+00 0. -1.
         -4    1    3    3    0  502  0.20272038700E+02 -0.29632679421E+02  0.63093016255E+01  0.36453511899E+02  0.00000000000E+00 0.  1.
         13    1    5    5    0    0 -0.17407043816E+03  0.30071283997E+02 -0.56848977291E+03  0.59530279813E+03  0.00000000000E+00 0. -1.
        -13    1    5    5    0    0 -0.95354881086E+01  0.38317157191E+02 -0.11389591490E+03  0.12054629608E+03  0.00000000000E+00 0.  1.
          1    1    6    6  503    0  0.25973275265E+03  0.20669706320E+03  0.14556382844E+03  0.36245497221E+03  0.00000000000E+00 0. -1.
         -1    1    6    6    0  503  0.41434817640E+01 -0.64727283747E+01 -0.23445892076E+01  0.80350328123E+01  0.00000000000E+00 0.  1.
<mgrwt>
<rscale>  0 0.12937912E+04</rscale>
<asrwt>0</asrwt>
<pdfrwt beam="1">  1        1 0.68524150E-01 0.12937912E+04</pdfrwt>
<pdfrwt beam="2">  1       -1 0.14454331E+00 0.12937912E+04</pdfrwt>
<totfact> 0.19667129E+01</totfact>
</mgrwt>
</event>
<event>
12    3  0.4688899E-008  0.2129836E+04  0.7818608E-02  0.8548213E-01
          1   -1    0    0  501    0  0.00000000000E+00  0.00000000000E+00  0.10528577816E+04  0.10528577816E+04  0.00000000000E+00 0. -1.
         -1   -1    0    0    0  501 -0.00000000000E+00 -0.00000000000E+00 -0.10771167507E+04  0.10771167507E+04  0.00000000000E+00 0.  1.
         23    2    1    2    0    0 -0.25791118831E+03 -0.61439914100E+03  0.55322884024E+03  0.87091838752E+03  0.91827025009E+02 0.  0.
        254    2    1    2    0    0  0.25791118831E+03  0.61439914100E+03 -0.57748780934E+03  0.12590561448E+04  0.89873562317E+03 0.  0.
         23    2    4    4    0    0  0.40854582996E+03  0.28843080079E+03  0.69789481955E+02  0.51320901731E+03  0.91710967881E+02 0.  0.
         23    2    4    4    0    0 -0.15063464166E+03  0.32596834022E+03 -0.64727729130E+03  0.74584712751E+03  0.91508970591E+02 0.  0.
          1    1    3    3  502    0 -0.15262475561E+03 -0.38100667126E+03  0.28233053276E+03  0.49816757151E+03  0.00000000000E+00 0. -1.
         -1    1    3    3    0  502 -0.10528643269E+03 -0.23339246974E+03  0.27089830748E+03  0.37275081601E+03  0.00000000000E+00 0.  1.
         13    1    5    5    0    0  0.24880949942E+02 -0.18550413804E+01  0.14697728249E+02  0.28957314520E+02  0.00000000000E+00 0.  1.
        -13    1    5    5    0    0  0.38366488002E+03  0.29028584217E+03  0.55091753706E+02  0.48425170279E+03  0.00000000000E+00 0. -1.
          1    1    6    6  503    0 -0.58974569665E+02  0.18481164511E+03 -0.42372280888E+03  0.46601970216E+03  0.00000000000E+00 0. -1.
         -1    1    6    6    0  503 -0.91660071993E+02  0.14115669510E+03 -0.22355448242E+03  0.27982742535E+03  0.00000000000E+00 0.  1.
<mgrwt>
<rscale>  0 0.21298364E+04</rscale>
<asrwt>0</asrwt>
<pdfrwt beam="1">  1        1 0.16197812E+00 0.21298364E+04</pdfrwt>
<pdfrwt beam="2">  1       -1 0.16571027E+00 0.21298364E+04</pdfrwt>
<totfact> 0.33440126E+00</totfact>
</mgrwt>
</event>
<event>
12    3  0.4688899E-008  0.1582255E+04  0.7818608E-02  0.8831524E-01
          1   -1    0    0  501    0  0.00000000000E+00  0.00000000000E+00  0.12192804272E+04  0.12192804272E+04  0.00000000000E+00 0. -1.
         -1   -1    0    0    0  501 -0.00000000000E+00 -0.00000000000E+00 -0.51332114929E+03  0.51332114929E+03  0.00000000000E+00 0.  1.
         23    2    1    2    0    0 -0.35769203330E+03 -0.39480877494E+03  0.26554178016E+03  0.60258884026E+03  0.93719335997E+02 0.  0.
        254    2    1    2    0    0  0.35769203330E+03  0.39480877494E+03  0.44041749776E+03  0.11300127363E+04  0.89394834991E+03 0.  0.
         23    2    4    4    0    0 -0.48765831818E+01  0.71394537614E+02 -0.25329586900E+03  0.27816079358E+03  0.89964819616E+02 0.  0.
         23    2    4    4    0    0  0.36256861648E+03  0.32341423732E+03  0.69371336676E+03  0.85185194267E+03  0.91437008130E+02 0.  0.
          1    1    3    3  502    0 -0.19165395682E+03 -0.19882021541E+03  0.18872899357E+03  0.33448370698E+03  0.00000000000E+00 0. -1.
         -1    1    3    3    0  502 -0.16603807647E+03 -0.19598855952E+03  0.76812786586E+02  0.26810513327E+03  0.00000000000E+00 0.  1.
         13    1    5    5    0    0 -0.38570338032E+02  0.10899620235E+02 -0.54509081552E+02  0.67658795946E+02  0.00000000000E+00 0.  1.
        -13    1    5    5    0    0  0.33693754850E+02  0.60494917378E+02 -0.19878678745E+03  0.21050199763E+03  0.00000000000E+00 0. -1.
          3    1    6    6  503    0  0.36513277715E+03  0.32035884790E+03  0.69475989111E+03  0.84772816555E+03  0.00000000000E+00 0. -1.
         -3    1    6    6    0  503 -0.25641606768E+01  0.30553894242E+01 -0.10465243491E+01  0.41237771185E+01  0.00000000000E+00 0.  1.
<mgrwt>
<rscale>  0 0.15822546E+04</rscale>
<asrwt>0</asrwt>
<pdfrwt beam="1">  1        1 0.18758160E+00 0.15822546E+04</pdfrwt>
<pdfrwt beam="2">  1       -1 0.78972485E-01 0.15822546E+04</pdfrwt>
<totfact> 0.15940044E+01</totfact>
</mgrwt>
</event>
<event>
12    3  0.4688899E-008  0.1870884E+04  0.7818608E-02  0.8669487E-01
          2   -1    0    0  501    0  0.00000000000E+00  0.00000000000E+00  0.20181559749E+04  0.20181559749E+04  0.00000000000E+00 0. -1.
         -2   -1    0    0    0  501 -0.00000000000E+00 -0.00000000000E+00 -0.43358954288E+03  0.43358954288E+03  0.00000000000E+00 0.  1.
         23    2    1    2    0    0  0.19216055125E+02 -0.26895521608E+03  0.14802708119E+04  0.15086513364E+04  0.11009547291E+03 0.  0.
        254    2    1    2    0    0 -0.19216055125E+02  0.26895521608E+03  0.10429562013E+03  0.94309418141E+03  0.89768752559E+03 0.  0.
         23    2    4    4    0    0  0.35107492620E+03  0.36102679740E+03 -0.64284304244E+02  0.51612077093E+03  0.93028093432E+02 0.  0.
         23    2    4    4    0    0 -0.37029098132E+03 -0.92071581321E+02  0.16857992437E+03  0.42697341048E+03  0.91074230262E+02 0.  0.
          4    1    3    3  502    0 -0.46100057841E+02 -0.10071876897E+03  0.56981940518E+03  0.58048569343E+03  0.00000000000E+00 0. -1.
         -4    1    3    3    0  502  0.65316112966E+02 -0.16823644712E+03  0.91045140670E+03  0.92816564293E+03  0.00000000000E+00 0.  1.
         13    1    5    5    0    0  0.55577479729E+02  0.85415808991E+02  0.18703409612E+02  0.10360759726E+03  0.00000000000E+00 0. -1.
        -13    1    5    5    0    0  0.29549744647E+03  0.27561098841E+03 -0.82987713856E+02  0.41251317367E+03  0.00000000000E+00 0.  1.
          1    1    6    6  503    0 -0.45198725443E+02 -0.44850109887E+02  0.23742226851E+02  0.67956975171E+02  0.00000000000E+00 0. -1.
         -1    1    6    6    0  503 -0.32509225588E+03 -0.47221471434E+02  0.14483769752E+03  0.35901643531E+03  0.00000000000E+00 0.  1.
<mgrwt>
<rscale>  0 0.18708836E+04</rscale>
<asrwt>0</asrwt>
<pdfrwt beam="1">  1        2 0.31048553E+00 0.18708836E+04</pdfrwt>
<pdfrwt beam="2">  1       -2 0.66706085E-01 0.18708836E+04</pdfrwt>
<totfact> 0.12649511E+01</totfact>
</mgrwt>
</event>
<event>
12    3  0.4688899E-008  0.1985665E+04  0.7818608E-02  0.8613352E-01
         -1   -1    0    0    0  501 -0.00000000000E+00  0.00000000000E+00  0.10549057548E+04  0.10549057548E+04  0.00000000000E+00 0.  1.
          1   -1    0    0  501    0  0.00000000000E+00 -0.00000000000E+00 -0.93441154032E+03  0.93441154032E+03  0.00000000000E+00 0. -1.
         23    2    1    2    0    0  0.11579190650E+03  0.49100145906E+03 -0.52341505886E+03  0.73292369409E+03  0.93400316428E+02 0.  0.
        254    2    1    2    0    0 -0.11579190650E+03 -0.49100145906E+03  0.64390927332E+03  0.12563936010E+04  0.95363280668E+03 0.  0.
         23    2    4    4    0    0  0.40541467298E+03 -0.20453433534E+03  0.37677422321E+03  0.59712066815E+03  0.91645652646E+02 0.  0.
         23    2    4    4    0    0 -0.52120657948E+03 -0.28646712372E+03  0.26713505011E+03  0.65927293286E+03  0.97775014893E+02 0.  0.
          4    1    3    3  502    0  0.90089808637E+02  0.45082076214E+03 -0.43738586239E+03  0.63455647961E+03  0.00000000000E+00 0. -1.
         -4    1    3    3    0  502  0.25702097858E+02  0.40180696923E+02 -0.86029196476E+02  0.98367214486E+02  0.00000000000E+00 0.  1.
         13    1    5    5    0    0  0.38337745442E+03 -0.19994800955E+03  0.32577523961E+03  0.54137508792E+03  0.00000000000E+00 0. -1.
        -13    1    5    5    0    0  0.22037218563E+02 -0.45863257884E+01  0.50998983598E+02  0.55745580221E+02  0.00000000000E+00 0.  1.
          3    1    6    6  503    0 -0.14384790565E+03 -0.53794045445E+02  0.11006824477E+03  0.18894718255E+03  0.00000000000E+00 0. -1.
         -3    1    6    6    0  503 -0.37735867383E+03 -0.23267307828E+03  0.15706680534E+03  0.47032575031E+03  0.00000000000E+00 0.  1.
<mgrwt>
<rscale>  0 0.19856647E+04</rscale>
<asrwt>0</asrwt>
<pdfrwt beam="1">  1        1 0.14375562E+00 0.19856647E+04</pdfrwt>
<pdfrwt beam="2">  1       -1 0.16229319E+00 0.19856647E+04</pdfrwt>
<totfact> 0.44496139E+00</totfact>
</mgrwt>
</event>
<event>
12    3  0.4688899E-008  0.2241947E+04  0.7818608E-02  0.8501169E-01
          2   -1    0    0  501    0  0.00000000000E+00  0.00000000000E+00  0.18460860091E+04  0.18460860091E+04  0.00000000000E+00 0. -1.
         -2   -1    0    0    0  501 -0.00000000000E+00 -0.00000000000E+00 -0.68067361377E+03  0.68067361377E+03  0.00000000000E+00 0.  1.
         23    2    1    2    0    0  0.22248008033E+03  0.99363930845E+02 -0.51529910118E+03  0.57696900762E+03  0.89383976088E+02 0.  0.
        254    2    1    2    0    0 -0.22248008033E+03 -0.99363930845E+02  0.16807114965E+04  0.19497906152E+04  0.95787354692E+03 0.  0.
         23    2    4    4    0    0  0.22462575709E+03 -0.51200801688E+02  0.43526166809E+02  0.24958613628E+03  0.85559683183E+02 0.  0.
         23    2    4    4    0    0 -0.44710583742E+03 -0.48163129157E+02  0.16371853297E+04  0.17002044789E+04  0.89978606549E+02 0.  0.
          2    1    3    3  502    0  0.14385868971E+03  0.16484040565E+02 -0.30570109808E+03  0.33826056165E+03  0.00000000000E+00 0. -1.
         -2    1    3    3    0  502  0.78621390627E+02  0.82879890280E+02 -0.20959800310E+03  0.23870844597E+03  0.00000000000E+00 0.  1.
         13    1    5    5    0    0  0.17616161993E+02 -0.33669277161E+02  0.58577756259E+01  0.38448184914E+02  0.00000000000E+00 0.  1.
        -13    1    5    5    0    0  0.20700959510E+03 -0.17531524527E+02  0.37668391183E+02  0.21113795137E+03  0.00000000000E+00 0. -1.
          2    1    6    6  503    0 -0.36146307631E+03 -0.39901761296E+02  0.14372151101E+04  0.14825096893E+04  0.00000000000E+00 0. -1.
         -2    1    6    6    0  503 -0.85642761114E+02 -0.82613678613E+01  0.19997021953E+03  0.21769478962E+03  0.00000000000E+00 0.  1.
<mgrwt>
<rscale>  0 0.22419474E+04</rscale>
<asrwt>0</asrwt>
<pdfrwt beam="1">  1        2 0.28401323E+00 0.22419474E+04</pdfrwt>
<pdfrwt beam="2">  1       -2 0.10471902E+00 0.22419474E+04</pdfrwt>
<totfact> 0.54824754E+00</totfact>
</mgrwt>
</event>
<event>
12    3  0.4688899E-008  0.1819064E+04  0.7818608E-02  0.8696227E-01
         -2   -1    0    0    0  501 -0.00000000000E+00  0.00000000000E+00  0.67871523664E+03  0.67871523664E+03  0.00000000000E+00 0.  1.
          2   -1    0    0  501    0  0.00000000000E+00 -0.00000000000E+00 -0.12188445819E+04  0.12188445819E+04  0.00000000000E+00 0. -1.
         23    2    1    2    0    0 -0.42634247032E+03 -0.43937606151E+03 -0.52523704056E+03  0.81207868908E+03  0.93694306482E+02 0.  0.
        254    2    1    2    0    0  0.42634247032E+03  0.43937606151E+03 -0.14892304680E+02  0.10854811294E+04  0.89623003531E+03 0.  0.
         23    2    4    4    0    0 -0.18591794602E+03 -0.41455873783E+02 -0.18779118381E+03  0.28295178368E+03  0.92261102575E+02 0.  0.
         23    2    4    4    0    0  0.61226041633E+03  0.48083193529E+03  0.17289887913E+03  0.80252934576E+03  0.89984226344E+02 0.  0.
          3    1    3    3  502    0 -0.37569238446E+03 -0.33639955677E+03 -0.41783579815E+03  0.65490165960E+03  0.00000000000E+00 0. -1.
         -3    1    3    3    0  502 -0.50650085862E+02 -0.10297650474E+03 -0.10740124241E+03  0.15717702949E+03  0.00000000000E+00 0.  1.
         13    1    5    5    0    0 -0.63167557008E+01  0.14524958574E+02  0.17074926224E+01  0.15930830337E+02  0.00000000000E+00 0. -1.
        -13    1    5    5    0    0 -0.17960119032E+03 -0.55980832357E+02 -0.18949867643E+03  0.26702095334E+03  0.00000000000E+00 0.  1.
          1    1    6    6  503    0  0.20306798288E+03  0.18391731422E+03  0.21673571333E+02  0.27483072578E+03  0.00000000000E+00 0. -1.
         -1    1    6    6    0  503  0.40919243346E+03  0.29691462107E+03  0.15122530780E+03  0.52769861997E+03  0.00000000000E+00 0.  1.
<mgrwt>
<rscale>  0 0.18190639E+04</rscale>
<asrwt>0</asrwt>
<pdfrwt beam="1">  1        2 0.18751455E+00 0.18190639E+04</pdfrwt>
<pdfrwt beam="2">  1       -2 0.10441773E+00 0.18190639E+04</pdfrwt>
<totfact> 0.12962970E+01</totfact>
</mgrwt>
</event>
<event>
12    3  0.4688899E-008  0.2232214E+04  0.7818608E-02  0.8505138E-01
          1   -1    0    0  501    0  0.00000000000E+00  0.00000000000E+00  0.17486761225E+04  0.17486761225E+04  0.00000000000E+00 0. -1.
         -1   -1    0    0    0  501 -0.00000000000E+00 -0.00000000000E+00 -0.71236429208E+03  0.71236429208E+03  0.00000000000E+00 0.  1.
         23    2    1    2    0    0 -0.22366327915E+03  0.31453777386E+03 -0.50172570223E+03  0.63949431401E+03  0.90912176071E+02 0.  0.
        254    2    1    2    0    0  0.22366327915E+03 -0.31453777386E+03  0.15380375326E+04  0.18215461005E+04  0.89638801364E+03 0.  0.
         23    2    4    4    0    0 -0.23566537312E+02 -0.54588884877E+03  0.58285809131E+03  0.80431102747E+03  0.92965893822E+02 0.  0.
         23    2    4    4    0    0  0.24722981646E+03  0.23135107491E+03  0.95517944131E+03  0.10172350731E+04  0.88054112640E+02 0.  0.
          3    1    3    3  502    0 -0.19013723379E+02  0.49168279023E+01 -0.66210646438E+01  0.20725235110E+02  0.00000000000E+00 0. -1.
         -3    1    3    3    0  502 -0.20464955577E+03  0.30962094595E+03 -0.49510463758E+03  0.61876907890E+03  0.00000000000E+00 0.  1.
         13    1    5    5    0    0  0.12569115824E+02 -0.75468930754E+01  0.13992177200E+02  0.20266210560E+02  0.00000000000E+00 0.  1.
        -13    1    5    5    0    0 -0.36135653135E+02 -0.53834195569E+03  0.56886591411E+03  0.78404481691E+03  0.00000000000E+00 0. -1.
          3    1    6    6  503    0  0.23147707342E+03  0.23792286688E+03  0.92175548452E+03  0.97970510836E+03  0.00000000000E+00 0. -1.
         -3    1    6    6    0  503  0.15752743036E+02 -0.65717919682E+01  0.33423956788E+02  0.37529964698E+02  0.00000000000E+00 0.  1.
<mgrwt>
<rscale>  0 0.22322136E+04</rscale>
<asrwt>0</asrwt>
<pdfrwt beam="1">  1        1 0.26902709E+00 0.22322136E+04</pdfrwt>
<pdfrwt beam="2">  1       -1 0.10959451E+00 0.22322136E+04</pdfrwt>
<totfact> 0.30901389E+00</totfact>
</mgrwt>
</event>
<event>
12    3  0.4688899E-008  0.1611233E+04  0.7818608E-02  0.8813677E-01
          1   -1    0    0  501    0  0.00000000000E+00  0.00000000000E+00  0.31088564426E+03  0.31088564426E+03  0.00000000000E+00 0. -1.
         -1   -1    0    0    0  501 -0.00000000000E+00 -0.00000000000E+00 -0.20876415041E+04  0.20876415041E+04  0.00000000000E+00 0.  1.
         23    2    1    2    0    0  0.13082470008E+03  0.24744009456E+02  0.15196346600E+03  0.22626541350E+03  0.10186154423E+03 0.  0.
        254    2    1    2    0    0 -0.13082470008E+03 -0.24744009456E+02 -0.19287193258E+04  0.21722617348E+04  0.99047233113E+03 0.  0.
         23    2    4    4    0    0 -0.42910578457E+03  0.21671400709E+03 -0.54035320309E+03  0.72900187897E+03  0.91462671249E+02 0.  0.
         23    2    4    4    0    0  0.29828108449E+03 -0.24145801655E+03 -0.13883661227E+04  0.14432598559E+04  0.90360067085E+02 0.  0.
          1    1    3    3  502    0  0.11553460052E+03  0.54520026535E+02  0.14270895916E+03  0.19153726592E+03  0.00000000000E+00 0. -1.
         -1    1    3    3    0  502  0.15290099554E+02 -0.29776017079E+02  0.92545068353E+01  0.34728147578E+02  0.00000000000E+00 0.  1.
         13    1    5    5    0    0 -0.18126271087E+03  0.58473798669E+02 -0.26351010634E+03  0.32513525128E+03  0.00000000000E+00 0.  1.
        -13    1    5    5    0    0 -0.24784307370E+03  0.15824020842E+03 -0.27684309675E+03  0.40386662769E+03  0.00000000000E+00 0. -1.
          4    1    6    6  503    0  0.16275162087E+03 -0.17981835062E+03 -0.94179209781E+03  0.97251996628E+03  0.00000000000E+00 0. -1.
         -4    1    6    6    0  503  0.13552946362E+03 -0.61639665930E+02 -0.44657402492E+03  0.47073988960E+03  0.00000000000E+00 0.  1.
<mgrwt>
<rscale>  0 0.16112328E+04</rscale>
<asrwt>0</asrwt>
<pdfrwt beam="1">  1        1 0.47828559E-01 0.16112328E+04</pdfrwt>
<pdfrwt beam="2">  1       -1 0.32117562E+00 0.16112328E+04</pdfrwt>
<totfact> 0.19343589E+00</totfact>
</mgrwt>
</event>
<event>
12    3  0.4688899E-008  0.2402283E+04  0.7818608E-02  0.8438649E-01
          2   -1    0    0  501    0  0.00000000000E+00  0.00000000000E+00  0.10650890703E+04  0.10650890703E+04  0.00000000000E+00 0. -1.
         -2   -1    0    0    0  501 -0.00000000000E+00 -0.00000000000E+00 -0.13545728178E+04  0.13545728178E+04  0.00000000000E+00 0.  1.
         23    2    1    2    0    0 -0.26154283110E+03 -0.59772918435E+03 -0.92744942383E+03  0.11377850153E+04  0.93313862500E+02 0.  0.
        254    2    1    2    0    0  0.26154283110E+03  0.59772918435E+03  0.63796567640E+03  0.12818768728E+04  0.90029066554E+03 0.  0.
         23    2    4    4    0    0 -0.12387737928E+03  0.94663871506E+02  0.61549984673E+03  0.64127735326E+03  0.89942919750E+02 0.  0.
         23    2    4    4    0    0  0.38542021037E+03  0.50306531285E+03  0.22465829674E+02  0.64059951955E+03  0.90772150983E+02 0.  0.
          3    1    3    3  502    0 -0.23733273987E+03 -0.45168570483E+03 -0.74175444845E+03  0.90030354168E+03  0.00000000000E+00 0. -1.
         -3    1    3    3    0  502 -0.24210091224E+02 -0.14604347952E+03 -0.18569497538E+03  0.23748147361E+03  0.00000000000E+00 0.  1.
         13    1    5    5    0    0 -0.65388004796E+01  0.47348449537E+02  0.24921993997E+03  0.25376211314E+03  0.00000000000E+00 0. -1.
        -13    1    5    5    0    0 -0.11733857880E+03  0.47315421969E+02  0.36627990676E+03  0.38751524012E+03  0.00000000000E+00 0.  1.
          4    1    6    6  503    0  0.67173301113E+02  0.13098845429E+03  0.33042295653E+02  0.15087087473E+03  0.00000000000E+00 0. -1.
         -4    1    6    6    0  503  0.31824690926E+03  0.37207685856E+03 -0.10576465979E+02  0.48972864482E+03  0.00000000000E+00 0.  1.
<mgrwt>
<rscale>  0 0.24022828E+04</rscale>
<asrwt>0</asrwt>
<pdfrwt beam="1">  1        2 0.16385986E+00 0.24022828E+04</pdfrwt>
<pdfrwt beam="2">  1       -2 0.20839582E+00 0.24022828E+04</pdfrwt>
<totfact> 0.24143409E+00</totfact>
</mgrwt>
</event>
<event>
12    3  0.4688899E-008  0.1479045E+04  0.7818608E-02  0.8898508E-01
          1   -1    0    0  501    0  0.00000000000E+00  0.00000000000E+00  0.63540156094E+03  0.63540156094E+03  0.00000000000E+00 0. -1.
         -1   -1    0    0    0  501 -0.00000000000E+00 -0.00000000000E+00 -0.86070582724E+03  0.86070582724E+03  0.00000000000E+00 0.  1.
         23    2    1    2    0    0 -0.93470629832E+02  0.36776981859E+03 -0.35796295012E+03  0.52942648837E+03  0.90352281796E+02 0.  0.
        254    2    1    2    0    0  0.93470629832E+02 -0.36776981859E+03  0.13265868382E+03  0.96668089981E+03  0.87913721202E+03 0.  0.
         23    2    4    4    0    0 -0.29445376608E+03 -0.65274301276E+02  0.30459509989E+03  0.43839055430E+03  0.91893136064E+02 0.  0.
         23    2    4    4    0    0  0.38792439591E+03 -0.30249551731E+03 -0.17193641608E+03  0.52829034551E+03  0.86831348312E+02 0.  0.
          1    1    3    3  502    0 -0.68347148870E+02  0.12288237396E+03 -0.16396509189E+03  0.21599991192E+03  0.00000000000E+00 0. -1.
         -1    1    3    3    0  502 -0.25123480962E+02  0.24488744462E+03 -0.19399785823E+03  0.31342657645E+03  0.00000000000E+00 0.  1.
         13    1    5    5    0    0 -0.15913929640E+03  0.76854955725E+01  0.18102950400E+03  0.24115568378E+03  0.00000000000E+00 0.  1.
        -13    1    5    5    0    0 -0.13531446968E+03 -0.72959796849E+02  0.12356559589E+03  0.19723487052E+03  0.00000000000E+00 0. -1.
          4    1    6    6  503    0  0.59179846782E+02 -0.34432198624E+02  0.50754061637E+01  0.68655592015E+02  0.00000000000E+00 0. -1.
         -4    1    6    6    0  503  0.32874454913E+03 -0.26806331869E+03 -0.17701182224E+03  0.45963475349E+03  0.00000000000E+00 0.  1.
<mgrwt>
<rscale>  0 0.14790454E+04</rscale>
<asrwt>0</asrwt>
<pdfrwt beam="1">  1        1 0.97754087E-01 0.14790454E+04</pdfrwt>
<pdfrwt beam="2">  1       -1 0.13241628E+00 0.14790454E+04</pdfrwt>
<totfact> 0.14774628E+01</totfact>
</mgrwt>
</event>
<event>
12    3  0.4688899E-008  0.1494106E+04  0.7818608E-02  0.8888382E-01
         -2   -1    0    0    0  501 -0.00000000000E+00  0.00000000000E+00  0.56856554414E+03  0.56856554414E+03  0.00000000000E+00 0.  1.
          2   -1    0    0  501    0  0.00000000000E+00 -0.00000000000E+00 -0.98157261436E+03  0.98157261436E+03  0.00000000000E+00 0. -1.
         23    2    1    2    0    0  0.36559305604E+03 -0.28375549914E+03 -0.45400683015E+02  0.47396334975E+03  0.91676436293E+02 0.  0.
        254    2    1    2    0    0 -0.36559305604E+03  0.28375549914E+03 -0.36760638721E+03  0.10761748088E+04  0.89935660178E+03 0.  0.
         23    2    4    4    0    0 -0.64614711569E+02 -0.10712606101E+03  0.24136246677E+03  0.28706943880E+03  0.92206119278E+02 0.  0.
         23    2    4    4    0    0 -0.30097834447E+03  0.39088156014E+03 -0.60896885398E+03  0.78910536995E+03  0.92020986022E+02 0.  0.
          4    1    3    3  502    0  0.16646715706E+02 -0.47492447120E+02 -0.70113684852E+01  0.50811464900E+02  0.00000000000E+00 0. -1.
         -4    1    3    3    0  502  0.34894634034E+03 -0.23626305202E+03 -0.38389314529E+02  0.42315188485E+03  0.00000000000E+00 0.  1.
         13    1    5    5    0    0 -0.41883728805E+02 -0.14111341934E+02  0.25748596084E+02  0.51150434114E+02  0.00000000000E+00 0.  1.
        -13    1    5    5    0    0 -0.22730982764E+02 -0.93014719072E+02  0.21561387069E+03  0.23591900469E+03  0.00000000000E+00 0. -1.
          4    1    6    6  503    0 -0.24504000580E+03  0.30642145321E+03 -0.42037316326E+03  0.57502374544E+03  0.00000000000E+00 0. -1.
         -4    1    6    6    0  503 -0.55938338676E+02  0.84460106937E+02 -0.18859569072E+03  0.21408162451E+03  0.00000000000E+00 0.  1.
<mgrwt>
<rscale>  0 0.14941062E+04</rscale>
<asrwt>0</asrwt>
<pdfrwt beam="1">  1        2 0.15101117E+00 0.14941062E+04</pdfrwt>
<pdfrwt beam="2">  1       -2 0.87471623E-01 0.14941062E+04</pdfrwt>
<totfact> 0.28246382E+01</totfact>
</mgrwt>
</event>
<event>
12    3  0.4688899E-008  0.1946125E+04  0.7818608E-02  0.8632232E-01
         -2   -1    0    0    0  501 -0.00000000000E+00  0.00000000000E+00  0.40980796451E+03  0.40980796451E+03  0.00000000000E+00 0.  1.
          2   -1    0    0  501    0  0.00000000000E+00 -0.00000000000E+00 -0.23104733272E+04  0.23104733272E+04  0.00000000000E+00 0. -1.
         23    2    1    2    0    0 -0.71732356370E+02  0.64108644257E+03 -0.18502974967E+03  0.67723561641E+03  0.90965455418E+02 0.  0.
        254    2    1    2    0    0  0.71732356370E+02 -0.64108644257E+03 -0.17156356130E+04  0.20430456753E+04  0.90249250242E+03 0.  0.
         23    2    4    4    0    0  0.55046776811E+02  0.21896013876E+03 -0.41425468202E+03  0.48040831337E+03  0.90617415409E+02 0.  0.
         23    2    4    4    0    0  0.16685579558E+02 -0.86004658133E+03 -0.13013809310E+04  0.15626373619E+04  0.91020144649E+02 0.  0.
          2    1    3    3  502    0 -0.36402861505E+02  0.78241661190E+02 -0.10718361255E+02  0.86958663395E+02  0.00000000000E+00 0. -1.
         -2    1    3    3    0  502 -0.35329494865E+02  0.56284478138E+03 -0.17431138842E+03  0.59027695302E+03  0.00000000000E+00 0.  1.
         13    1    5    5    0    0  0.12260453892E+02  0.40664807139E+02 -0.22954275454E+02  0.48278815549E+02  0.00000000000E+00 0.  1.
        -13    1    5    5    0    0  0.42786322920E+02  0.17829533162E+03 -0.39130040657E+03  0.43212949782E+03  0.00000000000E+00 0. -1.
          4    1    6    6  503    0  0.14255845116E+02 -0.40568614557E+03 -0.53318716872E+03  0.67012911794E+03  0.00000000000E+00 0. -1.
         -4    1    6    6    0  503  0.24297344424E+01 -0.45436043576E+03 -0.76819376229E+03  0.89250824400E+03  0.00000000000E+00 0.  1.
<mgrwt>
<rscale>  0 0.19461247E+04</rscale>
<asrwt>0</asrwt>
<pdfrwt beam="1">  1        2 0.35545743E+00 0.19461247E+04</pdfrwt>
<pdfrwt beam="2">  1       -2 0.63047380E-01 0.19461247E+04</pdfrwt>
<totfact> 0.97284004E+00</totfact>
</mgrwt>
</event>
<event>
12    3  0.4688899E-008  0.1206477E+04  0.7818608E-02  0.9107206E-01
         -2   -1    0    0    0  501 -0.00000000000E+00  0.00000000000E+00  0.31062404882E+03  0.31062404882E+03  0.00000000000E+00 0.  1.
          2   -1    0    0  501    0  0.00000000000E+00 -0.00000000000E+00 -0.11715015213E+04  0.11715015213E+04  0.00000000000E+00 0. -1.
         23    2    1    2    0    0 -0.12581819912E+03 -0.18274748718E+03 -0.49382096710E+02  0.24512066581E+03  0.91753397915E+02 0.  0.
        254    2    1    2    0    0  0.12581819912E+03  0.18274748718E+03 -0.81149537572E+03  0.12370049043E+04  0.90687900243E+03 0.  0.
         23    2    4    4    0    0  0.41498513461E+03 -0.15790412239E+03 -0.54238749374E+03  0.70679295420E+03  0.90695716180E+02 0.  0.
         23    2    4    4    0    0 -0.28916693549E+03  0.34065160957E+03 -0.26910788199E+03  0.53021195006E+03  0.95103228952E+02 0.  0.
          1    1    3    3  502    0 -0.10021146145E+03 -0.10770068597E+03 -0.70397859086E+02  0.16308780864E+03  0.00000000000E+00 0.  1.
         -1    1    3    3    0  502 -0.25606737674E+02 -0.75046801212E+02  0.21015762376E+02  0.82032857165E+02  0.00000000000E+00 0. -1.
         13    1    5    5    0    0  0.23000753688E+02 -0.35920919896E+02 -0.50918101321E+02  0.66422889116E+02  0.00000000000E+00 0.  1.
        -13    1    5    5    0    0  0.39198438092E+03 -0.12198320249E+03 -0.49146939242E+03  0.64037006509E+03  0.00000000000E+00 0. -1.
          4    1    6    6  503    0 -0.35829050223E+02  0.45943762105E+02 -0.77379820486E+02  0.96861688684E+02  0.00000000000E+00 0.  1.
         -4    1    6    6    0  503 -0.25333788527E+03  0.29470784747E+03 -0.19172806150E+03  0.43335026138E+03  0.00000000000E+00 0. -1.
<mgrwt>
<rscale>  0 0.12064768E+04</rscale>
<asrwt>0</asrwt>
<pdfrwt beam="1">  1        2 0.18023100E+00 0.12064768E+04</pdfrwt>
<pdfrwt beam="2">  1       -2 0.47788315E-01 0.12064768E+04</pdfrwt>
<totfact> 0.80602857E+01</totfact>
</mgrwt>
</event>
<event>
12    3  0.4688899E-008  0.1448931E+04  0.7818608E-02  0.8919142E-01
         -2   -1    0    0    0  501 -0.00000000000E+00  0.00000000000E+00  0.58529687978E+03  0.58529687978E+03  0.00000000000E+00 0.  1.
          2   -1    0    0  501    0  0.00000000000E+00 -0.00000000000E+00 -0.89672455737E+03  0.89672455737E+03  0.00000000000E+00 0. -1.
         23    2    1    2    0    0 -0.36121247987E+02 -0.36443392392E+03 -0.35508012789E+03  0.51801837290E+03  0.90245819719E+02 0.  0.
        254    2    1    2    0    0  0.36121247987E+02  0.36443392392E+03  0.43652450309E+02  0.96400306424E+03  0.89066241753E+03 0.  0.
         23    2    4    4    0    0  0.21551083239E+03  0.27100381182E+03 -0.35764154661E+03  0.50588674830E+03  0.90144003393E+02 0.  0.
         23    2    4    4    0    0 -0.17938958440E+03  0.93430112102E+02  0.40129399691E+03  0.45811631595E+03  0.89016167840E+02 0.  0.
          1    1    3    3  502    0 -0.40212814467E+02 -0.11219844418E+03 -0.73802313969E+02  0.14018681418E+03  0.00000000000E+00 0. -1.
         -1    1    3    3    0  502  0.40915664801E+01 -0.25223547975E+03 -0.28127781393E+03  0.37783155872E+03  0.00000000000E+00 0.  1.
         13    1    5    5    0    0  0.17292972109E+03  0.19946961908E+03 -0.31910720548E+03  0.41415241875E+03  0.00000000000E+00 0.  1.
        -13    1    5    5    0    0  0.42581111299E+02  0.71534192745E+02 -0.38534341126E+02  0.91734329545E+02  0.00000000000E+00 0. -1.
          4    1    6    6  503    0 -0.17530826545E+03  0.10264258253E+03  0.34052036216E+03  0.39651305746E+03  0.00000000000E+00 0.  1.
         -4    1    6    6    0  503 -0.40813189471E+01 -0.92124704275E+01  0.60773634751E+02  0.61603258490E+02  0.00000000000E+00 0. -1.
<mgrwt>
<rscale>  0 0.14489308E+04</rscale>
<asrwt>0</asrwt>
<pdfrwt beam="1">  1        2 0.13795762E+00 0.14489308E+04</pdfrwt>
<pdfrwt beam="2">  1       -2 0.90045673E-01 0.14489308E+04</pdfrwt>
<totfact> 0.30180544E+01</totfact>
</mgrwt>
</event>
<event>
12    3  0.4688899E-008  0.1245531E+04  0.7818608E-02  0.9073911E-01
          2   -1    0    0  501    0  0.00000000000E+00  0.00000000000E+00  0.10110697176E+04  0.10110697176E+04  0.00000000000E+00 0.  1.
         -2   -1    0    0    0  501 -0.00000000000E+00 -0.00000000000E+00 -0.38359065251E+03  0.38359065251E+03  0.00000000000E+00 0. -1.
         23    2    1    2    0    0  0.98132156623E+02 -0.24805954560E+02 -0.14951015307E+03  0.20258735357E+03  0.91886312415E+02 0.  0.
        254    2    1    2    0    0 -0.98132156623E+02  0.24805954560E+02  0.77698921819E+03  0.11920730166E+04  0.89837663376E+03 0.  0.
         23    2    4    4    0    0  0.99044847901E+02 -0.14860426606E+03  0.87480007043E+03  0.89742084109E+03  0.90531171480E+02 0.  0.
         23    2    4    4    0    0 -0.19717700452E+03  0.17341022062E+03 -0.97810852241E+02  0.29465217547E+03  0.91121160902E+02 0.  0.
          2    1    3    3  502    0  0.51495912543E+02  0.23386754905E+02 -0.26443250252E+02  0.62434083621E+02  0.00000000000E+00 0.  1.
         -2    1    3    3    0  502  0.46636244080E+02 -0.48192709465E+02 -0.12306690282E+03  0.14015326995E+03  0.00000000000E+00 0. -1.
         13    1    5    5    0    0 -0.74628029669E+01 -0.41994319591E+02  0.30760281722E+03  0.31054582507E+03  0.00000000000E+00 0. -1.
        -13    1    5    5    0    0  0.10650765087E+03 -0.10660994647E+03  0.56719725321E+03  0.58687501602E+03  0.00000000000E+00 0.  1.
          1    1    6    6  503    0 -0.47339567775E+02  0.11385894213E+01 -0.30510062334E+01  0.47451445731E+02  0.00000000000E+00 0. -1.
         -1    1    6    6    0  503 -0.14983743675E+03  0.17227163120E+03 -0.94759846008E+02  0.24720072974E+03  0.00000000000E+00 0.  1.
<mgrwt>
<rscale>  0 0.12455310E+04</rscale>
<asrwt>0</asrwt>
<pdfrwt beam="1">  1        2 0.15554919E+00 0.12455310E+04</pdfrwt>
<pdfrwt beam="2">  1       -2 0.59013947E-01 0.12455310E+04</pdfrwt>
<totfact> 0.65394221E+01</totfact>
</mgrwt>
</event>
<event>
12    3  0.4688899E-008  0.1764190E+04  0.7818608E-02  0.8725578E-01
         -1   -1    0    0    0  501 -0.00000000000E+00  0.00000000000E+00  0.37509476537E+04  0.37509476537E+04  0.00000000000E+00 0.  1.
          1   -1    0    0  501    0  0.00000000000E+00 -0.00000000000E+00 -0.20743868454E+03  0.20743868454E+03  0.00000000000E+00 0. -1.
         23    2    1    2    0    0 -0.56440268833E+03  0.28956696889E+03  0.16520803555E+04  0.17723218597E+04  0.96725638949E+02 0.  0.
        254    2    1    2    0    0  0.56440268833E+03 -0.28956696889E+03  0.18914286137E+04  0.21860644786E+04  0.89385473083E+03 0.  0.
         23    2    4    4    0    0 -0.29593529416E+02  0.11537232917E+03 -0.10894156098E+02  0.15033912924E+03  0.91085782769E+02 0.  0.
         23    2    4    4    0    0  0.59399621775E+03 -0.40493929806E+03  0.19023227698E+04  0.20357253494E+04  0.92403656401E+02 0.  0.
          3    1    3    3  502    0 -0.54460231683E+03  0.25717086731E+03  0.15225457039E+04  0.16373374604E+04  0.00000000000E+00 0. -1.
         -3    1    3    3    0  502 -0.19800371505E+02  0.32396101581E+02  0.12953465155E+03  0.13498439932E+03  0.00000000000E+00 0.  1.
         13    1    5    5    0    0 -0.21371542354E+02 -0.98763532968E+01  0.42054162818E+01  0.23915908997E+02  0.00000000000E+00 0.  1.
        -13    1    5    5    0    0 -0.82219870618E+01  0.12524868247E+03 -0.15099572380E+02  0.12642322025E+03  0.00000000000E+00 0. -1.
          4    1    6    6  503    0  0.43355806362E+03 -0.31576794537E+03  0.13078725354E+04  0.14135814652E+04  0.00000000000E+00 0. -1.
         -4    1    6    6    0  503  0.16043815413E+03 -0.89171352688E+02  0.59445023443E+03  0.62214388421E+03  0.00000000000E+00 0.  1.
<mgrwt>
<rscale>  0 0.17641901E+04</rscale>
<asrwt>0</asrwt>
<pdfrwt beam="1">  1        1 0.31913646E-01 0.17641901E+04</pdfrwt>
<pdfrwt beam="2">  1       -1 0.57706882E+00 0.17641901E+04</pdfrwt>
<totfact> 0.72606712E-02</totfact>
</mgrwt>
</event>
<event>
12    3  0.4688899E-008  0.1939979E+04  0.7818608E-02  0.8635208E-01
          2   -1    0    0  501    0  0.00000000000E+00  0.00000000000E+00  0.50574648907E+03  0.50574648907E+03  0.00000000000E+00 0. -1.
         -2   -1    0    0    0  501 -0.00000000000E+00 -0.00000000000E+00 -0.18603772972E+04  0.18603772972E+04  0.00000000000E+00 0.  1.
         23    2    1    2    0    0  0.34907293612E+03  0.29197672372E+03  0.19949590873E+03  0.50539753148E+03  0.92334854172E+02 0.  0.
        254    2    1    2    0    0 -0.34907293612E+03 -0.29197672372E+03 -0.15541267168E+04  0.18607262548E+04  0.91645513871E+03 0.  0.
         23    2    4    4    0    0 -0.47174292064E+03  0.18975823783E+03 -0.75365332828E+03  0.91394323827E+03  0.93537861563E+02 0.  0.
         23    2    4    4    0    0  0.12266998451E+03 -0.48173496155E+03 -0.80047338853E+03  0.94678301648E+03  0.92325165989E+02 0.  0.
          3    1    3    3  502    0  0.29086942325E+03  0.26546989252E+03  0.19947954904E+03  0.44144238095E+03  0.00000000000E+00 0. -1.
         -3    1    3    3    0  502  0.58203512875E+02  0.26506831202E+02  0.16359693074E-01  0.63955150527E+02  0.00000000000E+00 0.  1.
         13    1    5    5    0    0 -0.32727609709E+03  0.86135797258E+02 -0.51789468797E+03  0.61866301580E+03  0.00000000000E+00 0.  1.
        -13    1    5    5    0    0 -0.14446682355E+03  0.10362244057E+03 -0.23575864032E+03  0.29528022247E+03  0.00000000000E+00 0. -1.
          4    1    6    6  503    0  0.64467663464E+01 -0.22430130296E+02 -0.88893021712E+02  0.91905608373E+02  0.00000000000E+00 0. -1.
         -4    1    6    6    0  503  0.11622321817E+03 -0.45930483125E+03 -0.71158036682E+03  0.85487740811E+03  0.00000000000E+00 0.  1.
<mgrwt>
<rscale>  0 0.19399786E+04</rscale>
<asrwt>0</asrwt>
<pdfrwt beam="1">  1        2 0.77807152E-01 0.19399786E+04</pdfrwt>
<pdfrwt beam="2">  1       -2 0.28621189E+00 0.19399786E+04</pdfrwt>
<totfact> 0.21909518E+00</totfact>
</mgrwt>
</event>
<event>
12    3  0.4688899E-008  0.1017488E+04  0.7818608E-02  0.9289569E-01
          1   -1    0    0  501    0  0.00000000000E+00  0.00000000000E+00  0.31154885715E+03  0.31154885715E+03  0.00000000000E+00 0. -1.
         -1   -1    0    0    0  501 -0.00000000000E+00 -0.00000000000E+00 -0.83075458673E+03  0.83075458673E+03  0.00000000000E+00 0.  1.
         23    2    1    2    0    0 -0.56990952425E+01  0.56906728315E+02 -0.34714596271E+02  0.10593338321E+03  0.82133568470E+02 0.  0.
        254    2    1    2    0    0  0.56990952425E+01 -0.56906728315E+02 -0.48449113331E+03  0.10363700607E+04  0.91436337908E+03 0.  0.
         23    2    4    4    0    0 -0.43806105181E+03  0.46716150356E+02 -0.26900726512E+03  0.52491668164E+03  0.95355808230E+02 0.  0.
         23    2    4    4    0    0  0.44376014705E+03 -0.10362287867E+03 -0.21548386819E+03  0.51145337903E+03  0.86547630713E+02 0.  0.
          2    1    3    3  502    0  0.14648875423E+01  0.60245184397E+02  0.95094078089E+01  0.61008663118E+02  0.00000000000E+00 0. -1.
         -2    1    3    3    0  502 -0.71639827849E+01 -0.33384560822E+01 -0.44224004080E+02  0.44924720090E+02  0.00000000000E+00 0.  1.
         13    1    5    5    0    0 -0.41621505016E+03  0.62322673591E+02 -0.26607141799E+03  0.49790870960E+03  0.00000000000E+00 0. -1.
        -13    1    5    5    0    0 -0.21846001646E+02 -0.15606523235E+02 -0.29358471292E+01  0.27007972041E+02  0.00000000000E+00 0.  1.
          2    1    6    6  503    0  0.39291788108E+03 -0.86867874037E+02 -0.21838012640E+03  0.45784317011E+03  0.00000000000E+00 0. -1.
         -2    1    6    6    0  503  0.50842265966E+02 -0.16755004634E+02  0.28962582081E+01  0.53610208920E+02  0.00000000000E+00 0.  1.
<mgrwt>
<rscale>  0 0.10174884E+04</rscale>
<asrwt>0</asrwt>
<pdfrwt beam="1">  1        1 0.47930594E-01 0.10174884E+04</pdfrwt>
<pdfrwt beam="2">  1       -1 0.12780840E+00 0.10174884E+04</pdfrwt>
<totfact> 0.44258798E+01</totfact>
</mgrwt>
</event>
<event>
12    3  0.4688899E-008  0.1434996E+04  0.7818608E-02  0.8928869E-01
         -1   -1    0    0    0  501 -0.00000000000E+00  0.00000000000E+00  0.37540309786E+03  0.37540309786E+03  0.00000000000E+00 0.  1.
          1   -1    0    0  501    0  0.00000000000E+00 -0.00000000000E+00 -0.13713342106E+04  0.13713342106E+04  0.00000000000E+00 0. -1.
         23    2    1    2    0    0 -0.16459088863E+03 -0.38662681747E+03 -0.45265880937E+03  0.62425870238E+03  0.90710932025E+02 0.  0.
        254    2    1    2    0    0  0.16459088863E+03  0.38662681747E+03 -0.54327230334E+03  0.11224786061E+04  0.88783048430E+03 0.  0.
         23    2    4    4    0    0 -0.87819479148E+02  0.36189996845E+03  0.12428682184E+03  0.40304700410E+03  0.91191147326E+02 0.  0.
         23    2    4    4    0    0  0.25241036778E+03  0.24726849023E+02 -0.66755912518E+03  0.71943160195E+03  0.87316856613E+02 0.  0.
          3    1    3    3  502    0 -0.12602250092E+03 -0.24357486609E+03 -0.23614355484E+03  0.36190352944E+03  0.00000000000E+00 0. -1.
         -3    1    3    3    0  502 -0.38568387711E+02 -0.14305195139E+03 -0.21651525453E+03  0.26235517295E+03  0.00000000000E+00 0.  1.
         13    1    5    5    0    0  0.68248111161E+01  0.16100210581E+03  0.46121867166E+02  0.16761707178E+03  0.00000000000E+00 0.  1.
        -13    1    5    5    0    0 -0.94644290265E+02  0.20089786264E+03  0.78164954673E+02  0.23542993232E+03  0.00000000000E+00 0. -1.
          3    1    6    6  503    0  0.98683866167E+02 -0.24538956486E+01 -0.37561267237E+03  0.38836761797E+03  0.00000000000E+00 0. -1.
         -3    1    6    6    0  503  0.15372650161E+03  0.27180744672E+02 -0.29194645282E+03  0.33106398398E+03  0.00000000000E+00 0.  1.
<mgrwt>
<rscale>  0 0.14349956E+04</rscale>
<asrwt>0</asrwt>
<pdfrwt beam="1">  1        1 0.21097450E+00 0.14349956E+04</pdfrwt>
<pdfrwt beam="2">  1       -1 0.57754322E-01 0.14349956E+04</pdfrwt>
<totfact> 0.23765763E+01</totfact>
</mgrwt>
</event>
<event>
12    3  0.4688899E-008  0.1561780E+04  0.7818608E-02  0.8844378E-01
         -1   -1    0    0    0  501 -0.00000000000E+00  0.00000000000E+00  0.39766167556E+03  0.39766167556E+03  0.00000000000E+00 0.  1.
          1   -1    0    0  501    0  0.00000000000E+00 -0.00000000000E+00 -0.15334369733E+04  0.15334369733E+04  0.00000000000E+00 0. -1.
         23    2    1    2    0    0  0.46972274306E+03  0.70594777027E+02 -0.63895397870E+03  0.80137282242E+03  0.91176398968E+02 0.  0.
        254    2    1    2    0    0 -0.46972274306E+03 -0.70594777027E+02 -0.49682131906E+03  0.11297258265E+04  0.89656340657E+03 0.  0.
         23    2    4    4    0    0  0.36408062948E+02  0.34197741729E+03 -0.17576618455E+03  0.39638985301E+03  0.89202370827E+02 0.  0.
         23    2    4    4    0    0 -0.50613080601E+03 -0.41257219431E+03 -0.32105513451E+03  0.73333597344E+03  0.91219746981E+02 0.  0.
          4    1    3    3  502    0  0.36695117867E+03  0.74766442527E+02 -0.44312277394E+03  0.58017323382E+03  0.00000000000E+00 0. -1.
         -4    1    3    3    0  502  0.10277156438E+03 -0.41716655002E+01 -0.19583120476E+03  0.22119958860E+03  0.00000000000E+00 0.  1.
         13    1    5    5    0    0  0.62098312770E+02  0.29238095657E+03 -0.14000102205E+03  0.33006531231E+03  0.00000000000E+00 0.  1.
        -13    1    5    5    0    0 -0.25690249822E+02  0.49596460717E+02 -0.35765162502E+02  0.66324540709E+02  0.00000000000E+00 0. -1.
          2    1    6    6  503    0 -0.59180941974E+02 -0.17955175539E+02 -0.17447675286E+02  0.64258801689E+02  0.00000000000E+00 0. -1.
         -2    1    6    6    0  503 -0.44694986403E+03 -0.39461701877E+03 -0.30360745922E+03  0.66907717175E+03  0.00000000000E+00 0.  1.
<mgrwt>
<rscale>  0 0.15617799E+04</rscale>
<asrwt>0</asrwt>
<pdfrwt beam="1">  1        1 0.23591339E+00 0.15617799E+04</pdfrwt>
<pdfrwt beam="2">  1       -1 0.61178718E-01 0.15617799E+04</pdfrwt>
<totfact> 0.16175004E+01</totfact>
</mgrwt>
</event>
<event>
12    3  0.4688899E-008  0.1626778E+04  0.7818608E-02  0.8804264E-01
          2   -1    0    0  501    0  0.00000000000E+00  0.00000000000E+00  0.16344517381E+04  0.16344517381E+04  0.00000000000E+00 0. -1.
         -2   -1    0    0    0  501 -0.00000000000E+00 -0.00000000000E+00 -0.40478484738E+03  0.40478484738E+03  0.00000000000E+00 0.  1.
         23    2    1    2    0    0  0.20247110362E+03  0.89122749478E+02  0.10542033538E+04  0.10811031682E+04  0.92205947563E+02 0.  0.
        254    2    1    2    0    0 -0.20247110362E+03 -0.89122749478E+02  0.17546353687E+03  0.95813341728E+03  0.91558439275E+03 0.  0.
         23    2    4    4    0    0 -0.82432917261E+02  0.12577332118E+03  0.50624409219E+03  0.53608480998E+03  0.92139722396E+02 0.  0.
         23    2    4    4    0    0 -0.12003818636E+03 -0.21489607065E+03 -0.33078055532E+03  0.42204860730E+03  0.90109731876E+02 0.  0.
          2    1    3    3  502    0  0.18407000877E+03  0.87142812513E+02  0.10333252287E+04  0.10532030508E+04  0.00000000000E+00 0. -1.
         -2    1    3    3    0  502  0.18401094844E+02  0.19799369650E+01  0.20878125078E+02  0.27900117359E+02  0.00000000000E+00 0.  1.
         13    1    5    5    0    0 -0.15439636904E+01 -0.47033842094E+01  0.12493065550E+03  0.12502869403E+03  0.00000000000E+00 0.  1.
        -13    1    5    5    0    0 -0.80888953571E+02  0.13047670539E+03  0.38131343669E+03  0.41105611594E+03  0.00000000000E+00 0. -1.
          4    1    6    6  503    0 -0.33856871026E+02 -0.14090268864E+03 -0.15016762041E+03  0.20868677390E+03  0.00000000000E+00 0. -1.
         -4    1    6    6    0  503 -0.86181315331E+02 -0.73993382015E+02 -0.18061293492E+03  0.21336183340E+03  0.00000000000E+00 0.  1.
<mgrwt>
<rscale>  0 0.16267775E+04</rscale>
<asrwt>0</asrwt>
<pdfrwt beam="1">  1        2 0.25145411E+00 0.16267775E+04</pdfrwt>
<pdfrwt beam="2">  1       -2 0.62274593E-01 0.16267775E+04</pdfrwt>
<totfact> 0.24427167E+01</totfact>
</mgrwt>
</event>
<event>
12    3  0.4688899E-008  0.2281238E+04  0.7818608E-02  0.8485356E-01
          1   -1    0    0  501    0  0.00000000000E+00  0.00000000000E+00  0.10448299758E+04  0.10448299758E+04  0.00000000000E+00 0. -1.
         -1   -1    0    0    0  501 -0.00000000000E+00 -0.00000000000E+00 -0.12451902105E+04  0.12451902105E+04  0.00000000000E+00 0.  1.
         23    2    1    2    0    0  0.17542851870E+03  0.92757121752E+03  0.10525434100E+03  0.95422881623E+03  0.91162649555E+02 0.  0.
        254    2    1    2    0    0 -0.17542851870E+03 -0.92757121752E+03 -0.30561457570E+03  0.13357913700E+04  0.89430128405E+03 0.  0.
         23    2    4    4    0    0  0.13183681919E+03 -0.11066233802E+03  0.23476910677E+03  0.30522453774E+03  0.91751757471E+02 0.  0.
         23    2    4    4    0    0 -0.30726533789E+03 -0.81690887951E+03 -0.54038368247E+03  0.10305668323E+04  0.91111833901E+02 0.  0.
          3    1    3    3  502    0  0.42693660672E+02  0.30684341935E+03  0.74992925428E+02  0.31874687689E+03  0.00000000000E+00 0. -1.
         -3    1    3    3    0  502  0.13273485803E+03  0.62072779817E+03  0.30261415568E+02  0.63548193934E+03  0.00000000000E+00 0.  1.
         13    1    5    5    0    0  0.85867890475E+02 -0.12030113758E+03  0.18499181329E+03  0.23678604119E+03  0.00000000000E+00 0.  1.
        -13    1    5    5    0    0  0.45968928717E+02  0.96387995685E+01  0.49777293477E+02  0.68438496552E+02  0.00000000000E+00 0. -1.
          1    1    6    6  503    0 -0.18504512534E+03 -0.55814178128E+03 -0.32065576782E+03  0.66976418825E+03  0.00000000000E+00 0. -1.
         -1    1    6    6    0  503 -0.12222021255E+03 -0.25876709822E+03 -0.21972791465E+03  0.36080264405E+03  0.00000000000E+00 0.  1.
<mgrwt>
<rscale>  0 0.22812383E+04</rscale>
<asrwt>0</asrwt>
<pdfrwt beam="1">  1        1 0.16074307E+00 0.22812383E+04</pdfrwt>
<pdfrwt beam="2">  1       -1 0.19156772E+00 0.22812383E+04</pdfrwt>
<totfact> 0.21784009E+00</totfact>
</mgrwt>
</event>
<event>
12    3  0.4688899E-008  0.1741975E+04  0.7818608E-02  0.8737780E-01
          2   -1    0    0  501    0  0.00000000000E+00  0.00000000000E+00  0.79719764768E+03  0.79719764768E+03  0.00000000000E+00 0. -1.
         -2   -1    0    0    0  501 -0.00000000000E+00 -0.00000000000E+00 -0.95160713656E+03  0.95160713656E+03  0.00000000000E+00 0.  1.
         23    2    1    2    0    0  0.41064072207E+03 -0.28938725759E+03  0.25388728764E+03  0.56997165762E+03  0.89655720317E+02 0.  0.
        254    2    1    2    0    0 -0.41064072207E+03  0.28938725759E+03 -0.40829677653E+03  0.11788331266E+04  0.98517536268E+03 0.  0.
         23    2    4    4    0    0 -0.27587291994E+03 -0.12782395814E+03  0.23441444826E+03  0.39521258193E+03  0.93797756562E+02 0.  0.
         23    2    4    4    0    0 -0.13476780213E+03  0.41721121573E+03 -0.64271122478E+03  0.78362054469E+03  0.93572862400E+02 0.  0.
          3    1    3    3  502    0  0.40187100004E+03 -0.28335572423E+03  0.22805606154E+03  0.54203351772E+03  0.00000000000E+00 0. -1.
         -3    1    3    3    0  502  0.87697220288E+01 -0.60315333616E+01  0.25831226100E+02  0.27938139898E+02  0.00000000000E+00 0.  1.
         13    1    5    5    0    0 -0.26498949995E+01  0.86904061452E+01 -0.15940780896E+01  0.92242174428E+01  0.00000000000E+00 0. -1.
        -13    1    5    5    0    0 -0.27322302494E+03 -0.13651436428E+03  0.23600852635E+03  0.38598836449E+03  0.00000000000E+00 0.  1.
          3    1    6    6  503    0 -0.10325068824E+02 -0.24197936032E+01 -0.16120511397E+02  0.19295940895E+02  0.00000000000E+00 0. -1.
         -3    1    6    6    0  503 -0.12444273330E+03  0.41963100933E+03 -0.62659071339E+03  0.76432460380E+03  0.00000000000E+00 0.  1.
<mgrwt>
<rscale>  0 0.17419747E+04</rscale>
<asrwt>0</asrwt>
<pdfrwt beam="1">  1        2 0.12264579E+00 0.17419747E+04</pdfrwt>
<pdfrwt beam="2">  1       -2 0.14640110E+00 0.17419747E+04</pdfrwt>
<totfact> 0.10482646E+01</totfact>
</mgrwt>
</event>
<event>
12    3  0.4688899E-008  0.1518454E+04  0.7818608E-02  0.8872273E-01
          3   -1    0    0  501    0  0.00000000000E+00  0.00000000000E+00  0.90074216048E+03  0.90074216048E+03  0.00000000000E+00 0. -1.
         -3   -1    0    0    0  501 -0.00000000000E+00 -0.00000000000E+00 -0.63994541354E+03  0.63994541354E+03  0.00000000000E+00 0.  1.
         23    2    1    2    0    0 -0.39510214286E+03 -0.53568648026E+02 -0.19803745336E+03  0.45496383233E+03  0.93797401080E+02 0.  0.
        254    2    1    2    0    0  0.39510214286E+03  0.53568648026E+02  0.45883420030E+03  0.10857237417E+04  0.89960653432E+03 0.  0.
         23    2    4    4    0    0  0.59211296486E+03  0.20888737058E+03  0.10579374215E+03  0.64311528253E+03  0.90406050690E+02 0.  0.
         23    2    4    4    0    0 -0.19701082201E+03 -0.15531872255E+03  0.35304045815E+03  0.44260845917E+03  0.91255210674E+02 0.  0.
          4    1    3    3  502    0 -0.25761512183E+03 -0.46605176877E+02 -0.80343934069E+02  0.27384802582E+03  0.00000000000E+00 0.  1.
         -4    1    3    3    0  502 -0.13748702103E+03 -0.69634711486E+01 -0.11769351929E+03  0.18111580650E+03  0.00000000000E+00 0. -1.
         13    1    5    5    0    0  0.53549048775E+02  0.31026421855E+02  0.36174871090E+02  0.71685150319E+02  0.00000000000E+00 0. -1.
        -13    1    5    5    0    0  0.53856391609E+03  0.17786094872E+03  0.69618871056E+02  0.57143013221E+03  0.00000000000E+00 0.  1.
          1    1    6    6  503    0 -0.92441980375E+02 -0.52759226865E+02  0.81401089663E+02  0.13399698934E+03  0.00000000000E+00 0. -1.
         -1    1    6    6    0  503 -0.10456884163E+03 -0.10255949568E+03  0.27163936849E+03  0.30861146983E+03  0.00000000000E+00 0.  1.
<mgrwt>
<rscale>  0 0.15184542E+04</rscale>
<asrwt>0</asrwt>
<pdfrwt beam="1">  1        3 0.13857572E+00 0.15184542E+04</pdfrwt>
<pdfrwt beam="2">  1       -3 0.98453140E-01 0.15184542E+04</pdfrwt>
<totfact> 0.90779222E-01</totfact>
</mgrwt>
</event>
<event>
12    3  0.4688899E-008  0.1113146E+04  0.7818608E-02  0.9192472E-01
          1   -1    0    0  501    0  0.00000000000E+00  0.00000000000E+00  0.11021873841E+04  0.11021873841E+04  0.00000000000E+00 0. -1.
         -1   -1    0    0    0  501 -0.00000000000E+00 -0.00000000000E+00 -0.28105355488E+03  0.28105355488E+03  0.00000000000E+00 0.  1.
         23    2    1    2    0    0 -0.25365768447E+02 -0.73227458754E+02 -0.42940184079E+02  0.12711634985E+03  0.91153848329E+02 0.  0.
        254    2    1    2    0    0  0.25365768447E+02  0.73227458754E+02  0.86407401333E+03  0.12561245892E+04  0.90841587396E+03 0.  0.
         23    2    4    4    0    0  0.16773961779E+03  0.13988527902E+02  0.10086092257E+04  0.10264830485E+04  0.89680658179E+02 0.  0.
         23    2    4    4    0    0 -0.14237384934E+03  0.59238930852E+02 -0.14453521234E+03  0.22964154067E+03  0.89806712950E+02 0.  0.
          1    1    3    3  502    0  0.27791517718E+02 -0.66253551369E+01 -0.29107733553E+02  0.40786320505E+02  0.00000000000E+00 0. -1.
         -1    1    3    3    0  502 -0.53157286164E+02 -0.66602103617E+02 -0.13832450525E+02  0.86330029342E+02  0.00000000000E+00 0.  1.
         13    1    5    5    0    0  0.94566066473E+02  0.51821027759E+02  0.60871932724E+03  0.61819687738E+03  0.00000000000E+00 0.  1.
        -13    1    5    5    0    0  0.73173551313E+02 -0.37832499857E+02  0.39988989843E+03  0.40828617111E+03  0.00000000000E+00 0. -1.
          3    1    6    6  503    0 -0.12030543272E+02  0.45757171394E+02 -0.41776883701E+02  0.63117039832E+02  0.00000000000E+00 0. -1.
         -3    1    6    6    0  503 -0.13034330607E+03  0.13481759459E+02 -0.10275832864E+03  0.16652450084E+03  0.00000000000E+00 0.  1.
<mgrwt>
<rscale>  0 0.11131463E+04</rscale>
<asrwt>0</asrwt>
<pdfrwt beam="1">  1        1 0.16956729E+00 0.11131463E+04</pdfrwt>
<pdfrwt beam="2">  1       -1 0.43239009E-01 0.11131463E+04</pdfrwt>
<totfact> 0.66304287E+01</totfact>
</mgrwt>
</event>
<event>
12    3  0.4688899E-008  0.2093598E+04  0.7818608E-02  0.8564069E-01
         -1   -1    0    0    0  501 -0.00000000000E+00  0.00000000000E+00  0.49183295772E+03  0.49183295772E+03  0.00000000000E+00 0.  1.
          1   -1    0    0  501    0  0.00000000000E+00 -0.00000000000E+00 -0.22279689597E+04  0.22279689597E+04  0.00000000000E+00 0. -1.
         23    2    1    2    0    0  0.13681383471E+03 -0.23081927864E+03  0.33792835218E+03  0.44075549948E+03  0.89856966053E+02 0.  0.
        254    2    1    2    0    0 -0.13681383471E+03  0.23081927864E+03 -0.20740643542E+04  0.22790464179E+04  0.90571191071E+03 0.  0.
         23    2    4    4    0    0 -0.21544310071E+03  0.51725818324E+03 -0.89719202430E+03  0.10619040715E+04  0.93354008266E+02 0.  0.
         23    2    4    4    0    0  0.78629266006E+02 -0.28643890460E+03 -0.11768723299E+04  0.12171423464E+04  0.90427889178E+02 0.  0.
          3    1    3    3  502    0  0.27696181139E+02 -0.18453398341E+02  0.93096823197E+01  0.34558306453E+02  0.00000000000E+00 0. -1.
         -3    1    3    3    0  502  0.10911765357E+03 -0.21236588030E+03  0.32861866986E+03  0.40619719302E+03  0.00000000000E+00 0.  1.
         13    1    5    5    0    0 -0.18255017825E+03  0.49516851311E+03 -0.82025475937E+03  0.97536367280E+03  0.00000000000E+00 0. -1.
        -13    1    5    5    0    0 -0.32892922462E+02  0.22089670135E+02 -0.76937264925E+02  0.86540398710E+02  0.00000000000E+00 0.  1.
          4    1    6    6  503    0  0.70809589077E+02 -0.19039275239E+03 -0.93435522795E+03  0.95618151522E+03  0.00000000000E+00 0. -1.
         -4    1    6    6    0  503  0.78196769281E+01 -0.96046152216E+02 -0.24251710191E+03  0.26096083120E+03  0.00000000000E+00 0.  1.
<mgrwt>
<rscale>  0 0.20935984E+04</rscale>
<asrwt>0</asrwt>
<pdfrwt beam="1">  1        1 0.34276445E+00 0.20935984E+04</pdfrwt>
<pdfrwt beam="2">  1       -1 0.75666611E-01 0.20935984E+04</pdfrwt>
<totfact> 0.33668021E+00</totfact>
</mgrwt>
</event>
<event>
12    3  0.4688899E-008  0.3185294E+04  0.7818608E-02  0.8192712E-01
          2   -1    0    0  501    0  0.00000000000E+00  0.00000000000E+00  0.13074948526E+04  0.13074948526E+04  0.00000000000E+00 0. -1.
         -2   -1    0    0    0  501 -0.00000000000E+00 -0.00000000000E+00 -0.19399881067E+04  0.19399881067E+04  0.00000000000E+00 0.  1.
         23    2    1    2    0    0 -0.35094097093E+01  0.14668285020E+04 -0.39891797953E+03  0.15229055299E+04  0.92236264692E+02 0.  0.
        254    2    1    2    0    0  0.35094097093E+01 -0.14668285020E+04 -0.23357527459E+03  0.17245774294E+04  0.87636278509E+03 0.  0.
         23    2    4    4    0    0  0.29078798685E+03 -0.13144040402E+04 -0.29636631836E+03  0.13813615348E+04  0.90061429093E+02 0.  0.
         23    2    4    4    0    0 -0.28727857714E+03 -0.15242446182E+03  0.62791043771E+02  0.34321589468E+03  0.89956865966E+02 0.  0.
          2    1    3    3  502    0  0.41557410153E+02  0.48409311280E+03 -0.13973303593E+03  0.50556748464E+03  0.00000000000E+00 0.  1.
         -2    1    3    3    0  502 -0.45066819863E+02  0.98273538917E+03 -0.25918494360E+03  0.10173380453E+04  0.00000000000E+00 0. -1.
         13    1    5    5    0    0  0.28217253681E+03 -0.11994992010E+04 -0.25112238142E+03  0.12575699281E+04  0.00000000000E+00 0.  1.
        -13    1    5    5    0    0  0.86154500433E+01 -0.11490483919E+03 -0.45243936941E+02  0.12379160665E+03  0.00000000000E+00 0. -1.
          4    1    6    6  503    0 -0.12453637738E+02  0.94595399717E+01  0.13116848319E+02  0.20411459996E+02  0.00000000000E+00 0. -1.
         -4    1    6    6    0  503 -0.27482493940E+03 -0.16188400179E+03  0.49674195452E+02  0.32280443468E+03  0.00000000000E+00 0.  1.
<mgrwt>
<rscale>  0 0.31852940E+04</rscale>
<asrwt>0</asrwt>
<pdfrwt beam="1">  1        2 0.20115306E+00 0.31852940E+04</pdfrwt>
<pdfrwt beam="2">  1       -2 0.29845971E+00 0.31852940E+04</pdfrwt>
<totfact> 0.44812058E-01</totfact>
</mgrwt>
</event>
<event>
12    3  0.4688899E-008  0.2369052E+04  0.7818608E-02  0.8451182E-01
          2   -1    0    0  501    0  0.00000000000E+00  0.00000000000E+00  0.63805441608E+03  0.63805441608E+03  0.00000000000E+00 0. -1.
         -2   -1    0    0    0  501 -0.00000000000E+00 -0.00000000000E+00 -0.21990324891E+04  0.21990324891E+04  0.00000000000E+00 0.  1.
         23    2    1    2    0    0  0.24161626639E+02 -0.98839584423E+03 -0.92929884940E+03  0.13599323597E+04  0.91156690900E+02 0.  0.
        254    2    1    2    0    0 -0.24161626639E+02  0.98839584423E+03 -0.63167922359E+03  0.14771545455E+04  0.89747244002E+03 0.  0.
         23    2    4    4    0    0 -0.20490692194E+03 -0.50052910405E+02  0.26487287980E+02  0.23126259136E+03  0.91042128936E+02 0.  0.
         23    2    4    4    0    0  0.18074529530E+03  0.10384487546E+04 -0.65816651157E+03  0.12458919541E+04  0.89548459370E+02 0.  0.
          1    1    3    3  502    0 -0.94520606992E+01 -0.15957496850E+03 -0.19466370167E+03  0.25188780989E+03  0.00000000000E+00 0. -1.
         -1    1    3    3    0  502  0.33613687338E+02 -0.82882087573E+03 -0.73463514773E+03  0.11080445498E+04  0.00000000000E+00 0.  1.
         13    1    5    5    0    0 -0.14037348388E+03  0.63158484964E+01  0.35991301422E+02  0.14505164148E+03  0.00000000000E+00 0. -1.
        -13    1    5    5    0    0 -0.64533438056E+02 -0.56368758901E+02 -0.95040134411E+01  0.86210949878E+02  0.00000000000E+00 0.  1.
          1    1    6    6  503    0  0.26170671131E+02  0.43938225030E+02 -0.37963062738E+02  0.63691960079E+02  0.00000000000E+00 0. -1.
         -1    1    6    6    0  503  0.15457462417E+03  0.99451052961E+03 -0.62020344883E+03  0.11821999940E+04  0.00000000000E+00 0.  1.
<mgrwt>
<rscale>  0 0.23690525E+04</rscale>
<asrwt>0</asrwt>
<pdfrwt beam="1">  1        2 0.98162217E-01 0.23690525E+04</pdfrwt>
<pdfrwt beam="2">  1       -2 0.33831269E+00 0.23690525E+04</pdfrwt>
<totfact> 0.76467024E-01</totfact>
</mgrwt>
</event>
<event>
12    3  0.4688899E-008  0.3806407E+04  0.7818608E-02  0.8044781E-01
         -2   -1    0    0    0  501 -0.00000000000E+00  0.00000000000E+00  0.10019481773E+04  0.10019481773E+04  0.00000000000E+00 0. -1.
          2   -1    0    0  501    0  0.00000000000E+00 -0.00000000000E+00 -0.36151411633E+04  0.36151411633E+04  0.00000000000E+00 0.  1.
         23    2    1    2    0    0 -0.54135632480E+03  0.17107378132E+04 -0.11900978253E+04  0.21553471968E+04  0.97458550351E+02 0.  0.
        254    2    1    2    0    0  0.54135632480E+03 -0.17107378132E+04 -0.14230951607E+04  0.24617421437E+04  0.90293078916E+03 0.  0.
         23    2    4    4    0    0  0.20766849665E+02 -0.72552212192E+03 -0.11498255932E+03  0.74066003373E+03  0.92426647562E+02 0.  0.
         23    2    4    4    0    0  0.52058947513E+03 -0.98521569129E+03 -0.13081126013E+04  0.17210821100E+04  0.96445277761E+02 0.  0.
          1    1    3    3  502    0 -0.48406593884E+03  0.14982088133E+04 -0.10796000541E+04  0.19090536290E+04  0.00000000000E+00 0. -1.
         -1    1    3    3    0  502 -0.57290385961E+02  0.21252899991E+03 -0.11049777122E+03  0.24629356787E+03  0.00000000000E+00 0.  1.
         13    1    5    5    0    0  0.27258578439E+02 -0.11463394721E+03 -0.43352505098E+02  0.12555242590E+03  0.00000000000E+00 0. -1.
        -13    1    5    5    0    0 -0.64917287744E+01 -0.61088817471E+03 -0.71630054217E+02  0.61510760783E+03  0.00000000000E+00 0.  1.
          4    1    6    6  503    0  0.18955918373E+01 -0.37398035797E+02 -0.34629458100E+02  0.51003977474E+02  0.00000000000E+00 0. -1.
         -4    1    6    6    0  503  0.51869388329E+03 -0.94781765550E+03 -0.12734831432E+04  0.16700781325E+04  0.00000000000E+00 0.  1.
<mgrwt>
<rscale>  0 0.38064073E+04</rscale>
<asrwt>0</asrwt>
<pdfrwt beam="1">  1        2 0.55617556E+00 0.38064073E+04</pdfrwt>
<pdfrwt beam="2">  1       -2 0.15414588E+00 0.38064073E+04</pdfrwt>
<totfact> 0.15001373E-01</totfact>
</mgrwt>
</event>
<event>
12    3  0.4688899E-008  0.1767975E+04  0.7818608E-02  0.8723518E-01
         -1   -1    0    0    0  501 -0.00000000000E+00  0.00000000000E+00  0.49141203559E+03  0.49141203559E+03  0.00000000000E+00 0.  1.
          1   -1    0    0  501    0  0.00000000000E+00 -0.00000000000E+00 -0.15901808168E+04  0.15901808168E+04  0.00000000000E+00 0. -1.
         23    2    1    2    0    0 -0.41481405725E+03 -0.31763895099E+03 -0.85873151386E+03  0.10093227863E+04  0.91364483270E+02 0.  0.
        254    2    1    2    0    0  0.41481405725E+03  0.31763895099E+03 -0.24003726737E+03  0.10722700661E+04  0.90508563110E+03 0.  0.
         23    2    4    4    0    0 -0.27608915356E+03  0.67756122986E+02 -0.14253247694E+02  0.29828544933E+03  0.89190477593E+02 0.  0.
         23    2    4    4    0    0  0.69090321081E+03  0.24988282800E+03 -0.22578401968E+03  0.77398461676E+03  0.91022464250E+02 0.  0.
          2    1    3    3  502    0 -0.18077987049E+03 -0.93582344011E+02 -0.28171280287E+03  0.34756455513E+03  0.00000000000E+00 0. -1.
         -2    1    3    3    0  502 -0.23403418675E+03 -0.22405660698E+03 -0.57701871099E+03  0.66175823118E+03  0.00000000000E+00 0.  1.
         13    1    5    5    0    0 -0.68111176020E+02 -0.15910629343E+02  0.16893025148E+02  0.71955922088E+02  0.00000000000E+00 0.  1.
        -13    1    5    5    0    0 -0.20797797754E+03  0.83666752330E+02 -0.31146272842E+02  0.22632952724E+03  0.00000000000E+00 0. -1.
          2    1    6    6  503    0  0.53481387844E+03  0.20685202571E+03 -0.13795073142E+03  0.58978305284E+03  0.00000000000E+00 0. -1.
         -2    1    6    6    0  503  0.15608933237E+03  0.43030802287E+02 -0.87833288253E+02  0.18420156392E+03  0.00000000000E+00 0.  1.
<mgrwt>
<rscale>  0 0.17679751E+04</rscale>
<asrwt>0</asrwt>
<pdfrwt beam="1">  1        1 0.24464320E+00 0.17679751E+04</pdfrwt>
<pdfrwt beam="2">  1       -1 0.75601852E-01 0.17679751E+04</pdfrwt>
<totfact> 0.94277058E+00</totfact>
</mgrwt>
</event>
<event>
12    3  0.4688899E-008  0.1608223E+04  0.7818608E-02  0.8815512E-01
         -2   -1    0    0    0  501 -0.00000000000E+00  0.00000000000E+00  0.26917961941E+03  0.26917961941E+03  0.00000000000E+00 0.  1.
          2   -1    0    0  501    0  0.00000000000E+00 -0.00000000000E+00 -0.24020974265E+04  0.24020974265E+04  0.00000000000E+00 0. -1.
         23    2    1    2    0    0 -0.17513959509E+03  0.30459301028E+03 -0.45590890183E+02  0.36586881954E+03  0.91272581640E+02 0.  0.
        254    2    1    2    0    0  0.17513959509E+03 -0.30459301028E+03 -0.20873269169E+04  0.23054082264E+04  0.91352211389E+03 0.  0.
         23    2    4    4    0    0 -0.97832087610E+02 -0.52713393800E+03 -0.16481607081E+04  0.17355119618E+04  0.90148455899E+02 0.  0.
         23    2    4    4    0    0  0.27297168270E+03  0.22254092772E+03 -0.43916620889E+03  0.56989626460E+03  0.88751277777E+02 0.  0.
          3    1    3    3  502    0 -0.47969659878E+02  0.92875981141E+02 -0.56170047925E+02  0.11866806826E+03  0.00000000000E+00 0. -1.
         -3    1    3    3    0  502 -0.12716993522E+03  0.21171702914E+03  0.10579157742E+02  0.24720075127E+03  0.00000000000E+00 0.  1.
         13    1    5    5    0    0 -0.56601786130E+02 -0.44121669091E+03 -0.14260916904E+04  0.14938585743E+04  0.00000000000E+00 0.  1.
        -13    1    5    5    0    0 -0.41230301481E+02 -0.85917247085E+02 -0.22206901764E+03  0.24165338752E+03  0.00000000000E+00 0. -1.
          3    1    6    6  503    0  0.39378593548E+02  0.28712806976E+01 -0.27655575778E+02  0.48205277245E+02  0.00000000000E+00 0. -1.
         -3    1    6    6    0  503  0.23359308916E+03  0.21966964702E+03 -0.41151063311E+03  0.52169098735E+03  0.00000000000E+00 0.  1.
<mgrwt>
<rscale>  0 0.16082235E+04</rscale>
<asrwt>0</asrwt>
<pdfrwt beam="1">  1        2 0.36955347E+00 0.16082235E+04</pdfrwt>
<pdfrwt beam="2">  1       -2 0.41412247E-01 0.16082235E+04</pdfrwt>
<totfact> 0.21021265E+01</totfact>
</mgrwt>
</event>
<event>
12    3  0.4688899E-008  0.2253878E+04  0.7818608E-02  0.8496332E-01
         -1   -1    0    0    0  501 -0.00000000000E+00  0.00000000000E+00  0.63864686875E+03  0.63864686875E+03  0.00000000000E+00 0.  1.
          1   -1    0    0  501    0  0.00000000000E+00 -0.00000000000E+00 -0.19885664956E+04  0.19885664956E+04  0.00000000000E+00 0. -1.
         23    2    1    2    0    0  0.10519171582E+03 -0.84282600869E+03 -0.10155450521E+03  0.86045831553E+03  0.93028045400E+02 0.  0.
        254    2    1    2    0    0 -0.10519171582E+03  0.84282600869E+03 -0.12483651216E+04  0.17667550488E+04  0.91738048139E+03 0.  0.
         23    2    4    4    0    0 -0.25115530441E+03  0.96235217811E+02  0.20170377984E+02  0.28496905909E+03  0.91979978332E+02 0.  0.
         23    2    4    4    0    0  0.14596358858E+03  0.74659079088E+03 -0.12685354996E+04  0.14817859897E+04  0.88341538147E+02 0.  0.
          4    1    3    3  502    0 -0.37736451081E+01 -0.91190228479E+01  0.77998041757E+01  0.12579106498E+02  0.00000000000E+00 0. -1.
         -4    1    3    3    0  502  0.10896536093E+03 -0.83370698584E+03 -0.10935430938E+03  0.84787920903E+03  0.00000000000E+00 0.  1.
         13    1    5    5    0    0 -0.22905047424E+03  0.77127928276E+02  0.45934593060E+02  0.24601386934E+03  0.00000000000E+00 0.  1.
        -13    1    5    5    0    0 -0.22104830170E+02  0.19107289536E+02 -0.25764215076E+02  0.38955189753E+02  0.00000000000E+00 0. -1.
          3    1    6    6  503    0  0.25212378731E+02  0.35872819880E+03 -0.59508723607E+03  0.69530597810E+03  0.00000000000E+00 0. -1.
         -3    1    6    6    0  503  0.12075120985E+03  0.38786259208E+03 -0.67344826355E+03  0.78648001163E+03  0.00000000000E+00 0.  1.
<mgrwt>
<rscale>  0 0.22538782E+04</rscale>
<asrwt>0</asrwt>
<pdfrwt beam="1">  1        1 0.30593330E+00 0.22538782E+04</pdfrwt>
<pdfrwt beam="2">  1       -1 0.98253365E-01 0.22538782E+04</pdfrwt>
<totfact> 0.27311804E+00</totfact>
</mgrwt>
</event>
<event>
12    3  0.4688899E-008  0.1381248E+04  0.7818608E-02  0.8967505E-01
          2   -1    0    0  501    0  0.00000000000E+00  0.00000000000E+00  0.28241037413E+04  0.28241037413E+04  0.00000000000E+00 0. -1.
         -2   -1    0    0    0  501 -0.00000000000E+00 -0.00000000000E+00 -0.16888947215E+03  0.16888947215E+03  0.00000000000E+00 0.  1.
         23    2    1    2    0    0  0.38332476918E+03  0.48582437249E+02  0.67598920625E+03  0.78387187380E+03  0.90529418897E+02 0.  0.
        254    2    1    2    0    0 -0.38332476918E+03 -0.48582437249E+02  0.19792250629E+04  0.22091213396E+04  0.90199063841E+03 0.  0.
         23    2    4    4    0    0 -0.63829636952E+03 -0.16720610630E+03  0.11497231717E+04  0.13286690345E+04  0.90099358146E+02 0.  0.
         23    2    4    4    0    0  0.25497160034E+03  0.11862366905E+03  0.82950189118E+03  0.88045230514E+03  0.89670409366E+02 0.  0.
          1    1    3    3  502    0  0.88753555269E+02  0.43494749996E+02  0.21722432549E+03  0.23865329336E+03  0.00000000000E+00 0. -1.
         -1    1    3    3    0  502  0.29457121391E+03  0.50876872525E+01  0.45876488076E+03  0.54521858043E+03  0.00000000000E+00 0.  1.
         13    1    5    5    0    0 -0.17881389491E+03 -0.89406163414E+02  0.34117081898E+03  0.39543064979E+03  0.00000000000E+00 0. -1.
        -13    1    5    5    0    0 -0.45948247461E+03 -0.77799942885E+02  0.80855235272E+03  0.93323838470E+03  0.00000000000E+00 0.  1.
          2    1    6    6  503    0  0.24577526383E+02  0.20674810617E+02  0.20729839270E+03  0.20977160488E+03  0.00000000000E+00 0. -1.
         -2    1    6    6    0  503  0.23039407395E+03  0.97948858432E+02  0.62220349848E+03  0.67068070026E+03  0.00000000000E+00 0.  1.
<mgrwt>
<rscale>  0 0.13812478E+04</rscale>
<asrwt>0</asrwt>
<pdfrwt beam="1">  1        2 0.43447746E+00 0.13812478E+04</pdfrwt>
<pdfrwt beam="2">  1       -2 0.25982998E-01 0.13812478E+04</pdfrwt>
<totfact> 0.29353332E+01</totfact>
</mgrwt>
</event>
<event>
12    3  0.4688899E-008  0.1625100E+04  0.7818608E-02  0.8805275E-01
         -1   -1    0    0    0  501 -0.00000000000E+00  0.00000000000E+00  0.88080507854E+03  0.88080507854E+03  0.00000000000E+00 0.  1.
          1   -1    0    0  501    0  0.00000000000E+00 -0.00000000000E+00 -0.74958376251E+03  0.74958376251E+03  0.00000000000E+00 0. -1.
         23    2    1    2    0    0 -0.20170098724E+03  0.43788657929E+03 -0.24457804847E+03  0.54816148219E+03  0.90744940316E+02 0.  0.
        254    2    1    2    0    0  0.20170098724E+03 -0.43788657929E+03  0.37579936450E+03  0.10822273588E+04  0.89306379912E+03 0.  0.
         23    2    4    4    0    0  0.14774339316E+02 -0.41375695199E+03 -0.20047287976E+03  0.46895083384E+03  0.91172433422E+02 0.  0.
         23    2    4    4    0    0  0.18692664793E+03 -0.24129627294E+02  0.57627224426E+03  0.61327652501E+03  0.92166078391E+02 0.  0.
          1    1    3    3  502    0 -0.17429979171E+03  0.40757249293E+03 -0.24658878075E+03  0.50724922984E+03  0.00000000000E+00 0. -1.
         -1    1    3    3    0  502 -0.27401195534E+02  0.30314086361E+02  0.20107322779E+01  0.40912252357E+02  0.00000000000E+00 0.  1.
         13    1    5    5    0    0 -0.24273106053E+02 -0.34303992581E+02 -0.13521935286E+02  0.44145105259E+02  0.00000000000E+00 0.  1.
        -13    1    5    5    0    0  0.39047445369E+02 -0.37945295941E+03 -0.18695094447E+03  0.42480572858E+03  0.00000000000E+00 0. -1.
          1    1    6    6  503    0  0.18477984776E+03 -0.23005919293E+02  0.57981669284E+03  0.60898297329E+03  0.00000000000E+00 0. -1.
         -1    1    6    6    0  503  0.21468001700E+01 -0.11237080016E+01 -0.35444485806E+01  0.42935517213E+01  0.00000000000E+00 0.  1.
<mgrwt>
<rscale>  0 0.16250996E+04</rscale>
<asrwt>0</asrwt>
<pdfrwt beam="1">  1        1 0.11532058E+00 0.16250996E+04</pdfrwt>
<pdfrwt beam="2">  1       -1 0.13550847E+00 0.16250996E+04</pdfrwt>
<totfact> 0.10710730E+01</totfact>
</mgrwt>
</event>
<event>
12    3  0.4688899E-008  0.1114739E+04  0.7818608E-02  0.9190944E-01
          2   -1    0    0  501    0  0.00000000000E+00  0.00000000000E+00  0.27129486548E+04  0.27129486548E+04  0.00000000000E+00 0. -1.
         -2   -1    0    0    0  501 -0.00000000000E+00 -0.00000000000E+00 -0.11451044712E+03  0.11451044712E+03  0.00000000000E+00 0.  1.
         23    2    1    2    0    0 -0.83184217303E+02 -0.14768186435E+02  0.77538087610E+02  0.14603159429E+03  0.90417687224E+02 0.  0.
        254    2    1    2    0    0  0.83184217303E+02  0.14768186435E+02  0.25209001201E+04  0.26814275076E+04  0.90993315683E+03 0.  0.
         23    2    4    4    0    0  0.17417899877E+03 -0.43318505881E+02  0.25318243362E+04  0.25398885164E+04  0.93190074789E+02 0.  0.
         23    2    4    4    0    0 -0.90994781471E+02  0.58086692317E+02 -0.10924216064E+02  0.14153899124E+03  0.90883625940E+02 0.  0.
          2    1    3    3  502    0 -0.26394285238E+02  0.26349684839E+02  0.64807171410E+02  0.74772546101E+02  0.00000000000E+00 0. -1.
         -2    1    3    3    0  502 -0.56789932065E+02 -0.41117871274E+02  0.12730916200E+02  0.71259048193E+02  0.00000000000E+00 0.  1.
         13    1    5    5    0    0  0.13365412932E+03 -0.19981143463E+02  0.22626543604E+04  0.22666864422E+04  0.00000000000E+00 0. -1.
        -13    1    5    5    0    0  0.40524869455E+02 -0.23337362418E+02  0.26916997574E+03  0.27320207424E+03  0.00000000000E+00 0.  1.
          3    1    6    6  503    0 -0.72548523268E+02  0.66748498653E+02 -0.39701084703E+02  0.10627712090E+03  0.00000000000E+00 0. -1.
         -3    1    6    6    0  503 -0.18446258204E+02 -0.86618063365E+01  0.28776868639E+02  0.35261870333E+02  0.00000000000E+00 0.  1.
<mgrwt>
<rscale>  0 0.11147394E+04</rscale>
<asrwt>0</asrwt>
<pdfrwt beam="1">  1        2 0.41737667E+00 0.11147394E+04</pdfrwt>
<pdfrwt beam="2">  1       -2 0.17616994E-01 0.11147394E+04</pdfrwt>
<totfact> 0.69851537E+01</totfact>
</mgrwt>
</event>
<event>
12    3  0.4688899E-008  0.1804233E+04  0.7818608E-02  0.8704051E-01
          1   -1    0    0  501    0  0.00000000000E+00  0.00000000000E+00  0.11795142919E+04  0.11795142919E+04  0.00000000000E+00 0. -1.
         -1   -1    0    0    0  501 -0.00000000000E+00 -0.00000000000E+00 -0.68995733138E+03  0.68995733138E+03  0.00000000000E+00 0.  1.
         23    2    1    2    0    0  0.14076760949E+03  0.42649913410E+03 -0.33418454023E+03  0.56749415140E+03  0.93022973863E+02 0.  0.
        254    2    1    2    0    0 -0.14076760949E+03 -0.42649913410E+03  0.82374150073E+03  0.13019774719E+04  0.90270606839E+03 0.  0.
         23    2    4    4    0    0 -0.43499122754E+03 -0.40712149743E+03  0.25388012336E+03  0.65379228017E+03  0.89576486117E+02 0.  0.
         23    2    4    4    0    0  0.29422361806E+03 -0.19377636669E+02  0.56986137738E+03  0.64818519168E+03  0.91972947451E+02 0.  0.
          1    1    3    3  502    0  0.23180272377E+02  0.12186675002E+03 -0.14217484982E+03  0.18868629444E+03  0.00000000000E+00 0. -1.
         -1    1    3    3    0  502  0.11758733711E+03  0.30463238408E+03 -0.19200969042E+03  0.37880785696E+03  0.00000000000E+00 0.  1.
         13    1    5    5    0    0 -0.36604794795E+03 -0.29267674295E+03  0.19033990508E+03  0.50584588120E+03  0.00000000000E+00 0.  1.
        -13    1    5    5    0    0 -0.68943279591E+02 -0.11444475448E+03  0.63540218278E+02  0.14794639897E+03  0.00000000000E+00 0. -1.
          1    1    6    6  503    0  0.10572078775E+03 -0.39035751011E+02  0.15079764871E+03  0.18825675466E+03  0.00000000000E+00 0. -1.
         -1    1    6    6    0  503  0.18850283030E+03  0.19658114343E+02  0.41906372867E+03  0.45992843702E+03  0.00000000000E+00 0.  1.
<mgrwt>
<rscale>  0 0.18042334E+04</rscale>
<asrwt>0</asrwt>
<pdfrwt beam="1">  1        1 0.18146374E+00 0.18042334E+04</pdfrwt>
<pdfrwt beam="2">  1       -1 0.10614728E+00 0.18042334E+04</pdfrwt>
<totfact> 0.86619314E+00</totfact>
</mgrwt>
</event>
<event>
12    3  0.4688899E-008  0.2998472E+04  0.7818608E-02  0.8244167E-01
          2   -1    0    0  501    0  0.00000000000E+00  0.00000000000E+00  0.22490713489E+04  0.22490713489E+04  0.00000000000E+00 0. -1.
         -2   -1    0    0    0  501 -0.00000000000E+00 -0.00000000000E+00 -0.99939375650E+03  0.99939375650E+03  0.00000000000E+00 0.  1.
         23    2    1    2    0    0 -0.34480732500E+03 -0.29982897086E+03  0.19510487096E+04  0.20061241551E+04  0.95674215961E+02 0.  0.
        254    2    1    2    0    0  0.34480732500E+03  0.29982897086E+03 -0.70137111718E+03  0.12423409502E+04  0.91798697676E+03 0.  0.
         23    2    4    4    0    0 -0.18450780154E+03  0.37920571624E+03 -0.50555186127E+03  0.66467045866E+03  0.91455071637E+02 0.  0.
         23    2    4    4    0    0  0.52931512654E+03 -0.79376745377E+02 -0.19581925591E+03  0.57767049158E+03  0.94248845966E+02 0.  0.
          2    1    3    3  502    0 -0.28000180234E+03 -0.28408949637E+03  0.16158228605E+04  0.16643291044E+04  0.00000000000E+00 0. -1.
         -2    1    3    3    0  502 -0.64805522662E+02 -0.15739474491E+02  0.33522584903E+03  0.34179505070E+03  0.00000000000E+00 0.  1.
         13    1    5    5    0    0  0.79672893055E+01  0.91324082536E+01 -0.28486479334E+02  0.30957359129E+02  0.00000000000E+00 0. -1.
        -13    1    5    5    0    0 -0.19247509084E+03  0.37007330799E+03 -0.47706538194E+03  0.63371309954E+03  0.00000000000E+00 0.  1.
          1    1    6    6  503    0  0.11433318613E+03 -0.12865294460E+02 -0.84940401290E+02  0.14301211496E+03  0.00000000000E+00 0. -1.
         -1    1    6    6    0  503  0.41498194041E+03 -0.66511450917E+02 -0.11087885462E+03  0.43465837663E+03  0.00000000000E+00 0.  1.
<mgrwt>
<rscale>  0 0.29984715E+04</rscale>
<asrwt>0</asrwt>
<pdfrwt beam="1">  1        2 0.34601098E+00 0.29984715E+04</pdfrwt>
<pdfrwt beam="2">  1       -2 0.15375289E+00 0.29984715E+04</pdfrwt>
<totfact> 0.11635525E+00</totfact>
</mgrwt>
</event>
<event>
12    3  0.4688899E-008  0.2153866E+04  0.7818608E-02  0.8537879E-01
         -2   -1    0    0    0  501 -0.00000000000E+00  0.00000000000E+00  0.92526090549E+03  0.92526090549E+03  0.00000000000E+00 0. -1.
          2   -1    0    0  501    0  0.00000000000E+00 -0.00000000000E+00 -0.12534676043E+04  0.12534676043E+04  0.00000000000E+00 0.  1.
         23    2    1    2    0    0  0.48388608446E+03 -0.45935623521E+03  0.46285980363E+03  0.81707546615E+03  0.90659947123E+02 0.  0.
        254    2    1    2    0    0 -0.48388608446E+03  0.45935623521E+03 -0.79106650240E+03  0.13616530436E+04  0.88496265817E+03 0.  0.
         23    2    4    4    0    0  0.64477100580E+02 -0.18851498507E+03 -0.39175407501E+02  0.22423342525E+03  0.95135273963E+02 0.  0.
         23    2    4    4    0    0 -0.54836318504E+03  0.64787122028E+03 -0.75189109490E+03  0.11374196183E+04  0.89128383917E+02 0.  0.
          2    1    3    3  502    0  0.48361348323E+03 -0.45191219023E+03  0.46547486165E+03  0.80918074351E+03  0.00000000000E+00 0. -1.
         -2    1    3    3    0  502  0.27260122378E+00 -0.74440449840E+01 -0.26150580184E+01  0.78947226418E+01  0.00000000000E+00 0.  1.
         13    1    5    5    0    0  0.49773535727E+01 -0.14126368869E+03 -0.64289116496E+01  0.14149747240E+03  0.00000000000E+00 0. -1.
        -13    1    5    5    0    0  0.59499747007E+02 -0.47251296381E+02 -0.32746495852E+02  0.82735952851E+02  0.00000000000E+00 0.  1.
          1    1    6    6  503    0 -0.29559382958E+03  0.39972636239E+03 -0.47796786924E+03  0.68964495279E+03  0.00000000000E+00 0. -1.
         -1    1    6    6    0  503 -0.25276935546E+03  0.24814485789E+03 -0.27392322566E+03  0.44777466555E+03  0.00000000000E+00 0.  1.
<mgrwt>
<rscale>  0 0.21538659E+04</rscale>
<asrwt>0</asrwt>
<pdfrwt beam="1">  1        2 0.19284117E+00 0.21538659E+04</pdfrwt>
<pdfrwt beam="2">  1       -2 0.14234783E+00 0.21538659E+04</pdfrwt>
<totfact> 0.55557819E+00</totfact>
</mgrwt>
</event>
<event>
12    3  0.4688899E-008  0.2473572E+04  0.7818608E-02  0.8412462E-01
          2   -1    0    0  501    0  0.00000000000E+00  0.00000000000E+00  0.12105055050E+04  0.12105055050E+04  0.00000000000E+00 0. -1.
         -2   -1    0    0    0  501 -0.00000000000E+00 -0.00000000000E+00 -0.12636367260E+04  0.12636367260E+04  0.00000000000E+00 0.  1.
         23    2    1    2    0    0 -0.75694796837E+03  0.54722732231E+02 -0.76018384318E+03  0.10779544672E+04  0.90230559111E+02 0.  0.
        254    2    1    2    0    0  0.75694796837E+03 -0.54722732231E+02  0.70705262210E+03  0.13961877638E+04  0.93458657011E+03 0.  0.
         23    2    4    4    0    0  0.34764802081E+03  0.23084351156E+03  0.77429093438E+03  0.88410005393E+03  0.89210879928E+02 0.  0.
         23    2    4    4    0    0  0.40929994756E+03 -0.28556624379E+03 -0.67238312278E+02  0.51208770984E+03  0.92942483637E+02 0.  0.
          3    1    3    3  502    0 -0.23053558599E+03  0.49376563167E+01 -0.17654419597E+03  0.29041158721E+03  0.00000000000E+00 0. -1.
         -3    1    3    3    0  502 -0.52641238238E+03  0.49785075914E+02 -0.58363964720E+03  0.78754288004E+03  0.00000000000E+00 0.  1.
         13    1    5    5    0    0  0.30164676824E+03  0.23004977438E+03  0.71070612198E+03  0.80561582861E+03  0.00000000000E+00 0. -1.
        -13    1    5    5    0    0  0.46001252573E+02  0.79373717630E+00  0.63584812399E+02  0.78484225325E+02  0.00000000000E+00 0.  1.
          1    1    6    6  503    0  0.34400917801E+03 -0.27632782975E+03 -0.65833363148E+02  0.44613161259E+03  0.00000000000E+00 0. -1.
         -1    1    6    6    0  503  0.65290769546E+02 -0.92384140437E+01 -0.14049491299E+01  0.65956097247E+02  0.00000000000E+00 0.  1.
<mgrwt>
<rscale>  0 0.24735717E+04</rscale>
<asrwt>0</asrwt>
<pdfrwt beam="1">  1        2 0.18623161E+00 0.24735717E+04</pdfrwt>
<pdfrwt beam="2">  1       -2 0.19440565E+00 0.24735717E+04</pdfrwt>
<totfact> 0.24167156E+00</totfact>
</mgrwt>
</event>
<event>
12    3  0.4688899E-008  0.1809262E+04  0.7818608E-02  0.8701390E-01
          1   -1    0    0  501    0  0.00000000000E+00  0.00000000000E+00  0.30805223944E+03  0.30805223944E+03  0.00000000000E+00 0. -1.
         -1   -1    0    0    0  501 -0.00000000000E+00 -0.00000000000E+00 -0.26565528810E+04  0.26565528810E+04  0.00000000000E+00 0.  1.
         23    2    1    2    0    0  0.17157128711E+03  0.18969604584E+03 -0.19171223846E+04  0.19362074386E+04  0.90109441865E+02 0.  0.
        254    2    1    2    0    0 -0.17157128711E+03 -0.18969604584E+03 -0.43137825701E+03  0.10283976818E+04  0.89782698503E+03 0.  0.
         23    2    4    4    0    0  0.78943524722E+02 -0.47130878340E+03 -0.41661393356E+03  0.64087533141E+03  0.93754847178E+02 0.  0.
         23    2    4    4    0    0 -0.25051481183E+03  0.28161273756E+03 -0.14764323447E+02  0.38752235044E+03  0.88837953261E+02 0.  0.
          1    1    3    3  502    0  0.80873677217E+02  0.45716424723E+02 -0.46826482359E+03  0.47739133650E+03  0.00000000000E+00 0. -1.
         -1    1    3    3    0  502  0.90697609894E+02  0.14397962111E+03 -0.14488575610E+04  0.14588161021E+04  0.00000000000E+00 0.  1.
         13    1    5    5    0    0 -0.13664425171E+02 -0.57908609050E+02 -0.27106852601E+02  0.65382757477E+02  0.00000000000E+00 0. -1.
        -13    1    5    5    0    0  0.92607949894E+02 -0.41340017435E+03 -0.38950708096E+03  0.57549257393E+03  0.00000000000E+00 0.  1.
          4    1    6    6  503    0 -0.10158648262E+03  0.17408820473E+03  0.11891306459E+02  0.20191067244E+03  0.00000000000E+00 0. -1.
         -4    1    6    6    0  503 -0.14892832922E+03  0.10752453283E+03 -0.26655629906E+02  0.18561167800E+03  0.00000000000E+00 0.  1.
<mgrwt>
<rscale>  0 0.18092618E+04</rscale>
<asrwt>0</asrwt>
<pdfrwt beam="1">  1        1 0.47392651E-01 0.18092618E+04</pdfrwt>
<pdfrwt beam="2">  1       -1 0.40870045E+00 0.18092618E+04</pdfrwt>
<totfact> 0.49947555E-01</totfact>
</mgrwt>
</event>
<event>
12    3  0.4688899E-008  0.2345779E+04  0.7818608E-02  0.8460087E-01
         -1   -1    0    0    0  501 -0.00000000000E+00  0.00000000000E+00  0.62266021239E+03  0.62266021239E+03  0.00000000000E+00 0.  1.
          1   -1    0    0  501    0  0.00000000000E+00 -0.00000000000E+00 -0.22093429642E+04  0.22093429642E+04  0.00000000000E+00 0. -1.
         23    2    1    2    0    0 -0.34955361644E+03  0.85387413141E+03 -0.11224906630E+04  0.14558648778E+04  0.90931243451E+02 0.  0.
        254    2    1    2    0    0  0.34955361644E+03 -0.85387413141E+03 -0.46419208885E+03  0.13761382988E+04  0.90939186212E+03 0.  0.
         23    2    4    4    0    0  0.62368456215E+03 -0.66872444095E+03 -0.19582066726E+03  0.93922120243E+03  0.87269252235E+02 0.  0.
         23    2    4    4    0    0 -0.27413094572E+03 -0.18514969046E+03 -0.26837142159E+03  0.43691709632E+03  0.97186140220E+02 0.  0.
          4    1    3    3  502    0 -0.27752182688E+03  0.57349091438E+03 -0.74887350632E+03  0.98322007798E+03  0.00000000000E+00 0. -1.
         -4    1    3    3    0  502 -0.72031789556E+02  0.28038321702E+03 -0.37361715665E+03  0.47264479986E+03  0.00000000000E+00 0.  1.
         13    1    5    5    0    0  0.12994964738E+03 -0.93106538937E+02 -0.24182500479E+02  0.16168033825E+03  0.00000000000E+00 0. -1.
        -13    1    5    5    0    0  0.49373491478E+03 -0.57561790201E+03 -0.17163816678E+03  0.77754086419E+03  0.00000000000E+00 0.  1.
          1    1    6    6  503    0  0.44054317322E+01 -0.68649284868E+01 -0.25038088639E+02  0.26333267070E+02  0.00000000000E+00 0. -1.
         -1    1    6    6    0  503 -0.27853637745E+03 -0.17828476197E+03 -0.24333333296E+03  0.41058382925E+03  0.00000000000E+00 0.  1.
<mgrwt>
<rscale>  0 0.23457792E+04</rscale>
<asrwt>0</asrwt>
<pdfrwt beam="1">  1        1 0.33989891E+00 0.23457792E+04</pdfrwt>
<pdfrwt beam="2">  1       -1 0.95793880E-01 0.23457792E+04</pdfrwt>
<totfact> 0.20306783E+00</totfact>
</mgrwt>
</event>
<event>
12    3  0.4688899E-008  0.1450405E+04  0.7818608E-02  0.8918120E-01
          1   -1    0    0  501    0  0.00000000000E+00  0.00000000000E+00  0.22382608383E+03  0.22382608383E+03  0.00000000000E+00 0. -1.
         -1   -1    0    0    0  501 -0.00000000000E+00 -0.00000000000E+00 -0.23496746854E+04  0.23496746854E+04  0.00000000000E+00 0.  1.
         23    2    1    2    0    0  0.25719385668E+03  0.23369345257E+03 -0.11194069224E+04  0.11746824682E+04  0.77754315019E+02 0.  0.
        254    2    1    2    0    0 -0.25719385668E+03 -0.23369345257E+03 -0.10064416791E+04  0.13988183010E+04  0.90719704365E+03 0.  0.
         23    2    4    4    0    0 -0.23677143061E+03 -0.13641512660E+02  0.97239555568E+02  0.26975778634E+03  0.84065039732E+02 0.  0.
         23    2    4    4    0    0 -0.20422426071E+02 -0.22005193991E+03 -0.11036812347E+04  0.11290605146E+04  0.88461551959E+02 0.  0.
          4    1    3    3  502    0  0.84862203237E+02  0.12232233780E+03 -0.53362803361E+03  0.55400652173E+03  0.00000000000E+00 0. -1.
         -4    1    3    3    0  502  0.17233165344E+03  0.11137111476E+03 -0.58577888882E+03  0.62067594650E+03  0.00000000000E+00 0.  1.
         13    1    5    5    0    0 -0.21175686082E+03 -0.39487734136E+02  0.79075985142E+02  0.22946298324E+03  0.00000000000E+00 0. -1.
        -13    1    5    5    0    0 -0.25014569785E+02  0.25846221476E+02  0.18163570427E+02  0.40294803099E+02  0.00000000000E+00 0.  1.
          4    1    6    6  503    0 -0.12484543837E+02 -0.22433929288E+03 -0.10880984786E+04  0.11110545807E+04  0.00000000000E+00 0. -1.
         -4    1    6    6    0  503 -0.79378822337E+01  0.42873529726E+01 -0.15582756116E+02  0.18005933967E+02  0.00000000000E+00 0.  1.
<mgrwt>
<rscale>  0 0.14504047E+04</rscale>
<asrwt>0</asrwt>
<pdfrwt beam="1">  1        1 0.34434783E-01 0.14504047E+04</pdfrwt>
<pdfrwt beam="2">  1       -1 0.36148841E+00 0.14504047E+04</pdfrwt>
<totfact> 0.16358992E+00</totfact>
</mgrwt>
</event>
<event>
12    3  0.4688899E-008  0.2896577E+04  0.7818608E-02  0.8273897E-01
          1   -1    0    0  501    0  0.00000000000E+00  0.00000000000E+00  0.16398457316E+04  0.16398457316E+04  0.00000000000E+00 0. -1.
         -1   -1    0    0    0  501 -0.00000000000E+00 -0.00000000000E+00 -0.12791080483E+04  0.12791080483E+04  0.00000000000E+00 0.  1.
         23    2    1    2    0    0 -0.90163142265E+03 -0.15550720715E+03 -0.77058373922E+03  0.11996821512E+04  0.91193481127E+02 0.  0.
        254    2    1    2    0    0  0.90163142265E+03  0.15550720715E+03  0.11313214225E+04  0.17192716286E+04  0.91590668644E+03 0.  0.
         23    2    4    4    0    0  0.92749579778E+03  0.36197049440E+03  0.67035803034E+03  0.12036242371E+04  0.89779293876E+02 0.  0.
         23    2    4    4    0    0 -0.25864375132E+02 -0.20646328725E+03  0.46096339217E+03  0.51564739153E+03  0.10054316781E+03 0.  0.
          2    1    3    3  502    0 -0.38812145451E+03 -0.25577286254E+02 -0.30132888009E+03  0.49202800225E+03  0.00000000000E+00 0.  1.
         -2    1    3    3    0  502 -0.51350996814E+03 -0.12992992090E+03 -0.46925485913E+03  0.70765414896E+03  0.00000000000E+00 0. -1.
         13    1    5    5    0    0  0.50816464128E+03  0.21529361352E+03  0.42139211727E+03  0.69437306915E+03  0.00000000000E+00 0.  1.
        -13    1    5    5    0    0  0.41933115650E+03  0.14667688088E+03  0.24896591307E+03  0.50925116796E+03  0.00000000000E+00 0. -1.
          4    1    6    6  503    0 -0.14940597267E+02 -0.42013137063E+02  0.28695942673E+02  0.53026241226E+02  0.00000000000E+00 0.  1.
         -4    1    6    6    0  503 -0.10923777864E+02 -0.16445015018E+03  0.43226744949E+03  0.46262115031E+03  0.00000000000E+00 0. -1.
<mgrwt>
<rscale>  0 0.28965772E+04</rscale>
<asrwt>0</asrwt>
<pdfrwt beam="1">  1        1 0.25228396E+00 0.28965772E+04</pdfrwt>
<pdfrwt beam="2">  1       -1 0.19678585E+00 0.28965772E+04</pdfrwt>
<totfact> 0.71273227E-01</totfact>
</mgrwt>
</event>
<event>
12    3  0.4688899E-008  0.1346218E+04  0.7818608E-02  0.8993696E-01
          2   -1    0    0  501    0  0.00000000000E+00  0.00000000000E+00  0.19576958499E+04  0.19576958499E+04  0.00000000000E+00 0. -1.
         -2   -1    0    0    0  501 -0.00000000000E+00 -0.00000000000E+00 -0.23143325385E+03  0.23143325385E+03  0.00000000000E+00 0.  1.
         23    2    1    2    0    0 -0.23015373038E+03  0.24492546418E+03  0.70766129454E+03  0.78872692618E+03  0.91358818313E+02 0.  0.
        254    2    1    2    0    0  0.23015373038E+03 -0.24492546418E+03  0.10186013015E+04  0.14004021776E+04  0.90034350383E+03 0.  0.
         23    2    4    4    0    0  0.41229005305E+03 -0.46858905625E+03  0.83492125746E+03  0.10463728599E+04  0.90795728734E+02 0.  0.
         23    2    4    4    0    0 -0.18213632268E+03  0.22366359207E+03  0.18368004406E+03  0.35402931764E+03  0.91648004398E+02 0.  0.
          3    1    3    3  502    0 -0.22914919545E+03  0.21231458511E+03  0.66750640204E+03  0.73698821808E+03  0.00000000000E+00 0. -1.
         -3    1    3    3    0  502 -0.10045349308E+01  0.32610879074E+02  0.40154892494E+02  0.51738708097E+02  0.00000000000E+00 0.  1.
         13    1    5    5    0    0  0.33299444992E+02 -0.47578476211E+02  0.41032488424E+02  0.71107169411E+02  0.00000000000E+00 0. -1.
        -13    1    5    5    0    0  0.37899060806E+03 -0.42101058004E+03  0.79388876904E+03  0.97526569052E+03  0.00000000000E+00 0.  1.
          3    1    6    6  503    0 -0.45142782385E+01 -0.88794518295E+01  0.47056431460E+01  0.11016644236E+02  0.00000000000E+00 0. -1.
         -3    1    6    6    0  503 -0.17762204444E+03  0.23254304390E+03  0.17897440091E+03  0.34301267340E+03  0.00000000000E+00 0.  1.
<mgrwt>
<rscale>  0 0.13462183E+04</rscale>
<asrwt>0</asrwt>
<pdfrwt beam="1">  1        2 0.30118397E+00 0.13462183E+04</pdfrwt>
<pdfrwt beam="2">  1       -2 0.35605117E-01 0.13462183E+04</pdfrwt>
<totfact> 0.51113986E+01</totfact>
</mgrwt>
</event>
<event>
12    3  0.4688899E-008  0.2757806E+04  0.7818608E-02  0.8316489E-01
          2   -1    0    0  501    0  0.00000000000E+00  0.00000000000E+00  0.15288636307E+04  0.15288636307E+04  0.00000000000E+00 0.  1.
         -2   -1    0    0    0  501 -0.00000000000E+00 -0.00000000000E+00 -0.12436512694E+04  0.12436512694E+04  0.00000000000E+00 0. -1.
         23    2    1    2    0    0  0.57419440110E+03  0.73672191731E+03  0.93375583173E+03  0.13238849458E+04  0.91175670141E+02 0.  0.
        254    2    1    2    0    0 -0.57419440110E+03 -0.73672191731E+03 -0.64854347050E+03  0.14486299543E+04  0.89747519054E+03 0.  0.
         23    2    4    4    0    0 -0.48899868709E+03 -0.62608106014E+03 -0.21790392842E+02  0.79998081290E+03  0.91636619035E+02 0.  0.
         23    2    4    4    0    0 -0.85195714013E+02 -0.11064085717E+03 -0.62675307765E+03  0.64864914139E+03  0.91796401423E+02 0.  0.
          2    1    3    3  502    0  0.19202047516E+02  0.58089949581E+02  0.73549013988E+02  0.95669317599E+02  0.00000000000E+00 0. -1.
         -2    1    3    3    0  502  0.55499235359E+03  0.67863196773E+03  0.86020681774E+03  0.12282156282E+04  0.00000000000E+00 0.  1.
         13    1    5    5    0    0 -0.11989674564E+03 -0.21298667493E+03 -0.27696171599E+02  0.24597892437E+03  0.00000000000E+00 0. -1.
        -13    1    5    5    0    0 -0.36910194145E+03 -0.41309438521E+03  0.59057787567E+01  0.55400188853E+03  0.00000000000E+00 0.  1.
          2    1    6    6  503    0 -0.63537188107E+00 -0.21963506055E+02 -0.20212213619E+02  0.29855198460E+02  0.00000000000E+00 0. -1.
         -2    1    6    6    0  503 -0.84560342132E+02 -0.88677351117E+02 -0.60654086403E+03  0.61879394293E+03  0.00000000000E+00 0.  1.
<mgrwt>
<rscale>  0 0.27578058E+04</rscale>
<asrwt>0</asrwt>
<pdfrwt beam="1">  1        2 0.23520979E+00 0.27578058E+04</pdfrwt>
<pdfrwt beam="2">  1       -2 0.19133096E+00 0.27578058E+04</pdfrwt>
<totfact> 0.16213014E+00</totfact>
</mgrwt>
</event>
<event>
12    3  0.4688899E-008  0.2033390E+04  0.7818608E-02  0.8591167E-01
         -2   -1    0    0    0  501 -0.00000000000E+00  0.00000000000E+00  0.54703405430E+03  0.54703405430E+03  0.00000000000E+00 0. -1.
          2   -1    0    0  501    0  0.00000000000E+00 -0.00000000000E+00 -0.18895866507E+04  0.18895866507E+04  0.00000000000E+00 0.  1.
         23    2    1    2    0    0  0.76957542418E+03  0.32756831842E+02 -0.21283718187E+03  0.80419902773E+03  0.90094765037E+02 0.  0.
        254    2    1    2    0    0 -0.76957542418E+03 -0.32756831842E+02 -0.11297154146E+04  0.16324216773E+04  0.89175348114E+03 0.  0.
         23    2    4    4    0    0  0.58346760206E+02 -0.28577059542E+03 -0.24930374445E+03  0.39428167528E+03  0.90755191795E+02 0.  0.
         23    2    4    4    0    0 -0.82792218439E+03  0.25301376357E+03 -0.88041167012E+03  0.12381400020E+04  0.91623401979E+02 0.  0.
          2    1    3    3  502    0  0.56132181493E+03  0.63133296473E+02 -0.16325917648E+03  0.58798091103E+03  0.00000000000E+00 0. -1.
         -2    1    3    3    0  502  0.20825360925E+03 -0.30376464631E+02 -0.49578005396E+02  0.21621811670E+03  0.00000000000E+00 0.  1.
         13    1    5    5    0    0  0.45706794314E+02 -0.15381189825E+03 -0.80122627057E+02  0.17935118192E+03  0.00000000000E+00 0. -1.
        -13    1    5    5    0    0  0.12639965892E+02 -0.13195869716E+03 -0.16918111739E+03  0.21493049336E+03  0.00000000000E+00 0.  1.
          1    1    6    6  503    0 -0.12109943401E+03  0.10012023819E+02 -0.15048518386E+03  0.19341950289E+03  0.00000000000E+00 0. -1.
         -1    1    6    6    0  503 -0.70682275038E+03  0.24300173975E+03 -0.72992648626E+03  0.10447204991E+04  0.00000000000E+00 0.  1.
<mgrwt>
<rscale>  0 0.20333895E+04</rscale>
<asrwt>0</asrwt>
<pdfrwt beam="1">  1        2 0.29070564E+00 0.20333895E+04</pdfrwt>
<pdfrwt beam="2">  1       -2 0.84159085E-01 0.20333895E+04</pdfrwt>
<totfact> 0.87870797E+00</totfact>
</mgrwt>
</event>
<event>
12    3  0.4688899E-008  0.3436512E+04  0.7818608E-02  0.8129003E-01
         -3   -1    0    0    0  501 -0.00000000000E+00  0.00000000000E+00  0.11472372576E+04  0.11472372576E+04  0.00000000000E+00 0.  1.
          3   -1    0    0  501    0  0.00000000000E+00 -0.00000000000E+00 -0.25734895736E+04  0.25734895736E+04  0.00000000000E+00 0. -1.
         23    2    1    2    0    0  0.10959748491E+04 -0.72452923699E+03 -0.16495088278E+04  0.21109305597E+04  0.95105045699E+02 0.  0.
        254    2    1    2    0    0 -0.10959748491E+04  0.72452923699E+03  0.22325651171E+03  0.16097962716E+04  0.90304876997E+03 0.  0.
         23    2    4    4    0    0 -0.65895846920E+03  0.59225051597E+02 -0.20898457536E+03  0.69984420903E+03  0.91506793758E+02 0.  0.
         23    2    4    4    0    0 -0.43701637989E+03  0.66530418539E+03  0.43224108708E+03  0.90995206257E+03  0.86990938765E+02 0.  0.
          2    1    3    3  502    0  0.38148316382E+03 -0.22194575272E+03 -0.61417788477E+03  0.75630932533E+03  0.00000000000E+00 0.  1.
         -2    1    3    3    0  502  0.71449168527E+03 -0.50258348427E+03 -0.10353309430E+04  0.13546212343E+04  0.00000000000E+00 0. -1.
         13    1    5    5    0    0 -0.34590401760E+03 -0.13219631247E+00 -0.14384930555E+03  0.37462278304E+03  0.00000000000E+00 0. -1.
        -13    1    5    5    0    0 -0.31305445161E+03  0.59357247909E+02 -0.65135269811E+02  0.32522142599E+03  0.00000000000E+00 0.  1.
          2    1    6    6  503    0 -0.25931257523E+03  0.46848874696E+03  0.28226619502E+03  0.60530894802E+03  0.00000000000E+00 0. -1.
         -2    1    6    6    0  503 -0.17770380466E+03  0.19681543842E+03  0.14997489206E+03  0.30464311455E+03  0.00000000000E+00 0.  1.
<mgrwt>
<rscale>  0 0.34365117E+04</rscale>
<asrwt>0</asrwt>
<pdfrwt beam="1">  1        3 0.39592147E+00 0.34365117E+04</pdfrwt>
<pdfrwt beam="2">  1       -3 0.17649804E+00 0.34365117E+04</pdfrwt>
<totfact> 0.52161002E-03</totfact>
</mgrwt>
</event>
