<event>
12    1  0.1496989E-007  0.1849399E+04  0.7818608E-02  0.8680462E-01
         -1   -1    0    0    0  501 -0.00000000000E+00  0.00000000000E+00  0.30066958203E+03  0.30066958203E+03  0.00000000000E+00 0.  1.
          1   -1    0    0  501    0  0.00000000000E+00 -0.00000000000E+00 -0.28438839899E+04  0.28438839899E+04  0.00000000000E+00 0. -1.
         23    2    1    2    0    0  0.42246082136E+03 -0.49734493152E+03 -0.14437561646E+04  0.15872310559E+04  0.95107494106E+02 0.  0.
        254    2    1    2    0    0 -0.42246082136E+03  0.49734493152E+03 -0.10994582433E+04  0.15573225161E+04  0.88916807401E+03 0.  0.
        -24    2    4    4    0    0 -0.52273624571E+03  0.50178025212E+03 -0.11944416473E+04  0.13996114245E+04  0.84762531520E+02 0.  0.
         24    2    4    4    0    0  0.10027542435E+03 -0.44353205944E+01  0.94983403996E+02  0.15771109160E+03  0.76000714346E+02 0.  0.
         11    1    3    3    0    0  0.69648661262E+02 -0.38870292798E+02 -0.20785809355E+03  0.22263607688E+03  0.00000000000E+00 0.  1.
        -11    1    3    3    0    0  0.35281216010E+03 -0.45847463872E+03 -0.12358980710E+04  0.13645949790E+04  0.00000000000E+00 0. -1.
          4    1    6    6  502    0  0.96494092928E+02  0.69066018987E+00  0.10701554292E+03  0.14409688896E+03  0.00000000000E+00 0. -1.
          3    1    5    5  503    0 -0.29732141533E+03  0.22998789789E+03 -0.64273704118E+03  0.74458401896E+03  0.00000000000E+00 0. -1.
         -4    1    5    5    0  503 -0.22541483038E+03  0.27179235422E+03 -0.55170460613E+03  0.65502740553E+03  0.00000000000E+00 0.  1.
         -3    1    6    6    0  502  0.37813314209E+01 -0.51259807843E+01 -0.12032138925E+02  0.13614202637E+02  0.00000000000E+00 0.  1.
<mgrwt>
<rscale>  0 0.18493993E+04</rscale>
<asrwt>0</asrwt>
<pdfrwt beam="1">  1        1 0.43752064E+00 0.18493993E+04</pdfrwt>
<pdfrwt beam="2">  1       -1 0.46256856E-01 0.18493993E+04</pdfrwt>
<totfact> 0.33951512E+00</totfact>
</mgrwt>
</event>
<event>
12    1  0.1496989E-007  0.2100636E+04  0.7818608E-02  0.8560963E-01
         -2   -1    0    0    0  501 -0.00000000000E+00  0.00000000000E+00  0.60787160279E+03  0.60787160279E+03  0.00000000000E+00 0. -1.
          2   -1    0    0  501    0  0.00000000000E+00 -0.00000000000E+00 -0.18148046373E+04  0.18148046373E+04  0.00000000000E+00 0.  1.
         23    2    1    2    0    0 -0.50580398096E+03 -0.63780621440E+03 -0.21316659613E+03  0.84676083767E+03  0.94495948169E+02 0.  0.
        254    2    1    2    0    0  0.50580398096E+03  0.63780621440E+03 -0.99376643833E+03  0.15759154024E+04  0.91285441732E+03 0.  0.
        -24    2    4    4    0    0  0.59476900723E+03  0.64508921596E+03 -0.39687191453E+03  0.96644616641E+03  0.81367115696E+02 0.  0.
         24    2    4    4    0    0 -0.88965026275E+02 -0.72830015611E+01 -0.59689452380E+03  0.60946923597E+03  0.84863767502E+02 0.  0.
         13    1    3    3    0    0 -0.32569634524E+03 -0.45422468223E+03 -0.10992389781E+03  0.56963271901E+03  0.00000000000E+00 0. -1.
        -13    1    3    3    0    0 -0.18010763571E+03 -0.18358153217E+03 -0.10324269832E+03  0.27712811866E+03  0.00000000000E+00 0.  1.
          2    1    6    6  502    0 -0.70924495059E+02 -0.42452647415E+02 -0.43805820235E+03  0.44578862695E+03  0.00000000000E+00 0. -1.
          1    1    5    5  503    0  0.55648502423E+03  0.62762731490E+03 -0.38331856522E+03  0.92223898803E+03  0.00000000000E+00 0. -1.
         -2    1    5    5    0  503  0.38283982996E+02  0.17461901064E+02 -0.13553349310E+02  0.44207178381E+02  0.00000000000E+00 0.  1.
         -1    1    6    6    0  502 -0.18040531216E+02  0.35169645854E+02 -0.15883632145E+03  0.16368060902E+03  0.00000000000E+00 0.  1.
<mgrwt>
<rscale>  0 0.21006363E+04</rscale>
<asrwt>0</asrwt>
<pdfrwt beam="1">  1        2 0.27920071E+00 0.21006363E+04</pdfrwt>
<pdfrwt beam="2">  1       -2 0.93518709E-01 0.21006363E+04</pdfrwt>
<totfact> 0.75434715E+00</totfact>
</mgrwt>
</event>
<event>
12    1  0.1904114E-007  0.1816172E+04  0.7818608E-02  0.8697746E-01
         -2   -1    0    0    0  501 -0.00000000000E+00  0.00000000000E+00  0.38805035189E+03  0.38805035189E+03  0.00000000000E+00 0.  1.
          2   -1    0    0  501    0  0.00000000000E+00 -0.00000000000E+00 -0.21250341494E+04  0.21250341494E+04  0.00000000000E+00 0. -1.
         23    2    1    2    0    0 -0.12612235235E+03 -0.49250475966E+03 -0.12890372344E+04  0.13886362784E+04  0.90696946250E+02 0.  0.
        254    2    1    2    0    0  0.12612235235E+03  0.49250475966E+03 -0.44794656314E+03  0.11244482229E+04  0.89736274521E+03 0.  0.
        -24    2    4    4    0    0  0.29862534318E+03  0.46633971862E+03  0.77369572559E+02  0.56489654819E+03  0.80450174952E+02 0.  0.
         24    2    4    4    0    0 -0.17250299083E+03  0.26165041037E+02 -0.52531613570E+03  0.55955167470E+03  0.81848292685E+02 0.  0.
         11    1    3    3    0    0 -0.11194505315E+03 -0.42653035696E+03 -0.11873678622E+04  0.12666105481E+04  0.00000000000E+00 0. -1.
        -11    1    3    3    0    0 -0.14177299203E+02 -0.65974402700E+02 -0.10166937223E+03  0.12202573038E+03  0.00000000000E+00 0.  1.
          2    1    6    6  502    0 -0.31925314940E+01 -0.17301250294E+02 -0.58169329495E+02  0.60771674430E+02  0.00000000000E+00 0. -1.
          1    1    5    5  503    0  0.40175666364E+02  0.12429189606E+03  0.11106657201E+02  0.13109507019E+03  0.00000000000E+00 0. -1.
         -4    1    5    5    0  503  0.25844967682E+03  0.34204782255E+03  0.66262915358E+02  0.43380147800E+03  0.00000000000E+00 0.  1.
         -1    1    6    6    0  502 -0.16931045933E+03  0.43466291331E+02 -0.46714680620E+03  0.49878000027E+03  0.00000000000E+00 0.  1.
<mgrwt>
<rscale>  0 0.18161721E+04</rscale>
<asrwt>0</asrwt>
<pdfrwt beam="1">  1        2 0.32692833E+00 0.18161721E+04</pdfrwt>
<pdfrwt beam="2">  1       -2 0.59700054E-01 0.18161721E+04</pdfrwt>
<totfact> 0.14042942E+01</totfact>
</mgrwt>
</event>
<event>
12    1  0.1496989E-007  0.1274188E+04  0.7818608E-02  0.9050289E-01
          2   -1    0    0  501    0  0.00000000000E+00  0.00000000000E+00  0.14278246040E+04  0.14278246040E+04  0.00000000000E+00 0.  1.
         -2   -1    0    0    0  501 -0.00000000000E+00 -0.00000000000E+00 -0.28427056646E+03  0.28427056646E+03  0.00000000000E+00 0. -1.
         23    2    1    2    0    0  0.16763595208E+03 -0.16476921865E+03  0.17568733223E+02  0.25290125284E+03  0.91649743350E+02 0.  0.
        254    2    1    2    0    0 -0.16763595208E+03  0.16476921865E+03  0.11259853043E+04  0.14591939176E+04  0.89786038771E+03 0.  0.
        -24    2    4    4    0    0  0.52113655483E+01  0.34067338485E+03  0.11468994999E+04  0.11990714325E+04  0.79424957759E+02 0.  0.
         24    2    4    4    0    0 -0.17284731763E+03 -0.17590416620E+03 -0.20914195606E+02  0.26012248508E+03  0.80048939861E+02 0.  0.
         11    1    3    3    0    0  0.11459089546E+03 -0.16247520003E+03  0.82175654445E+01  0.19898942768E+03  0.00000000000E+00 0. -1.
        -11    1    3    3    0    0  0.53045056618E+02 -0.22940186222E+01  0.93511677782E+01  0.53911825158E+02  0.00000000000E+00 0.  1.
          4    1    6    6  502    0 -0.45008308955E+02 -0.91587158980E+02  0.14131545769E+02  0.10302260019E+03  0.00000000000E+00 0. -1.
          3    1    5    5  503    0 -0.31869965659E+02  0.10282965945E+03  0.30538074624E+03  0.32380091685E+03  0.00000000000E+00 0. -1.
         -4    1    5    5    0  503  0.37081331207E+02  0.23784372539E+03  0.84151875366E+03  0.87527051567E+03  0.00000000000E+00 0.  1.
         -3    1    6    6    0  502 -0.12783900867E+03 -0.84317007217E+02 -0.35045741375E+02  0.15709988489E+03  0.00000000000E+00 0.  1.
<mgrwt>
<rscale>  0 0.12741876E+04</rscale>
<asrwt>0</asrwt>
<pdfrwt beam="1">  1        2 0.21966532E+00 0.12741876E+04</pdfrwt>
<pdfrwt beam="2">  1       -2 0.43733934E-01 0.12741876E+04</pdfrwt>
<totfact> 0.67882469E+01</totfact>
</mgrwt>
</event>
<event>
12    1  0.1496989E-007  0.3279356E+04  0.7818608E-02  0.8168168E-01
          1   -1    0    0  501    0  0.00000000000E+00  0.00000000000E+00  0.27881420633E+04  0.27881420633E+04  0.00000000000E+00 0. -1.
         -1   -1    0    0    0  501 -0.00000000000E+00 -0.00000000000E+00 -0.96427784260E+03  0.96427784260E+03  0.00000000000E+00 0.  1.
         23    2    1    2    0    0  0.16436031539E+03 -0.13199097321E+04  0.16835493365E+04  0.21475026676E+04  0.90847810242E+02 0.  0.
        254    2    1    2    0    0 -0.16436031539E+03  0.13199097321E+04  0.14031488417E+03  0.16049172383E+04  0.88707105746E+03 0.  0.
        -24    2    4    4    0    0  0.32641851803E+03  0.52625123836E+03  0.22675059384E+03  0.66440140824E+03  0.80771187180E+02 0.  0.
         24    2    4    4    0    0 -0.49077883342E+03  0.79365849373E+03 -0.86435709665E+02  0.94051583007E+03  0.79631819717E+02 0.  0.
         13    1    3    3    0    0  0.39181403157E+00 -0.10831155430E+03  0.17359351542E+03  0.20461245052E+03  0.00000000000E+00 0.  1.
        -13    1    3    3    0    0  0.16396850136E+03 -0.12115981778E+04  0.15099558211E+04  0.19428902170E+04  0.00000000000E+00 0. -1.
          2    1    6    6  502    0 -0.43901216776E+03  0.66466508052E+03 -0.58214324762E+02  0.79868658453E+03  0.00000000000E+00 0. -1.
          1    1    5    5  503    0  0.26047030853E+03  0.35971855094E+03  0.14217026962E+03  0.46632027950E+03  0.00000000000E+00 0. -1.
         -2    1    5    5    0  503  0.65948209505E+02  0.16653268742E+03  0.84580324224E+02  0.19808112874E+03  0.00000000000E+00 0.  1.
         -1    1    6    6    0  502 -0.51766665662E+02  0.12899341321E+03 -0.28221384903E+02  0.14182924555E+03  0.00000000000E+00 0.  1.
<mgrwt>
<rscale>  0 0.32793558E+04</rscale>
<asrwt>0</asrwt>
<pdfrwt beam="1">  1        1 0.42894493E+00 0.32793558E+04</pdfrwt>
<pdfrwt beam="2">  1       -1 0.14835044E+00 0.32793558E+04</pdfrwt>
<totfact> 0.25369690E-01</totfact>
</mgrwt>
</event>
<event>
12    1  0.2607479E-007  0.2068937E+04  0.7818608E-02  0.8575052E-01
         -2   -1    0    0    0  501 -0.00000000000E+00  0.00000000000E+00  0.77628090709E+03  0.77628090709E+03  0.00000000000E+00 0. -1.
          2   -1    0    0  501    0  0.00000000000E+00 -0.00000000000E+00 -0.13785285786E+04  0.13785285786E+04  0.00000000000E+00 0.  1.
         23    2    1    2    0    0 -0.78972721379E+03 -0.26759200792E+03 -0.15175306327E+03  0.85082725275E+03  0.74856308398E+02 0.  0.
        254    2    1    2    0    0  0.78972721379E+03  0.26759200792E+03 -0.45049460825E+03  0.13039822330E+04  0.89562811306E+03 0.  0.
        -24    2    4    4    0    0  0.75720718176E+03  0.31918931118E+03 -0.66995768509E+03  0.10633783927E+04  0.81766581111E+02 0.  0.
         24    2    4    4    0    0  0.32520032032E+02 -0.51597303257E+02  0.21946307684E+03  0.24060384025E+03  0.77500526850E+02 0.  0.
         11    1    3    3    0    0 -0.68870687442E+03 -0.23121041605E+03 -0.15728528649E+03  0.74331290633E+03  0.00000000000E+00 0.  1.
        -11    1    3    3    0    0 -0.10102033937E+03 -0.36381591870E+02  0.55322232184E+01  0.10751434643E+03  0.00000000000E+00 0. -1.
          2    1    6    6  502    0  0.44842974299E+02 -0.48354108825E+02  0.21802496381E+03  0.22778037016E+03  0.00000000000E+00 0. -1.
          3    1    5    5  503    0  0.52474033210E+03  0.23120451980E+03 -0.51306649198E+03  0.76944471620E+03  0.00000000000E+00 0. -1.
         -4    1    5    5    0  503  0.23246684967E+03  0.87984791376E+02 -0.15689119311E+03  0.29393367650E+03  0.00000000000E+00 0.  1.
         -1    1    6    6    0  502 -0.12322942267E+02 -0.32431944321E+01  0.14381130298E+01  0.12823470097E+02  0.00000000000E+00 0.  1.
<mgrwt>
<rscale>  0 0.20689373E+04</rscale>
<asrwt>0</asrwt>
<pdfrwt beam="1">  1        2 0.21208132E+00 0.20689373E+04</pdfrwt>
<pdfrwt beam="2">  1       -2 0.11942783E+00 0.20689373E+04</pdfrwt>
<totfact> 0.73920658E+00</totfact>
</mgrwt>
</event>
<event>
12    1  0.1564097E-007  0.2826787E+04  0.7818608E-02  0.8295000E-01
          1   -1    0    0  501    0  0.00000000000E+00  0.00000000000E+00  0.24413286506E+04  0.24413286506E+04  0.00000000000E+00 0.  1.
         -1   -1    0    0    0  501 -0.00000000000E+00 -0.00000000000E+00 -0.81827607432E+03  0.81827607432E+03  0.00000000000E+00 0. -1.
         23    2    1    2    0    0  0.38302859405E+03  0.11197150615E+04  0.19671013315E+03  0.12031171613E+04  0.91232146950E+02 0.  0.
        254    2    1    2    0    0 -0.38302859405E+03 -0.11197150615E+04  0.14263424431E+04  0.20564875636E+04  0.89118775323E+03 0.  0.
        -24    2    4    4    0    0 -0.64942714971E+03 -0.90942001780E+03  0.11971876799E+04  0.16392979216E+04  0.72380545335E+02 0.  0.
         24    2    4    4    0    0  0.26639855565E+03 -0.21029504366E+03  0.22915476327E+03  0.41718964203E+03  0.79643556230E+02 0.  0.
         11    1    3    3    0    0  0.19268077500E+03  0.56757832916E+03  0.14583734556E+03  0.61687889585E+03  0.00000000000E+00 0. -1.
        -11    1    3    3    0    0  0.19034781905E+03  0.55213673230E+03  0.50872787587E+02  0.58623826546E+03  0.00000000000E+00 0.  1.
          4    1    6    6  502    0  0.16390317648E+03 -0.11282566367E+03  0.88696027800E+02  0.21785515140E+03  0.00000000000E+00 0. -1.
          3    1    5    5  503    0 -0.48935353921E+03 -0.70177143081E+03  0.95783935294E+03  0.12842921216E+04  0.00000000000E+00 0. -1.
         -4    1    5    5    0  503 -0.16007361050E+03 -0.20764858699E+03  0.23934832693E+03  0.35500580004E+03  0.00000000000E+00 0.  1.
         -3    1    6    6    0  502  0.10249537918E+03 -0.97469379985E+02  0.14045873547E+03  0.19933449064E+03  0.00000000000E+00 0.  1.
<mgrwt>
<rscale>  0 0.28267867E+04</rscale>
<asrwt>0</asrwt>
<pdfrwt beam="1">  1        1 0.37558902E+00 0.28267867E+04</pdfrwt>
<pdfrwt beam="2">  1       -1 0.12588863E+00 0.28267867E+04</pdfrwt>
<totfact> 0.70622525E-01</totfact>
</mgrwt>
</event>
<event>
12    1  0.1496989E-007  0.1772714E+04  0.7818608E-02  0.8720946E-01
         -2   -1    0    0    0  501 -0.00000000000E+00  0.00000000000E+00  0.81703596517E+03  0.81703596517E+03  0.00000000000E+00 0.  1.
          2   -1    0    0  501    0  0.00000000000E+00 -0.00000000000E+00 -0.96155966030E+03  0.96155966030E+03  0.00000000000E+00 0. -1.
         23    2    1    2    0    0 -0.72136258154E+02  0.52486708514E+03 -0.44317299770E+03  0.69679410940E+03  0.91818452398E+02 0.  0.
        254    2    1    2    0    0  0.72136258154E+02 -0.52486708514E+03  0.29864930258E+03  0.10818015161E+04  0.89465860384E+03 0.  0.
        -24    2    4    4    0    0 -0.30801808113E+03 -0.45307347422E+03 -0.48082557568E+02  0.55602338627E+03  0.81849632811E+02 0.  0.
         24    2    4    4    0    0  0.38015433928E+03 -0.71793610923E+02  0.34673186014E+03  0.52577812979E+03  0.80919804046E+02 0.  0.
         13    1    3    3    0    0 -0.65950196829E+02  0.32227516434E+03 -0.32372844650E+03  0.46153094922E+03  0.00000000000E+00 0. -1.
        -13    1    3    3    0    0 -0.61860613255E+01  0.20259192080E+03 -0.11944455120E+03  0.23526316019E+03  0.00000000000E+00 0.  1.
          2    1    6    6  502    0  0.25314083090E+02  0.97423913403E+01  0.46655764190E+02  0.53967372771E+02  0.00000000000E+00 0. -1.
          1    1    5    5  503    0 -0.84214673872E+01 -0.53743044971E+02  0.87798454416E+00  0.54405945012E+02  0.00000000000E+00 0. -1.
         -2    1    5    5    0  503 -0.29959661374E+03 -0.39933042925E+03 -0.48960542112E+02  0.50161744126E+03  0.00000000000E+00 0.  1.
         -1    1    6    6    0  502  0.35484025619E+03 -0.81536002263E+02  0.30007609595E+03  0.47181075702E+03  0.00000000000E+00 0.  1.
<mgrwt>
<rscale>  0 0.17727141E+04</rscale>
<asrwt>0</asrwt>
<pdfrwt beam="1">  1        2 0.14793225E+00 0.17727141E+04</pdfrwt>
<pdfrwt beam="2">  1       -2 0.12569784E+00 0.17727141E+04</pdfrwt>
<totfact> 0.11934614E+01</totfact>
</mgrwt>
</event>
<event>
12    1  0.1538484E-007  0.2865038E+04  0.7818608E-02  0.8283356E-01
         -2   -1    0    0    0  501 -0.00000000000E+00  0.00000000000E+00  0.68174062733E+03  0.68174062733E+03  0.00000000000E+00 0.  1.
          2   -1    0    0  501    0  0.00000000000E+00 -0.00000000000E+00 -0.30101046359E+04  0.30101046359E+04  0.00000000000E+00 0. -1.
         23    2    1    2    0    0 -0.45501595872E+02 -0.12971352658E+03  0.60062752139E+03  0.62329702818E+03  0.94073225128E+02 0.  0.
        254    2    1    2    0    0  0.45501595872E+02  0.12971352658E+03 -0.29289915300E+04  0.30685482351E+04  0.90448930017E+03 0.  0.
        -24    2    4    4    0    0  0.37866270586E+03 -0.11564713645E+03 -0.77686542024E+03  0.87559336575E+03  0.79900913646E+02 0.  0.
         24    2    4    4    0    0 -0.33316110999E+03  0.24536066303E+03 -0.21521261097E+04  0.21929548693E+04  0.78778718712E+02 0.  0.
         13    1    3    3    0    0  0.19068225584E+02 -0.85102718860E+02  0.28409521754E+03  0.29718035368E+03  0.00000000000E+00 0. -1.
        -13    1    3    3    0    0 -0.64569821455E+02 -0.44610807717E+02  0.31653230384E+03  0.32611667450E+03  0.00000000000E+00 0.  1.
          4    1    6    6  502    0 -0.98516211479E+00 -0.50778344525E+01 -0.28629017980E+02  0.29092535427E+02  0.00000000000E+00 0. -1.
          1    1    5    5  503    0  0.38337216718E+02 -0.36327068446E+02 -0.77509045813E+02  0.93792591767E+02  0.00000000000E+00 0. -1.
         -2    1    5    5    0  503  0.34032548914E+03 -0.79320068008E+02 -0.69935637443E+03  0.78180077398E+03  0.00000000000E+00 0.  1.
         -3    1    6    6    0  502 -0.33217594787E+03  0.25043849748E+03 -0.21234970918E+04  0.21638623339E+04  0.00000000000E+00 0.  1.
<mgrwt>
<rscale>  0 0.28650380E+04</rscale>
<asrwt>0</asrwt>
<pdfrwt beam="1">  1        2 0.46309304E+00 0.28650380E+04</pdfrwt>
<pdfrwt beam="2">  1       -2 0.10488317E+00 0.28650380E+04</pdfrwt>
<totfact> 0.10941152E+00</totfact>
</mgrwt>
</event>
<event>
12    1  0.1496989E-007  0.3204003E+04  0.7818608E-02  0.8187761E-01
          1   -1    0    0  501    0  0.00000000000E+00  0.00000000000E+00  0.31097143280E+04  0.31097143280E+04  0.00000000000E+00 0. -1.
         -1   -1    0    0    0  501 -0.00000000000E+00 -0.00000000000E+00 -0.82528783388E+03  0.82528783388E+03  0.00000000000E+00 0.  1.
         23    2    1    2    0    0  0.60421692035E+03 -0.11006549901E+04  0.11815612453E+03  0.12645602289E+04  0.92909680067E+02 0.  0.
        254    2    1    2    0    0 -0.60421692035E+03  0.11006549901E+04  0.21662703696E+04  0.26704419329E+04  0.92844671849E+03 0.  0.
        -24    2    4    4    0    0 -0.49552092354E+03  0.54753163235E+02  0.62794781175E+03  0.80558568324E+03  0.78172528429E+02 0.  0.
         24    2    4    4    0    0 -0.10869599681E+03  0.10459018269E+04  0.15383225578E+04  0.18648562497E+04  0.74344394535E+02 0.  0.
         11    1    3    3    0    0  0.45159133253E+03 -0.77248248929E+03  0.11866198193E+03  0.90263203679E+03  0.00000000000E+00 0. -1.
        -11    1    3    3    0    0  0.15262558782E+03 -0.32817250083E+03 -0.50585740438E+00  0.36192819212E+03  0.00000000000E+00 0.  1.
          2    1    6    6  502    0 -0.47181450039E+01  0.28146754560E+03  0.37302160486E+03  0.46732361144E+03  0.00000000000E+00 0. -1.
          1    1    5    5  503    0 -0.35759094294E+03  0.55541137409E+02  0.50173820451E+03  0.61862535212E+03  0.00000000000E+00 0. -1.
         -2    1    5    5    0  503 -0.13792998060E+03 -0.78797417348E+00  0.12620960724E+03  0.18696033112E+03  0.00000000000E+00 0.  1.
         -1    1    6    6    0  502 -0.10397785181E+03  0.76443428129E+03  0.11653009530E+04  0.13975326383E+04  0.00000000000E+00 0.  1.
<mgrwt>
<rscale>  0 0.32040034E+04</rscale>
<asrwt>0</asrwt>
<pdfrwt beam="1">  1        1 0.47841758E+00 0.32040034E+04</pdfrwt>
<pdfrwt beam="2">  1       -1 0.12696736E+00 0.32040034E+04</pdfrwt>
<totfact> 0.22322264E-01</totfact>
</mgrwt>
</event>
<event>
12    1  0.1496989E-007  0.1537156E+04  0.7818608E-02  0.8860114E-01
         -2   -1    0    0    0  501 -0.00000000000E+00  0.00000000000E+00  0.41046723706E+03  0.41046723706E+03  0.00000000000E+00 0.  1.
          2   -1    0    0  501    0  0.00000000000E+00 -0.00000000000E+00 -0.14391217887E+04  0.14391217887E+04  0.00000000000E+00 0. -1.
         23    2    1    2    0    0 -0.68248849387E+02  0.21648481729E+03  0.19004890421E+03  0.30986204106E+03  0.91500365775E+02 0.  0.
        254    2    1    2    0    0  0.68248849387E+02 -0.21648481729E+03 -0.12187034559E+04  0.15397269847E+04  0.91323463171E+03 0.  0.
        -24    2    4    4    0    0  0.32827911284E+03 -0.49672953408E+02 -0.71426481992E+02  0.34870709604E+03  0.79122173067E+02 0.  0.
         24    2    4    4    0    0 -0.26003026346E+03 -0.16681186388E+03 -0.11472769739E+04  0.11910198887E+04  0.82716289670E+02 0.  0.
         13    1    3    3    0    0 -0.49515323278E+02  0.21993430883E+03  0.17132669759E+03  0.28315314716E+03  0.00000000000E+00 0.  1.
        -13    1    3    3    0    0 -0.18733526109E+02 -0.34494915416E+01  0.18722206622E+02  0.26708893897E+02  0.00000000000E+00 0. -1.
          2    1    6    6  502    0 -0.20748505884E+03 -0.95866431308E+02 -0.75011788554E+03  0.78416660506E+03  0.00000000000E+00 0. -1.
          1    1    5    5  503    0  0.22388651487E+03 -0.29790310472E+02 -0.85518082638E+02  0.24150771540E+03  0.00000000000E+00 0. -1.
         -2    1    5    5    0  503  0.10439259797E+03 -0.19882642936E+02  0.14091600646E+02  0.10719938064E+03  0.00000000000E+00 0.  1.
         -1    1    6    6    0  502 -0.52545204614E+02 -0.70945432574E+02 -0.39715908834E+03  0.40685328361E+03  0.00000000000E+00 0.  1.
<mgrwt>
<rscale>  0 0.15371563E+04</rscale>
<asrwt>0</asrwt>
<pdfrwt beam="1">  1        2 0.22140335E+00 0.15371563E+04</pdfrwt>
<pdfrwt beam="2">  1       -2 0.63148807E-01 0.15371563E+04</pdfrwt>
<totfact> 0.30758139E+01</totfact>
</mgrwt>
</event>
<event>
12    1  0.1496989E-007  0.1631202E+04  0.7818608E-02  0.8801606E-01
          4   -1    0    0  501    0  0.00000000000E+00  0.00000000000E+00  0.62835662647E+03  0.62835662647E+03  0.00000000000E+00 0. -1.
         -4   -1    0    0    0  501 -0.00000000000E+00 -0.00000000000E+00 -0.10586419532E+04  0.10586419532E+04  0.00000000000E+00 0.  1.
         23    2    1    2    0    0 -0.20157877467E+03 -0.47285822915E+03 -0.38768072744E+03  0.65027342315E+03  0.91270319163E+02 0.  0.
        254    2    1    2    0    0  0.20157877467E+03  0.47285822915E+03 -0.42604599334E+02  0.10367251566E+04  0.89930806240E+03 0.  0.
        -24    2    4    4    0    0  0.18728806548E+03  0.59431020294E+03  0.27537007149E+03  0.68691602435E+03  0.87997224104E+02 0.  0.
         24    2    4    4    0    0  0.14290709196E+02 -0.12145197379E+03 -0.31797467082E+03  0.34980913222E+03  0.79396041409E+02 0.  0.
         13    1    3    3    0    0 -0.12347511870E+03 -0.38501445376E+03 -0.30776496425E+03  0.50813532426E+03  0.00000000000E+00 0.  1.
        -13    1    3    3    0    0 -0.78103655969E+02 -0.87843775385E+02 -0.79915763188E+02  0.14213809889E+03  0.00000000000E+00 0. -1.
          2    1    6    6  502    0 -0.13781048553E+02 -0.29246061530E+02 -0.23518757823E+02  0.39979762178E+02  0.00000000000E+00 0. -1.
          3    1    5    5  503    0 -0.50648095096E+01  0.78309040916E+02  0.39264661150E+02  0.87747773759E+02  0.00000000000E+00 0. -1.
         -4    1    5    5    0  503  0.19235287499E+03  0.51600116202E+03  0.23610541034E+03  0.59916825059E+03  0.00000000000E+00 0.  1.
         -1    1    6    6    0  502  0.28071757749E+02 -0.92205912257E+02 -0.29445591300E+03  0.30982937004E+03  0.00000000000E+00 0.  1.
<mgrwt>
<rscale>  0 0.16312016E+04</rscale>
<asrwt>0</asrwt>
<pdfrwt beam="1">  1        4 0.96670250E-01 0.16312016E+04</pdfrwt>
<pdfrwt beam="2">  1       -4 0.16286799E+00 0.16312016E+04</pdfrwt>
<totfact> 0.40799516E-01</totfact>
</mgrwt>
</event>
<event>
12    1  0.1496989E-007  0.1114680E+04  0.7818608E-02  0.9191001E-01
         -2   -1    0    0    0  501 -0.00000000000E+00  0.00000000000E+00  0.28418810483E+03  0.28418810483E+03  0.00000000000E+00 0.  1.
          2   -1    0    0  501    0  0.00000000000E+00 -0.00000000000E+00 -0.10930357512E+04  0.10930357512E+04  0.00000000000E+00 0. -1.
         23    2    1    2    0    0 -0.18524622094E+03 -0.28409222549E+02 -0.11600261699E+03  0.23839935116E+03  0.90853713132E+02 0.  0.
        254    2    1    2    0    0  0.18524622094E+03  0.28409222549E+02 -0.69284502934E+03  0.11388245048E+04  0.88417406195E+03 0.  0.
        -24    2    4    4    0    0  0.15771635543E+01  0.38897645379E+02 -0.86733710900E+03  0.87180768012E+03  0.79116725234E+02 0.  0.
         24    2    4    4    0    0  0.18366905738E+03 -0.10488422829E+02  0.17449207966E+03  0.26701682470E+03  0.83702862299E+02 0.  0.
         13    1    3    3    0    0 -0.13856477769E+03 -0.50453715701E+02 -0.11459403425E+03  0.18675536868E+03  0.00000000000E+00 0. -1.
        -13    1    3    3    0    0 -0.46681443244E+02  0.22044493152E+02 -0.14085827425E+01  0.51643982486E+02  0.00000000000E+00 0.  1.
          4    1    6    6  502    0  0.49866600151E+01 -0.17902402898E+02  0.37111530491E+02  0.41504560027E+02  0.00000000000E+00 0. -1.
          1    1    5    5  503    0 -0.27029676987E+02  0.33953311576E+02 -0.24642954715E+03  0.25022180663E+03  0.00000000000E+00 0. -1.
         -2    1    5    5    0  503  0.28606840541E+02  0.49443338028E+01 -0.62090756185E+03  0.62158587349E+03  0.00000000000E+00 0.  1.
         -3    1    6    6    0  502  0.17868239737E+03  0.74139800686E+01  0.13738054917E+03  0.22551226468E+03  0.00000000000E+00 0.  1.
<mgrwt>
<rscale>  0 0.11146798E+04</rscale>
<asrwt>0</asrwt>
<pdfrwt beam="1">  1        2 0.16815934E+00 0.11146798E+04</pdfrwt>
<pdfrwt beam="2">  1       -2 0.43721248E-01 0.11146798E+04</pdfrwt>
<totfact> 0.10822023E+02</totfact>
</mgrwt>
</event>
<event>
12    1  0.1496989E-007  0.1253240E+04  0.7818608E-02  0.9067491E-01
         -2   -1    0    0    0  501 -0.00000000000E+00  0.00000000000E+00  0.33690771822E+03  0.33690771822E+03  0.00000000000E+00 0. -1.
          2   -1    0    0  501    0  0.00000000000E+00 -0.00000000000E+00 -0.11654602798E+04  0.11654602798E+04  0.00000000000E+00 0.  1.
         23    2    1    2    0    0 -0.16846324626E+03  0.23749844339E+03 -0.18325413122E+03  0.35549654632E+03  0.89500513347E+02 0.  0.
        254    2    1    2    0    0  0.16846324626E+03 -0.23749844339E+03 -0.64529843037E+03  0.11468714517E+04  0.90228525784E+03 0.  0.
        -24    2    4    4    0    0 -0.58689304439E+01  0.33228367468E+03 -0.28989279786E+03  0.44842705448E+03  0.81253333114E+02 0.  0.
         24    2    4    4    0    0  0.17433217670E+03 -0.56978211806E+03 -0.35540563251E+03  0.69844439721E+03  0.80424141109E+02 0.  0.
         11    1    3    3    0    0 -0.36308524763E+02  0.88837910526E+02 -0.19682314537E+02  0.97968754318E+02  0.00000000000E+00 0. -1.
        -11    1    3    3    0    0 -0.13215472149E+03  0.14866053286E+03 -0.16357181668E+03  0.25752779200E+03  0.00000000000E+00 0.  1.
          2    1    6    6  502    0 -0.86894254617E+01 -0.27498397972E+02 -0.14604615166E+02  0.32325884211E+02  0.00000000000E+00 0. -1.
          3    1    5    5  503    0 -0.25022711225E+02  0.54365812387E+02 -0.78564473444E+02  0.98763121260E+02  0.00000000000E+00 0. -1.
         -4    1    5    5    0  503  0.19153780781E+02  0.27791786229E+03 -0.21132832441E+03  0.34966393322E+03  0.00000000000E+00 0.  1.
         -1    1    6    6    0  502  0.18302160216E+03 -0.54228372009E+03 -0.34080101735E+03  0.66611851300E+03  0.00000000000E+00 0.  1.
<mgrwt>
<rscale>  0 0.12532399E+04</rscale>
<asrwt>0</asrwt>
<pdfrwt beam="1">  1        2 0.17930158E+00 0.12532399E+04</pdfrwt>
<pdfrwt beam="2">  1       -2 0.51831957E-01 0.12532399E+04</pdfrwt>
<totfact> 0.68661335E+01</totfact>
</mgrwt>
</event>
<event>
12    1  0.1496989E-007  0.1431227E+04  0.7818608E-02  0.8931520E-01
         -1   -1    0    0    0  501 -0.00000000000E+00  0.00000000000E+00  0.13308651359E+04  0.13308651359E+04  0.00000000000E+00 0.  1.
          1   -1    0    0  501    0  0.00000000000E+00 -0.00000000000E+00 -0.38478953065E+03  0.38478953065E+03  0.00000000000E+00 0. -1.
         23    2    1    2    0    0  0.46111116032E+02  0.37886595904E+03  0.49248287260E+03  0.63002267063E+03  0.93399870220E+02 0.  0.
        254    2    1    2    0    0 -0.46111116032E+02 -0.37886595904E+03  0.45359273266E+03  0.10856319959E+04  0.90949701128E+03 0.  0.
        -24    2    4    4    0    0 -0.66091076336E+02 -0.67146259088E+03  0.35196322378E+03  0.76508021620E+03  0.78991043824E+02 0.  0.
         24    2    4    4    0    0  0.19979960303E+02  0.29259663184E+03  0.10162950888E+03  0.32055177974E+03  0.80080575936E+02 0.  0.
         11    1    3    3    0    0 -0.27070750772E+02  0.60966347615E+02  0.82628461047E+02  0.10619408488E+03  0.00000000000E+00 0. -1.
        -11    1    3    3    0    0  0.73181866804E+02  0.31789961143E+03  0.40985441155E+03  0.52382858575E+03  0.00000000000E+00 0.  1.
          4    1    6    6  502    0  0.10364789438E+02  0.27382839087E+03  0.70493410663E+02  0.28294652755E+03  0.00000000000E+00 0. -1.
          3    1    5    5  503    0 -0.42150606344E+02 -0.58316543259E+03  0.32843607852E+03  0.67061826180E+03  0.00000000000E+00 0. -1.
         -4    1    5    5    0  503 -0.23940469991E+02 -0.88297158289E+02  0.23527145262E+02  0.94461954402E+02  0.00000000000E+00 0.  1.
         -3    1    6    6    0  502  0.96151708655E+01  0.18768240968E+02  0.31136098221E+02  0.37605252189E+02  0.00000000000E+00 0.  1.
<mgrwt>
<rscale>  0 0.14312274E+04</rscale>
<asrwt>0</asrwt>
<pdfrwt beam="1">  1        1 0.59198390E-01 0.14312274E+04</pdfrwt>
<pdfrwt beam="2">  1       -1 0.20474848E+00 0.14312274E+04</pdfrwt>
<totfact> 0.85781632E+00</totfact>
</mgrwt>
</event>
<event>
12    1  0.1496989E-007  0.1554033E+04  0.7818608E-02  0.8849296E-01
          2   -1    0    0  501    0  0.00000000000E+00  0.00000000000E+00  0.80993285670E+03  0.80993285670E+03  0.00000000000E+00 0. -1.
         -2   -1    0    0    0  501 -0.00000000000E+00 -0.00000000000E+00 -0.74543831693E+03  0.74543831693E+03  0.00000000000E+00 0.  1.
         23    2    1    2    0    0 -0.10434006929E+03  0.13585902743E+03  0.50569591100E+03  0.54226708998E+03  0.94766645363E+02 0.  0.
        254    2    1    2    0    0  0.10434006929E+03 -0.13585902743E+03 -0.44120137123E+03  0.10131040837E+04  0.89575482636E+03 0.  0.
        -24    2    4    4    0    0 -0.35130953318E+03 -0.58552567625E+02  0.60695363664E+01  0.36505477698E+03  0.79883412822E+02 0.  0.
         24    2    4    4    0    0  0.45564960247E+03 -0.77306459810E+02 -0.44727090760E+03  0.64804930667E+03  0.79522261890E+02 0.  0.
         13    1    3    3    0    0 -0.77167627309E+01  0.67305125240E+02  0.10973466688E+03  0.12896210849E+03  0.00000000000E+00 0.  1.
        -13    1    3    3    0    0 -0.96623306556E+02  0.68553902194E+02  0.39596124412E+03  0.41330498149E+03  0.00000000000E+00 0. -1.
          4    1    6    6  502    0  0.20331164617E+03 -0.51281058620E+02 -0.15321233805E+03  0.25969095666E+03  0.00000000000E+00 0. -1.
          1    1    5    5  503    0 -0.59255667010E+01 -0.21965194693E+01  0.13627616830E+02  0.15021617056E+02  0.00000000000E+00 0. -1.
         -2    1    5    5    0  503 -0.34538396648E+03 -0.56356048155E+02 -0.75580804640E+01  0.35003315992E+03  0.00000000000E+00 0.  1.
         -3    1    6    6    0  502  0.25233795629E+03 -0.26025401190E+02 -0.29405856956E+03  0.38835835001E+03  0.00000000000E+00 0.  1.
<mgrwt>
<rscale>  0 0.15540334E+04</rscale>
<asrwt>0</asrwt>
<pdfrwt beam="1">  1        2 0.12460506E+00 0.15540334E+04</pdfrwt>
<pdfrwt beam="2">  1       -2 0.11468282E+00 0.15540334E+04</pdfrwt>
<totfact> 0.19355996E+01</totfact>
</mgrwt>
</event>
<event>
12    1  0.1496989E-007  0.1328054E+04  0.7818608E-02  0.9007609E-01
          1   -1    0    0  501    0  0.00000000000E+00  0.00000000000E+00  0.12243195463E+04  0.12243195463E+04  0.00000000000E+00 0. -1.
         -1   -1    0    0    0  501 -0.00000000000E+00 -0.00000000000E+00 -0.36014462422E+03  0.36014462422E+03  0.00000000000E+00 0.  1.
         23    2    1    2    0    0 -0.39451191101E+02  0.92418144248E+02 -0.15840084157E+03  0.20865552453E+03  0.91371721227E+02 0.  0.
        254    2    1    2    0    0  0.39451191101E+02 -0.92418144248E+02  0.10225757637E+04  0.13758086460E+04  0.91492662447E+03 0.  0.
        -24    2    4    4    0    0 -0.12644192653E+02  0.35503439915E+03  0.15630795141E+03  0.39616148408E+03  0.79387943727E+02 0.  0.
         24    2    4    4    0    0  0.52095383755E+02 -0.44745254340E+03  0.86626781228E+03  0.97964716196E+03  0.79755449492E+02 0.  0.
         11    1    3    3    0    0  0.84132253222E+01  0.77261950793E+02 -0.12862977877E+03  0.15028576575E+03  0.00000000000E+00 0.  1.
        -11    1    3    3    0    0 -0.47864416423E+02  0.15156193455E+02 -0.29771062803E+02  0.58369758780E+02  0.00000000000E+00 0. -1.
          4    1    6    6  502    0  0.61415733351E+02 -0.36348134115E+03  0.64671785647E+03  0.74440215176E+03  0.00000000000E+00 0. -1.
          3    1    5    5  503    0 -0.39054170007E+02  0.12608533528E+03  0.74733634855E+02  0.15168340761E+03  0.00000000000E+00 0. -1.
         -4    1    5    5    0  503  0.26409977353E+02  0.22894906388E+03  0.81574316552E+02  0.24447807647E+03  0.00000000000E+00 0.  1.
         -3    1    6    6    0  502 -0.93203495962E+01 -0.83971202251E+02  0.21954995582E+03  0.23524501020E+03  0.00000000000E+00 0.  1.
<mgrwt>
<rscale>  0 0.13280544E+04</rscale>
<asrwt>0</asrwt>
<pdfrwt beam="1">  1        1 0.18835685E+00 0.13280544E+04</pdfrwt>
<pdfrwt beam="2">  1       -1 0.55406866E-01 0.13280544E+04</pdfrwt>
<totfact> 0.33119709E+01</totfact>
</mgrwt>
</event>
<event>
12    1  0.1496989E-007  0.1540244E+04  0.7818608E-02  0.8858123E-01
          1   -1    0    0  501    0  0.00000000000E+00  0.00000000000E+00  0.47755455935E+03  0.47755455935E+03  0.00000000000E+00 0.  1.
         -1   -1    0    0    0  501 -0.00000000000E+00 -0.00000000000E+00 -0.12419272694E+04  0.12419272694E+04  0.00000000000E+00 0. -1.
         23    2    1    2    0    0 -0.20341639803E+03 -0.44977107579E+03 -0.16040358676E+03  0.52679691739E+03  0.90074579746E+02 0.  0.
        254    2    1    2    0    0  0.20341639803E+03  0.44977107579E+03 -0.60396912327E+03  0.11926849113E+04  0.90224516859E+03 0.  0.
        -24    2    4    4    0    0 -0.21286302239E+03 -0.15257322204E+03 -0.69726487881E+02  0.28272254727E+03  0.80504665950E+02 0.  0.
         24    2    4    4    0    0  0.41627942042E+03  0.60234429783E+03 -0.53424263539E+03  0.90996236406E+03  0.80679003185E+02 0.  0.
         13    1    3    3    0    0 -0.46681926118E+02 -0.10664034162E+03 -0.79555423148E+02  0.14099797885E+03  0.00000000000E+00 0. -1.
        -13    1    3    3    0    0 -0.15673447191E+03 -0.34313073417E+03 -0.80848163614E+02  0.38579893854E+03  0.00000000000E+00 0.  1.
          4    1    6    6  502    0  0.30022191974E+03  0.41308524778E+03 -0.32790647891E+03  0.60687336565E+03  0.00000000000E+00 0. -1.
          1    1    5    5  503    0 -0.77545656363E+02 -0.69532709863E+02 -0.67172201578E+02  0.12393639993E+03  0.00000000000E+00 0. -1.
         -2    1    5    5    0  503 -0.13531736602E+03 -0.83040512172E+02 -0.25542863026E+01  0.15878614734E+03  0.00000000000E+00 0.  1.
         -3    1    6    6    0  502  0.11605750068E+03  0.18925905005E+03 -0.20633615647E+03  0.30308899841E+03  0.00000000000E+00 0.  1.
<mgrwt>
<rscale>  0 0.15402442E+04</rscale>
<asrwt>0</asrwt>
<pdfrwt beam="1">  1        1 0.73469933E-01 0.15402442E+04</pdfrwt>
<pdfrwt beam="2">  1       -1 0.19106573E+00 0.15402442E+04</pdfrwt>
<totfact> 0.79057552E+00</totfact>
</mgrwt>
</event>
<event>
12    1  0.1496989E-007  0.1776957E+04  0.7818608E-02  0.8718650E-01
         -1   -1    0    0    0  501 -0.00000000000E+00  0.00000000000E+00  0.15620687793E+03  0.15620687793E+03  0.00000000000E+00 0.  1.
          1   -1    0    0  501    0  0.00000000000E+00 -0.00000000000E+00 -0.50535172414E+04  0.50535172414E+04  0.00000000000E+00 0. -1.
         23    2    1    2    0    0 -0.26272655301E+03 -0.33790420438E+02 -0.36238620129E+04  0.36346776252E+04  0.91315480770E+02 0.  0.
        254    2    1    2    0    0  0.26272655301E+03  0.33790420438E+02 -0.12734483506E+04  0.15750464941E+04  0.88821941135E+03 0.  0.
        -24    2    4    4    0    0 -0.27661170855E+03 -0.16414195227E+03 -0.32993078587E+03  0.46750882590E+03  0.79079460197E+02 0.  0.
         24    2    4    4    0    0  0.53933826156E+03  0.19793237271E+03 -0.94351756476E+03  0.11075376682E+04  0.79695087223E+02 0.  0.
         13    1    3    3    0    0 -0.19868859634E+02  0.78769488518E+01 -0.73978156086E+03  0.74009024835E+03  0.00000000000E+00 0.  1.
        -13    1    3    3    0    0 -0.24285769337E+03 -0.41667369290E+02 -0.28840804520E+04  0.28945873769E+04  0.00000000000E+00 0. -1.
          4    1    6    6  502    0  0.22364269916E+03  0.10055196485E+03 -0.33543641030E+03  0.41550492161E+03  0.00000000000E+00 0. -1.
          3    1    5    5  503    0 -0.26976536198E+03 -0.16164479013E+03 -0.33432891447E+03  0.45899696268E+03  0.00000000000E+00 0. -1.
         -4    1    5    5    0  503 -0.68463465776E+01 -0.24971621466E+01  0.43981286041E+01  0.85118632194E+01  0.00000000000E+00 0.  1.
         -3    1    6    6    0  502  0.31569556240E+03  0.97380407861E+02 -0.60808115446E+03  0.69203274660E+03  0.00000000000E+00 0.  1.
<mgrwt>
<rscale>  0 0.17769571E+04</rscale>
<asrwt>0</asrwt>
<pdfrwt beam="1">  1        1 0.77746420E+00 0.17769571E+04</pdfrwt>
<pdfrwt beam="2">  1       -1 0.24031827E-01 0.17769571E+04</pdfrwt>
<totfact> 0.10765295E-01</totfact>
</mgrwt>
</event>
<event>
12    1  0.1496989E-007  0.1428023E+04  0.7818608E-02  0.8933780E-01
          2   -1    0    0  501    0  0.00000000000E+00  0.00000000000E+00  0.50653386294E+03  0.50653386294E+03  0.00000000000E+00 0. -1.
         -2   -1    0    0    0  501 -0.00000000000E+00 -0.00000000000E+00 -0.10064725374E+04  0.10064725374E+04  0.00000000000E+00 0.  1.
         23    2    1    2    0    0  0.18165359035E+02 -0.36354532185E+03  0.72326688834E+02  0.39112737091E+03  0.12350825497E+03 0.  0.
        254    2    1    2    0    0 -0.18165359035E+02  0.36354532185E+03 -0.57226536331E+03  0.11218790295E+04  0.89366085814E+03 0.  0.
        -24    2    4    4    0    0  0.40399581377E+03  0.70909186409E+02 -0.38681231798E+03  0.56951317137E+03  0.80503122642E+02 0.  0.
         24    2    4    4    0    0 -0.42216117281E+03  0.29263613545E+03 -0.18545304532E+03  0.55236585808E+03  0.82820562428E+02 0.  0.
         11    1    3    3    0    0  0.21467629286E+02 -0.22414768536E+03 -0.16539274059E+02  0.22577996268E+03  0.00000000000E+00 0.  1.
        -11    1    3    3    0    0 -0.33022702509E+01 -0.13939763649E+03  0.88865962892E+02  0.16534740823E+03  0.00000000000E+00 0. -1.
          4    1    6    6  502    0 -0.32586657555E+03  0.23722116964E+03 -0.17914763325E+03  0.44108591327E+03  0.00000000000E+00 0. -1.
          3    1    5    5  503    0  0.21894488321E+03 -0.21127688835E+01 -0.20902883212E+03  0.30271170829E+03  0.00000000000E+00 0. -1.
         -4    1    5    5    0  503  0.18505093056E+03  0.73021955292E+02 -0.17778348586E+03  0.26680146308E+03  0.00000000000E+00 0.  1.
         -3    1    6    6    0  502 -0.96294597253E+02  0.55414965809E+02 -0.63054120730E+01  0.11127994481E+03  0.00000000000E+00 0.  1.
<mgrwt>
<rscale>  0 0.14280230E+04</rscale>
<asrwt>0</asrwt>
<pdfrwt beam="1">  1        2 0.77928287E-01 0.14280230E+04</pdfrwt>
<pdfrwt beam="2">  1       -2 0.15484193E+00 0.14280230E+04</pdfrwt>
<totfact> 0.16202758E+01</totfact>
</mgrwt>
</event>
<event>
12    1  0.1496989E-007  0.1966571E+04  0.7818608E-02  0.8622411E-01
          1   -1    0    0  501    0  0.00000000000E+00  0.00000000000E+00  0.31263634525E+04  0.31263634525E+04  0.00000000000E+00 0. -1.
         -1   -1    0    0    0  501 -0.00000000000E+00 -0.00000000000E+00 -0.30925730866E+03  0.30925730866E+03  0.00000000000E+00 0.  1.
         23    2    1    2    0    0 -0.28115800072E+03  0.57402926779E+03  0.40681813216E+03  0.76334361180E+03  0.92914236695E+02 0.  0.
        254    2    1    2    0    0  0.28115800072E+03 -0.57402926779E+03  0.24102880117E+04  0.26722771494E+04  0.96073796743E+03 0.  0.
        -24    2    4    4    0    0  0.62804240341E+03 -0.36621499835E+03  0.17085943202E+04  0.18585989988E+04  0.80901187193E+02 0.  0.
         24    2    4    4    0    0 -0.34688440269E+03 -0.20781426943E+03  0.70169369154E+03  0.81367815054E+03  0.78629107232E+02 0.  0.
         13    1    3    3    0    0 -0.90305518533E+02  0.10264173492E+03  0.10024462161E+03  0.16952697893E+03  0.00000000000E+00 0. -1.
        -13    1    3    3    0    0 -0.19085248218E+03  0.47138753287E+03  0.30657351056E+03  0.59381663287E+03  0.00000000000E+00 0.  1.
          2    1    6    6  502    0 -0.23566049987E+03 -0.97877980332E+02  0.41796015371E+03  0.48970058231E+03  0.00000000000E+00 0. -1.
          1    1    5    5  503    0  0.54905749098E+03 -0.30773053291E+03  0.15364745593E+04  0.16603964228E+04  0.00000000000E+00 0. -1.
         -2    1    5    5    0  503  0.78984912422E+02 -0.58484465445E+02  0.17211976082E+03  0.19820257605E+03  0.00000000000E+00 0.  1.
         -1    1    6    6    0  502 -0.11122390282E+03 -0.10993628910E+03  0.28373353783E+03  0.32397756822E+03  0.00000000000E+00 0.  1.
<mgrwt>
<rscale>  0 0.19665714E+04</rscale>
<asrwt>0</asrwt>
<pdfrwt beam="1">  1        1 0.48097897E+00 0.19665714E+04</pdfrwt>
<pdfrwt beam="2">  1       -1 0.47578050E-01 0.19665714E+04</pdfrwt>
<totfact> 0.19848063E+00</totfact>
</mgrwt>
</event>
<event>
12    1  0.1496989E-007  0.2292124E+04  0.7818608E-02  0.8481033E-01
          2   -1    0    0  501    0  0.00000000000E+00  0.00000000000E+00  0.24927067892E+04  0.24927067892E+04  0.00000000000E+00 0. -1.
         -2   -1    0    0    0  501 -0.00000000000E+00 -0.00000000000E+00 -0.52692052255E+03  0.52692052255E+03  0.00000000000E+00 0.  1.
         23    2    1    2    0    0  0.40977668039E+03 -0.47278125100E+03  0.18097693462E+04  0.19170725691E+04  0.91995161579E+02 0.  0.
        254    2    1    2    0    0 -0.40977668039E+03  0.47278125100E+03  0.15601692047E+03  0.11025547426E+04  0.89434145714E+03 0.  0.
        -24    2    4    4    0    0 -0.46772623494E+03  0.69281492606E+03  0.18507115752E+03  0.85986792289E+03  0.79756873316E+02 0.  0.
         24    2    4    4    0    0  0.57949554554E+02 -0.22003367505E+03 -0.29054237047E+02  0.24268681976E+03  0.79245029898E+02 0.  0.
         11    1    3    3    0    0  0.20801142060E+02 -0.59292811053E+02  0.22870853972E+03  0.23718330695E+03  0.00000000000E+00 0.  1.
        -11    1    3    3    0    0  0.38897553833E+03 -0.41348843995E+03  0.15810608064E+04  0.16798892621E+04  0.00000000000E+00 0. -1.
          2    1    6    6  502    0  0.53972755215E+02 -0.10557700001E+03 -0.45466237084E+02  0.12699110186E+03  0.00000000000E+00 0. -1.
          1    1    5    5  503    0 -0.29722588087E+03  0.46379062528E+03  0.15797911309E+03  0.57306401783E+03  0.00000000000E+00 0. -1.
         -2    1    5    5    0  503 -0.17050035407E+03  0.22902430078E+03  0.27092044431E+02  0.28680390506E+03  0.00000000000E+00 0.  1.
         -1    1    6    6    0  502  0.39767993381E+01 -0.11445667505E+03  0.16412000037E+02  0.11569571790E+03  0.00000000000E+00 0.  1.
<mgrwt>
<rscale>  0 0.22921242E+04</rscale>
<asrwt>0</asrwt>
<pdfrwt beam="1">  1        2 0.38349334E+00 0.22921242E+04</pdfrwt>
<pdfrwt beam="2">  1       -2 0.81064697E-01 0.22921242E+04</pdfrwt>
<totfact> 0.42785464E+00</totfact>
</mgrwt>
</event>
<event>
12    1  0.1496989E-007  0.2700502E+04  0.7818608E-02  0.8334842E-01
         -2   -1    0    0    0  501 -0.00000000000E+00  0.00000000000E+00  0.12570969394E+04  0.12570969394E+04  0.00000000000E+00 0.  1.
          2   -1    0    0  501    0  0.00000000000E+00 -0.00000000000E+00 -0.14503080025E+04  0.14503080025E+04  0.00000000000E+00 0. -1.
         23    2    1    2    0    0 -0.59512139418E+03 -0.63598890756E+03  0.73619709174E+03  0.11439554406E+04  0.89423306763E+02 0.  0.
        254    2    1    2    0    0  0.59512139418E+03  0.63598890756E+03 -0.92940815481E+03  0.15634495014E+04  0.90659994525E+03 0.  0.
        -24    2    4    4    0    0  0.40161012656E+03  0.22865346690E+02 -0.80526726254E+03  0.90361163106E+03  0.79025931489E+02 0.  0.
         24    2    4    4    0    0  0.19351126762E+03  0.61312356087E+03 -0.12414089228E+03  0.65983787030E+03  0.81289251126E+02 0.  0.
         11    1    3    3    0    0 -0.42181844815E+03 -0.42541960625E+03  0.45547613930E+03  0.75257634699E+03  0.00000000000E+00 0.  1.
        -11    1    3    3    0    0 -0.17330294602E+03 -0.21056930132E+03  0.28072095244E+03  0.39137909359E+03  0.00000000000E+00 0. -1.
          2    1    6    6  502    0  0.58661368018E+02  0.30910648961E+03 -0.43475562093E+02  0.31761313341E+03  0.00000000000E+00 0. -1.
          3    1    5    5  503    0  0.88253919404E+02 -0.61938017237E+01 -0.25234560896E+03  0.26740498094E+03  0.00000000000E+00 0. -1.
         -4    1    5    5    0  503  0.31335620715E+03  0.29059148414E+02 -0.55292165358E+03  0.63620665012E+03  0.00000000000E+00 0.  1.
         -1    1    6    6    0  502  0.13484989960E+03  0.30401707127E+03 -0.80665330182E+02  0.34222473689E+03  0.00000000000E+00 0.  1.
<mgrwt>
<rscale>  0 0.27005020E+04</rscale>
<asrwt>0</asrwt>
<pdfrwt beam="1">  1        2 0.22312431E+00 0.27005020E+04</pdfrwt>
<pdfrwt beam="2">  1       -2 0.19339953E+00 0.27005020E+04</pdfrwt>
<totfact> 0.17479007E+00</totfact>
</mgrwt>
</event>
<event>
12    1  0.1496989E-007  0.1920888E+04  0.7818608E-02  0.8644528E-01
          1   -1    0    0  501    0  0.00000000000E+00  0.00000000000E+00  0.16416136263E+04  0.16416136263E+04  0.00000000000E+00 0. -1.
         -1   -1    0    0    0  501 -0.00000000000E+00 -0.00000000000E+00 -0.56191814171E+03  0.56191814171E+03  0.00000000000E+00 0.  1.
         23    2    1    2    0    0 -0.66881060524E+03 -0.24703014437E+03  0.68604100953E+03  0.99362513090E+03  0.91143382117E+02 0.  0.
        254    2    1    2    0    0  0.66881060524E+03  0.24703014437E+03  0.39365447504E+03  0.12099066371E+04  0.89475063946E+03 0.  0.
        -24    2    4    4    0    0 -0.11818929860E+03 -0.12626371684E+03 -0.90048613087E+02  0.21029128903E+03  0.78755552367E+02 0.  0.
         24    2    4    4    0    0  0.78699990384E+03  0.37329386120E+03  0.48370308812E+03  0.99961534805E+03  0.80901243084E+02 0.  0.
         11    1    3    3    0    0 -0.20891076171E+03 -0.12224517388E+03  0.22010565022E+03  0.32716064273E+03  0.00000000000E+00 0.  1.
        -11    1    3    3    0    0 -0.45989984353E+03 -0.12478497048E+03  0.46593535931E+03  0.66646448817E+03  0.00000000000E+00 0. -1.
          4    1    6    6  502    0  0.69178812853E+02  0.15223907305E+02  0.57587206914E+02  0.91289440252E+02  0.00000000000E+00 0. -1.
          3    1    5    5  503    0  0.33537876200E+01  0.59118690669E+01 -0.13454878438E+02  0.15074211125E+02  0.00000000000E+00 0. -1.
         -4    1    5    5    0  503 -0.12154308622E+03 -0.13217558590E+03 -0.76593734649E+02  0.19521707790E+03  0.00000000000E+00 0.  1.
         -3    1    6    6    0  502  0.71782109099E+03  0.35806995390E+03  0.42611588121E+03  0.90832590780E+03  0.00000000000E+00 0.  1.
<mgrwt>
<rscale>  0 0.19208878E+04</rscale>
<asrwt>0</asrwt>
<pdfrwt beam="1">  1        1 0.25255594E+00 0.19208878E+04</pdfrwt>
<pdfrwt beam="2">  1       -1 0.86448946E-01 0.19208878E+04</pdfrwt>
<totfact> 0.64390782E+00</totfact>
</mgrwt>
</event>
<event>
12    1  0.1496989E-007  0.2295128E+04  0.7818608E-02  0.8479844E-01
         -1   -1    0    0    0  501 -0.00000000000E+00  0.00000000000E+00  0.11228328591E+04  0.11228328591E+04  0.00000000000E+00 0.  1.
          1   -1    0    0  501    0  0.00000000000E+00 -0.00000000000E+00 -0.11728400378E+04  0.11728400378E+04  0.00000000000E+00 0. -1.
         23    2    1    2    0    0  0.43310587305E+03  0.41909675365E+03  0.74182577921E+03  0.96017838952E+03  0.91729312661E+02 0.  0.
        254    2    1    2    0    0 -0.43310587305E+03 -0.41909675365E+03 -0.79183295787E+03  0.13354945073E+04  0.89068701561E+03 0.  0.
        -24    2    4    4    0    0 -0.37935392806E+03 -0.12706382684E+03 -0.91627336699E+03  0.10037415896E+04  0.88801333608E+02 0.  0.
         24    2    4    4    0    0 -0.53751944990E+02 -0.29203292681E+03  0.12444040912E+03  0.33175291773E+03  0.80013005601E+02 0.  0.
         13    1    3    3    0    0  0.33124233019E+03  0.36873793290E+03  0.59115019791E+03  0.77145816539E+03  0.00000000000E+00 0.  1.
        -13    1    3    3    0    0  0.10186354286E+03  0.50358820754E+02  0.15067558130E+03  0.18872022412E+03  0.00000000000E+00 0. -1.
          2    1    6    6  502    0 -0.71525194552E+02 -0.26418793369E+03  0.11821611681E+03  0.29813783396E+03  0.00000000000E+00 0. -1.
          1    1    5    5  503    0 -0.32284763394E+03 -0.13983840278E+03 -0.78169069430E+03  0.85721975898E+03  0.00000000000E+00 0. -1.
         -2    1    5    5    0  503 -0.56506294111E+02  0.12774575934E+02 -0.13458267269E+03  0.14652183063E+03  0.00000000000E+00 0.  1.
         -1    1    6    6    0  502  0.17773249563E+02 -0.27844993126E+02  0.62242923066E+01  0.33615083771E+02  0.00000000000E+00 0.  1.
<mgrwt>
<rscale>  0 0.22951282E+04</rscale>
<asrwt>0</asrwt>
<pdfrwt beam="1">  1        1 0.18043693E+00 0.22951282E+04</pdfrwt>
<pdfrwt beam="2">  1       -1 0.17274352E+00 0.22951282E+04</pdfrwt>
<totfact> 0.23769324E+00</totfact>
</mgrwt>
</event>
<event>
12    1  0.1496989E-007  0.1769901E+04  0.7818608E-02  0.8722471E-01
          1   -1    0    0  501    0  0.00000000000E+00  0.00000000000E+00  0.11351851415E+04  0.11351851415E+04  0.00000000000E+00 0. -1.
         -1   -1    0    0    0  501 -0.00000000000E+00 -0.00000000000E+00 -0.68987661552E+03  0.68987661552E+03  0.00000000000E+00 0.  1.
         23    2    1    2    0    0  0.24207003831E+03  0.80595451638E+02 -0.44850833516E+03  0.52433007310E+03  0.93106222014E+02 0.  0.
        254    2    1    2    0    0 -0.24207003831E+03 -0.80595451638E+02  0.89381686113E+03  0.13007316839E+04  0.90989054397E+03 0.  0.
        -24    2    4    4    0    0 -0.22726334994E+03  0.74261566369E+02  0.10415542803E+04  0.10716198072E+04  0.79814045906E+02 0.  0.
         24    2    4    4    0    0 -0.14806688371E+02 -0.15485701801E+03 -0.14773741912E+03  0.22911187675E+03  0.80411274156E+02 0.  0.
         11    1    3    3    0    0  0.19759632089E+03  0.65194998707E+02 -0.42151484083E+03  0.47007388241E+03  0.00000000000E+00 0.  1.
        -11    1    3    3    0    0  0.44473717424E+02  0.15400452931E+02 -0.26993494327E+02  0.54256190688E+02  0.00000000000E+00 0. -1.
          4    1    6    6  502    0  0.11769292807E+02  0.22859047664E+01 -0.25770182098E+02  0.28422594870E+02  0.00000000000E+00 0. -1.
          3    1    5    5  503    0  0.37160051500E+01  0.83716236069E+01  0.79871164832E+02  0.80394625117E+02  0.00000000000E+00 0. -1.
         -4    1    5    5    0  503 -0.23097935509E+03  0.65889942762E+02  0.96168311542E+03  0.99122518205E+03  0.00000000000E+00 0.  1.
         -3    1    6    6    0  502 -0.26575981178E+02 -0.15714292277E+03 -0.12196723702E+03  0.20068928188E+03  0.00000000000E+00 0.  1.
<mgrwt>
<rscale>  0 0.17699013E+04</rscale>
<asrwt>0</asrwt>
<pdfrwt beam="1">  1        1 0.17464387E+00 0.17699013E+04</pdfrwt>
<pdfrwt beam="2">  1       -1 0.10613486E+00 0.17699013E+04</pdfrwt>
<totfact> 0.93725529E+00</totfact>
</mgrwt>
</event>
<event>
12    1  0.1496989E-007  0.2202846E+04  0.7818608E-02  0.8517245E-01
         -2   -1    0    0    0  501 -0.00000000000E+00  0.00000000000E+00  0.76326102245E+03  0.76326102245E+03  0.00000000000E+00 0.  1.
          2   -1    0    0  501    0  0.00000000000E+00 -0.00000000000E+00 -0.15894065700E+04  0.15894065700E+04  0.00000000000E+00 0. -1.
         23    2    1    2    0    0  0.61748247001E+03  0.66781019302E+03 -0.44668620658E+03  0.10174125743E+04  0.91349463946E+02 0.  0.
        254    2    1    2    0    0 -0.61748247001E+03 -0.66781019302E+03 -0.37945934094E+03  0.13352550181E+04  0.90092259227E+03 0.  0.
        -24    2    4    4    0    0 -0.82864747832E+03 -0.45630186221E+03 -0.17773412358E+03  0.96584325685E+03  0.79973403964E+02 0.  0.
         24    2    4    4    0    0  0.21116500831E+03 -0.21150833081E+03 -0.20172521736E+03  0.36941176125E+03  0.80284190801E+02 0.  0.
         11    1    3    3    0    0  0.59138591124E+03  0.63176589174E+03 -0.40143650320E+03  0.95394795669E+03  0.00000000000E+00 0.  1.
        -11    1    3    3    0    0  0.26096558769E+02  0.36044301284E+02 -0.45249703380E+02  0.63464617627E+02  0.00000000000E+00 0. -1.
          4    1    6    6  502    0  0.13177319593E+03 -0.18189084935E+03 -0.15114619266E+03  0.27072795903E+03  0.00000000000E+00 0. -1.
          1    1    5    5  503    0 -0.79575533955E+03 -0.43668338519E+03 -0.15368013086E+03  0.92061746776E+03  0.00000000000E+00 0. -1.
         -2    1    5    5    0  503 -0.32892138774E+02 -0.19618477019E+02 -0.24053992718E+02  0.45225789096E+02  0.00000000000E+00 0.  1.
         -3    1    6    6    0  502  0.79391812377E+02 -0.29617481453E+02 -0.50579024699E+02  0.98683802215E+02  0.00000000000E+00 0.  1.
<mgrwt>
<rscale>  0 0.22028455E+04</rscale>
<asrwt>0</asrwt>
<pdfrwt beam="1">  1        2 0.24452409E+00 0.22028455E+04</pdfrwt>
<pdfrwt beam="2">  1       -2 0.11742477E+00 0.22028455E+04</pdfrwt>
<totfact> 0.57890920E+00</totfact>
</mgrwt>
</event>
<event>
12    1  0.1578555E-007  0.2118757E+04  0.7818608E-02  0.8553026E-01
         -1   -1    0    0    0  501 -0.00000000000E+00  0.00000000000E+00  0.67544755989E+03  0.67544755989E+03  0.00000000000E+00 0.  1.
          1   -1    0    0  501    0  0.00000000000E+00 -0.00000000000E+00 -0.16615390300E+04  0.16615390300E+04  0.00000000000E+00 0. -1.
         23    2    1    2    0    0  0.72939468226E+03  0.32893382546E+03 -0.26480824547E+02  0.80580161308E+03  0.91656650236E+02 0.  0.
        254    2    1    2    0    0 -0.72939468226E+03 -0.32893382546E+03 -0.95961064557E+03  0.15311849768E+04  0.88513319793E+03 0.  0.
        -24    2    4    4    0    0 -0.33759725245E+03 -0.22216043348E+03  0.73724050150E+02  0.41795497218E+03  0.76967266609E+02 0.  0.
         24    2    4    4    0    0 -0.39179742981E+03 -0.10677339197E+03 -0.10333346957E+04  0.11132300046E+04  0.81207552623E+02 0.  0.
         11    1    3    3    0    0  0.57456681767E+02  0.45110071879E+02 -0.22266146878E+02  0.76367337006E+02  0.00000000000E+00 0. -1.
        -11    1    3    3    0    0  0.67193800049E+03  0.28382375358E+03 -0.42146776688E+01  0.72943427607E+03  0.00000000000E+00 0.  1.
          2    1    6    6  502    0 -0.24859786667E+02  0.37378693157E+01 -0.29638538112E+02  0.38864168608E+02  0.00000000000E+00 0. -1.
          1    1    5    5  503    0 -0.12056669801E+03 -0.10626116668E+03 -0.13561347402E+01  0.16071590872E+03  0.00000000000E+00 0. -1.
         -2    1    5    5    0  503 -0.21703055444E+03 -0.11589926680E+03  0.75080184890E+02  0.25723906346E+03  0.00000000000E+00 0.  1.
         -1    1    6    6    0  502 -0.36693764314E+03 -0.11051126129E+03 -0.10036961576E+04  0.10743658360E+04  0.00000000000E+00 0.  1.
<mgrwt>
<rscale>  0 0.21187567E+04</rscale>
<asrwt>0</asrwt>
<pdfrwt beam="1">  1        1 0.25562139E+00 0.21187567E+04</pdfrwt>
<pdfrwt beam="2">  1       -1 0.10391501E+00 0.21187567E+04</pdfrwt>
<totfact> 0.40546615E+00</totfact>
</mgrwt>
</event>
<event>
12    1  0.1496989E-007  0.1575589E+04  0.7818608E-02  0.8835686E-01
          2   -1    0    0  501    0  0.00000000000E+00  0.00000000000E+00  0.96409621647E+03  0.96409621647E+03  0.00000000000E+00 0. -1.
         -2   -1    0    0    0  501 -0.00000000000E+00 -0.00000000000E+00 -0.64373267000E+03  0.64373267000E+03  0.00000000000E+00 0.  1.
         23    2    1    2    0    0  0.15670343817E+03 -0.35583274127E+03  0.46824664554E+03  0.61524488543E+03  0.89991336791E+02 0.  0.
        254    2    1    2    0    0 -0.15670343817E+03  0.35583274127E+03 -0.14788309907E+03  0.99258400104E+03  0.90121067506E+03 0.  0.
        -24    2    4    4    0    0 -0.20704720193E+02  0.19245227079E+03  0.37108678447E+03  0.42606780864E+03  0.79760980310E+02 0.  0.
         24    2    4    4    0    0 -0.13599871798E+03  0.16338047048E+03 -0.51896988354E+03  0.56651619240E+03  0.80137549319E+02 0.  0.
         11    1    3    3    0    0  0.13316462123E+03 -0.33810161976E+03  0.39727767885E+03  0.53840047896E+03  0.00000000000E+00 0. -1.
        -11    1    3    3    0    0  0.23538816943E+02 -0.17731121507E+02  0.70968966689E+02  0.76844406471E+02  0.00000000000E+00 0.  1.
          4    1    6    6  502    0 -0.68641804678E+01 -0.92279749422E+01 -0.22613129919E+02  0.25369787933E+02  0.00000000000E+00 0. -1.
          3    1    5    5  503    0 -0.21685496987E+02  0.11306711002E+02  0.22544215510E+02  0.33261752002E+02  0.00000000000E+00 0. -1.
         -4    1    5    5    0  503  0.98077679445E+00  0.18114555978E+03  0.34854256896E+03  0.39280605663E+03  0.00000000000E+00 0.  1.
         -3    1    6    6    0  502 -0.12913453751E+03  0.17260844542E+03 -0.49635675362E+03  0.54114640447E+03  0.00000000000E+00 0.  1.
<mgrwt>
<rscale>  0 0.15755891E+04</rscale>
<asrwt>0</asrwt>
<pdfrwt beam="1">  1        2 0.14832249E+00 0.15755891E+04</pdfrwt>
<pdfrwt beam="2">  1       -2 0.99035795E-01 0.15755891E+04</pdfrwt>
<totfact> 0.21583976E+01</totfact>
</mgrwt>
</event>
<event>
12    1  0.1496989E-007  0.4038965E+04  0.7818608E-02  0.7996732E-01
         -1   -1    0    0    0  501 -0.00000000000E+00  0.00000000000E+00  0.11549164318E+04  0.11549164318E+04  0.00000000000E+00 0.  1.
          1   -1    0    0  501    0  0.00000000000E+00 -0.00000000000E+00 -0.35312588963E+04  0.35312588963E+04  0.00000000000E+00 0. -1.
         23    2    1    2    0    0 -0.17650889430E+03 -0.18120186149E+03  0.10749908679E+04  0.11080787034E+04  0.90793956291E+02 0.  0.
        254    2    1    2    0    0  0.17650889430E+03  0.18120186149E+03 -0.34513333323E+04  0.35780966247E+04  0.90944168592E+03 0.  0.
        -24    2    4    4    0    0  0.95643967428E+02 -0.33480247294E+03 -0.82233782055E+03  0.89652970141E+03  0.79281460698E+02 0.  0.
         24    2    4    4    0    0  0.80864926870E+02  0.51600433443E+03 -0.26289955118E+04  0.26815669232E+04  0.79900896680E+02 0.  0.
         11    1    3    3    0    0 -0.76343346499E+02 -0.23443350732E+02  0.38743567083E+03  0.39558096046E+03  0.00000000000E+00 0. -1.
        -11    1    3    3    0    0 -0.10016554780E+03 -0.15775851075E+03  0.68755519704E+03  0.71249774291E+03  0.00000000000E+00 0.  1.
          4    1    6    6  502    0  0.68305759509E+02  0.23633821846E+03 -0.13583533316E+04  0.13804510870E+04  0.00000000000E+00 0. -1.
          1    1    5    5  503    0 -0.25966788621E+00 -0.13704251941E+03 -0.29877916990E+03  0.32870916008E+03  0.00000000000E+00 0. -1.
         -2    1    5    5    0  503  0.95903635314E+02 -0.19775995353E+03 -0.52355865065E+03  0.56782054133E+03  0.00000000000E+00 0.  1.
         -3    1    6    6    0  502  0.12559167361E+02  0.27966611597E+03 -0.12706421802E+04  0.13011158362E+04  0.00000000000E+00 0.  1.
<mgrwt>
<rscale>  0 0.40389647E+04</rscale>
<asrwt>0</asrwt>
<pdfrwt beam="1">  1        1 0.54327058E+00 0.40389647E+04</pdfrwt>
<pdfrwt beam="2">  1       -1 0.17767946E+00 0.40389647E+04</pdfrwt>
<totfact> 0.39766301E-02</totfact>
</mgrwt>
</event>
<event>
12    1  0.1496989E-007  0.3177831E+04  0.7818608E-02  0.8194697E-01
         -2   -1    0    0    0  501 -0.00000000000E+00  0.00000000000E+00  0.12756986161E+04  0.12756986161E+04  0.00000000000E+00 0.  1.
          2   -1    0    0  501    0  0.00000000000E+00 -0.00000000000E+00 -0.19790350785E+04  0.19790350785E+04  0.00000000000E+00 0. -1.
         23    2    1    2    0    0 -0.54492126870E+03  0.59519304617E+03  0.92332089666E+03  0.12296540566E+04  0.91288933236E+02 0.  0.
        254    2    1    2    0    0  0.54492126870E+03 -0.59519304617E+03 -0.16266573591E+04  0.20250796381E+04  0.89651515624E+03 0.  0.
        -24    2    4    4    0    0  0.95141118718E+02 -0.51824824468E+03 -0.28100810481E+03  0.60194195611E+03  0.75733004512E+02 0.  0.
         24    2    4    4    0    0  0.44978014998E+03 -0.76944801497E+02 -0.13456492543E+04  0.14231376820E+04  0.79537792883E+02 0.  0.
         11    1    3    3    0    0 -0.21848751434E+03  0.21431307510E+03  0.28879894361E+03  0.42079890436E+03  0.00000000000E+00 0. -1.
        -11    1    3    3    0    0 -0.32643375436E+03  0.38087997107E+03  0.63452195305E+03  0.80885515221E+03  0.00000000000E+00 0.  1.
          4    1    6    6  502    0  0.25943099674E+03 -0.37296287261E+02 -0.65074161267E+03  0.70154123298E+03  0.00000000000E+00 0. -1.
          3    1    5    5  503    0  0.11597411770E+02 -0.25912420571E+03 -0.12189104845E+03  0.28659602516E+03  0.00000000000E+00 0. -1.
         -4    1    5    5    0  503  0.83543706948E+02 -0.25912403896E+03 -0.15911705636E+03  0.31534593094E+03  0.00000000000E+00 0.  1.
         -3    1    6    6    0  502  0.19034915324E+03 -0.39648514236E+02 -0.69490764162E+03  0.72159644899E+03  0.00000000000E+00 0.  1.
<mgrwt>
<rscale>  0 0.31778309E+04</rscale>
<asrwt>0</asrwt>
<pdfrwt beam="1">  1        2 0.30446693E+00 0.31778309E+04</pdfrwt>
<pdfrwt beam="2">  1       -2 0.19626133E+00 0.31778309E+04</pdfrwt>
<totfact> 0.81512435E-01</totfact>
</mgrwt>
</event>
<event>
12    1  0.1496989E-007  0.1231347E+04  0.7818608E-02  0.9085853E-01
         -2   -1    0    0    0  501 -0.00000000000E+00  0.00000000000E+00  0.14717135945E+03  0.14717135945E+03  0.00000000000E+00 0. -1.
          2   -1    0    0  501    0  0.00000000000E+00 -0.00000000000E+00 -0.25755936251E+04  0.25755936251E+04  0.00000000000E+00 0.  1.
         23    2    1    2    0    0  0.24464488547E+03  0.10540535731E+03 -0.69082867920E+03  0.74605333786E+03  0.91596449648E+02 0.  0.
        254    2    1    2    0    0 -0.24464488547E+03 -0.10540535731E+03 -0.17375935864E+04  0.19767116466E+04  0.90398896736E+03 0.  0.
        -24    2    4    4    0    0  0.31164933652E+02  0.34175591970E+03 -0.37801552883E+03  0.51693554496E+03  0.80983059172E+02 0.  0.
         24    2    4    4    0    0 -0.27580981913E+03 -0.44716127701E+03 -0.13595780576E+04  0.14597761017E+04  0.80433254354E+02 0.  0.
         13    1    3    3    0    0  0.25367793379E+02  0.63064460830E+01 -0.18676436521E+02  0.32126398557E+02  0.00000000000E+00 0. -1.
        -13    1    3    3    0    0  0.21927709209E+03  0.99098911232E+02 -0.67215224268E+03  0.71392693930E+03  0.00000000000E+00 0.  1.
          2    1    6    6  502    0 -0.24817063182E+03 -0.39585882119E+03 -0.12668220405E+04  0.13502336654E+04  0.00000000000E+00 0. -1.
          3    1    5    5  503    0  0.58073674190E+02  0.26423314914E+03 -0.29013700063E+03  0.39670037544E+03  0.00000000000E+00 0. -1.
         -4    1    5    5    0  503 -0.26908740538E+02  0.77522770550E+02 -0.87878528205E+02  0.12023516952E+03  0.00000000000E+00 0.  1.
         -1    1    6    6    0  502 -0.27639187304E+02 -0.51302455824E+02 -0.92756017100E+02  0.10954243633E+03  0.00000000000E+00 0.  1.
<mgrwt>
<rscale>  0 0.12313466E+04</rscale>
<asrwt>0</asrwt>
<pdfrwt beam="1">  1        2 0.39624517E+00 0.12313466E+04</pdfrwt>
<pdfrwt beam="2">  1       -2 0.22641748E-01 0.12313466E+04</pdfrwt>
<totfact> 0.53483526E+01</totfact>
</mgrwt>
</event>
<event>
12    1  0.1496989E-007  0.2313047E+04  0.7818608E-02  0.8472795E-01
         -1   -1    0    0    0  501 -0.00000000000E+00  0.00000000000E+00  0.10409624624E+04  0.10409624624E+04  0.00000000000E+00 0.  1.
          1   -1    0    0  501    0  0.00000000000E+00 -0.00000000000E+00 -0.12849132641E+04  0.12849132641E+04  0.00000000000E+00 0. -1.
         23    2    1    2    0    0 -0.81717340925E+03  0.50651552812E+03  0.13953901693E+02  0.96534419241E+03  0.85815717897E+02 0.  0.
        254    2    1    2    0    0  0.81717340925E+03 -0.50651552812E+03 -0.25790470336E+03  0.13605315341E+04  0.92747013877E+03 0.  0.
        -24    2    4    4    0    0  0.10065346019E+04 -0.50293585104E+03 -0.19151120666E+03  0.11442418988E+04  0.80972869689E+02 0.  0.
         24    2    4    4    0    0 -0.18936119268E+03 -0.35796770807E+01 -0.66393496695E+02  0.21628963528E+03  0.80638914575E+02 0.  0.
         11    1    3    3    0    0 -0.38447755052E+03  0.25609265511E+03 -0.33424136218E+02  0.46316693291E+03  0.00000000000E+00 0.  1.
        -11    1    3    3    0    0 -0.43269585873E+03  0.25042287301E+03  0.47378037910E+02  0.50217725950E+03  0.00000000000E+00 0. -1.
          2    1    6    6  502    0 -0.38764818495E+02  0.28720484883E+02 -0.33664760392E+02  0.58829359142E+02  0.00000000000E+00 0. -1.
          3    1    5    5  503    0  0.80549444164E+03 -0.43447380819E+03 -0.16903941234E+03  0.93067884280E+03  0.00000000000E+00 0. -1.
         -4    1    5    5    0  503  0.20104016030E+03 -0.68462042844E+02 -0.22471794321E+02  0.21356305604E+03  0.00000000000E+00 0.  1.
         -1    1    6    6    0  502 -0.15059637419E+03 -0.32300161963E+02 -0.32728736304E+02  0.15746027614E+03  0.00000000000E+00 0.  1.
<mgrwt>
<rscale>  0 0.23130469E+04</rscale>
<asrwt>0</asrwt>
<pdfrwt beam="1">  1        1 0.19767896E+00 0.23130469E+04</pdfrwt>
<pdfrwt beam="2">  1       -1 0.16014807E+00 0.23130469E+04</pdfrwt>
<totfact> 0.24407720E+00</totfact>
</mgrwt>
</event>
<event>
12    1  0.1496989E-007  0.1876396E+04  0.7818608E-02  0.8666696E-01
         -2   -1    0    0    0  501 -0.00000000000E+00  0.00000000000E+00  0.37543180617E+03  0.37543180617E+03  0.00000000000E+00 0. -1.
          2   -1    0    0  501    0  0.00000000000E+00 -0.00000000000E+00 -0.23445404539E+04  0.23445404539E+04  0.00000000000E+00 0.  1.
         23    2    1    2    0    0  0.54444599090E+03  0.37599837040E+03 -0.11491246089E+04  0.13289423083E+04  0.88340705762E+02 0.  0.
        254    2    1    2    0    0 -0.54444599090E+03 -0.37599837040E+03 -0.81998403879E+03  0.13910299518E+04  0.90818186030E+03 0.  0.
        -24    2    4    4    0    0 -0.45492703535E+03 -0.45984472505E+03 -0.97955961400E+03  0.11765292092E+04  0.79171738499E+02 0.  0.
         24    2    4    4    0    0 -0.89518955553E+02  0.83846354650E+02  0.15957557521E+03  0.21450074255E+03  0.74177825253E+02 0.  0.
         11    1    3    3    0    0  0.47747905711E+03  0.32265976893E+03 -0.93486433832E+03  0.10982107756E+04  0.00000000000E+00 0. -1.
        -11    1    3    3    0    0  0.66966933786E+02  0.53338601462E+02 -0.21426027060E+03  0.23073153270E+03  0.00000000000E+00 0.  1.
          4    1    6    6  502    0 -0.70974899959E+02  0.37958976342E+02  0.13957496238E+03  0.16111949117E+03  0.00000000000E+00 0. -1.
          1    1    5    5  503    0 -0.26643462024E+03 -0.22544266667E+03 -0.57037746065E+03  0.66868695997E+03  0.00000000000E+00 0. -1.
         -2    1    5    5    0  503 -0.18849241510E+03 -0.23440205838E+03 -0.40918215335E+03  0.50784224927E+03  0.00000000000E+00 0.  1.
         -3    1    6    6    0  502 -0.18544055594E+02  0.45887378309E+02  0.20000612828E+02  0.53381251385E+02  0.00000000000E+00 0.  1.
<mgrwt>
<rscale>  0 0.18763955E+04</rscale>
<asrwt>0</asrwt>
<pdfrwt beam="1">  1        2 0.36069853E+00 0.18763955E+04</pdfrwt>
<pdfrwt beam="2">  1       -2 0.57758739E-01 0.18763955E+04</pdfrwt>
<totfact> 0.11267246E+01</totfact>
</mgrwt>
</event>
<event>
12    1  0.1496989E-007  0.2991589E+04  0.7818608E-02  0.8246137E-01
          1   -1    0    0  501    0  0.00000000000E+00  0.00000000000E+00  0.23612398781E+04  0.23612398781E+04  0.00000000000E+00 0. -1.
         -1   -1    0    0    0  501 -0.00000000000E+00 -0.00000000000E+00 -0.94755324941E+03  0.94755324941E+03  0.00000000000E+00 0.  1.
         23    2    1    2    0    0 -0.39246022588E+03  0.44568026753E+03  0.19921140973E+04  0.20808205459E+04  0.92949651486E+02 0.  0.
        254    2    1    2    0    0  0.39246022588E+03 -0.44568026753E+03 -0.57842746863E+03  0.12279725816E+04  0.90591522504E+03 0.  0.
        -24    2    4    4    0    0 -0.11352200089E+03 -0.34900169299E+03  0.84301876165E+02  0.38480733828E+03  0.79249320938E+02 0.  0.
         24    2    4    4    0    0  0.50598222677E+03 -0.96678574538E+02 -0.66272934479E+03  0.84316524333E+03  0.79703717125E+02 0.  0.
         13    1    3    3    0    0 -0.29864164166E+03  0.39120985611E+03  0.16614682817E+04  0.17328326038E+04  0.00000000000E+00 0. -1.
        -13    1    3    3    0    0 -0.93818584223E+02  0.54470411427E+02  0.33064581559E+03  0.34798794208E+03  0.00000000000E+00 0.  1.
          2    1    6    6  502    0  0.49752706022E+02 -0.14691135472E+02 -0.11125193779E+03  0.12275241293E+03  0.00000000000E+00 0. -1.
          3    1    5    5  503    0  0.88395533099E+00 -0.49981597874E+02 -0.10144196841E+02  0.51008295724E+02  0.00000000000E+00 0. -1.
         -4    1    5    5    0  503 -0.11440595622E+03 -0.29902009512E+03  0.94446073005E+02  0.33379904256E+03  0.00000000000E+00 0.  1.
         -1    1    6    6    0  502  0.45622952075E+03 -0.81987439066E+02 -0.55147740700E+03  0.72041283040E+03  0.00000000000E+00 0.  1.
<mgrwt>
<rscale>  0 0.29915886E+04</rscale>
<asrwt>0</asrwt>
<pdfrwt beam="1">  1        1 0.36326767E+00 0.29915886E+04</pdfrwt>
<pdfrwt beam="2">  1       -1 0.14577742E+00 0.29915886E+04</pdfrwt>
<totfact> 0.54181733E-01</totfact>
</mgrwt>
</event>
<event>
12    1  0.1496989E-007  0.1608543E+04  0.7818608E-02  0.8815317E-01
         -2   -1    0    0    0  501 -0.00000000000E+00  0.00000000000E+00  0.30042507735E+03  0.30042507735E+03  0.00000000000E+00 0.  1.
          2   -1    0    0  501    0  0.00000000000E+00 -0.00000000000E+00 -0.21531234272E+04  0.21531234272E+04  0.00000000000E+00 0. -1.
         23    2    1    2    0    0 -0.55841740139E+03  0.74431849096E+02 -0.87423836646E+03  0.10440174019E+04  0.91156567463E+02 0.  0.
        254    2    1    2    0    0  0.55841740139E+03 -0.74431849096E+02 -0.97845998336E+03  0.14095311026E+04  0.84381508388E+03 0.  0.
        -24    2    4    4    0    0  0.63524131694E+03 -0.34084634722E+03 -0.67848865025E+03  0.99320615520E+03  0.80024090416E+02 0.  0.
         24    2    4    4    0    0 -0.76823915547E+02  0.26641449812E+03 -0.29997133311E+03  0.41632494739E+03  0.80405611266E+02 0.  0.
         11    1    3    3    0    0 -0.53927938849E+03  0.88897159313E+02 -0.83270279397E+03  0.99605165874E+03  0.00000000000E+00 0.  1.
        -11    1    3    3    0    0 -0.19138012899E+02 -0.14465310216E+02 -0.41535572490E+02  0.47965743187E+02  0.00000000000E+00 0. -1.
          2    1    6    6  502    0 -0.19262212470E+02  0.39685168993E+02 -0.12789876237E+02  0.45929580897E+02  0.00000000000E+00 0. -1.
          3    1    5    5  503    0  0.42459107360E+03 -0.19634140973E+03 -0.47432992421E+03  0.66619547128E+03  0.00000000000E+00 0. -1.
         -4    1    5    5    0  503  0.21065024334E+03 -0.14450493749E+03 -0.20415872604E+03  0.32701068392E+03  0.00000000000E+00 0.  1.
         -1    1    6    6    0  502 -0.57561703078E+02  0.22672932913E+03 -0.28718145687E+03  0.37039536649E+03  0.00000000000E+00 0.  1.
<mgrwt>
<rscale>  0 0.16085425E+04</rscale>
<asrwt>0</asrwt>
<pdfrwt beam="1">  1        2 0.33124977E+00 0.16085425E+04</pdfrwt>
<pdfrwt beam="2">  1       -2 0.46219241E-01 0.16085425E+04</pdfrwt>
<totfact> 0.23351155E+01</totfact>
</mgrwt>
</event>
<event>
12    1  0.1496989E-007  0.1879462E+04  0.7818608E-02  0.8665148E-01
         -2   -1    0    0    0  501 -0.00000000000E+00  0.00000000000E+00  0.19723012162E+03  0.19723012162E+03  0.00000000000E+00 0. -1.
          2   -1    0    0  501    0  0.00000000000E+00 -0.00000000000E+00 -0.44774810746E+04  0.44774810746E+04  0.00000000000E+00 0.  1.
         23    2    1    2    0    0  0.31519984359E+03 -0.41399348270E+03 -0.48193201173E+03  0.71314390964E+03  0.74660744793E+02 0.  0.
        254    2    1    2    0    0 -0.31519984359E+03  0.41399348270E+03 -0.37983189413E+04  0.39615672866E+04  0.99802156366E+03 0.  0.
        -24    2    4    4    0    0 -0.34407803144E+03  0.66809186356E+03 -0.19054833656E+04  0.20498961216E+04  0.80441424563E+02 0.  0.
         24    2    4    4    0    0  0.28878187852E+02 -0.25409838086E+03 -0.18928355756E+04  0.19116711650E+04  0.79121361154E+02 0.  0.
         13    1    3    3    0    0  0.16228912551E+03 -0.16098050473E+03 -0.18416512029E+03  0.29354603505E+03  0.00000000000E+00 0. -1.
        -13    1    3    3    0    0  0.15291071808E+03 -0.25301297797E+03 -0.29776689144E+03  0.41959787459E+03  0.00000000000E+00 0.  1.
          4    1    6    6  502    0 -0.40250243274E+01 -0.13321224718E+02 -0.30228783038E+02  0.33278148578E+02  0.00000000000E+00 0. -1.
          3    1    5    5  503    0 -0.93094589651E+02  0.22612363083E+03 -0.53632256469E+03  0.58944074548E+03  0.00000000000E+00 0. -1.
         -2    1    5    5    0  503 -0.25098344179E+03  0.44196823274E+03 -0.13691608010E+04  0.14604553761E+04  0.00000000000E+00 0.  1.
         -1    1    6    6    0  502  0.32903212180E+02 -0.24077715615E+03 -0.18626067926E+04  0.18783930164E+04  0.00000000000E+00 0.  1.
<mgrwt>
<rscale>  0 0.18794618E+04</rscale>
<asrwt>0</asrwt>
<pdfrwt beam="1">  1        2 0.68884320E+00 0.18794618E+04</pdfrwt>
<pdfrwt beam="2">  1       -2 0.30343098E-01 0.18794618E+04</pdfrwt>
<totfact> 0.12433503E+00</totfact>
</mgrwt>
</event>
<event>
12    1  0.1496989E-007  0.1030782E+04  0.7818608E-02  0.9275413E-01
          1   -1    0    0  501    0  0.00000000000E+00  0.00000000000E+00  0.11211796470E+04  0.11211796470E+04  0.00000000000E+00 0. -1.
         -1   -1    0    0    0  501 -0.00000000000E+00 -0.00000000000E+00 -0.23691818659E+03  0.23691818659E+03  0.00000000000E+00 0.  1.
         23    2    1    2    0    0  0.56783860057E+02 -0.67274821889E+02  0.15109847793E+03  0.19793849423E+03  0.92728577266E+02 0.  0.
        254    2    1    2    0    0 -0.56783860057E+02  0.67274821889E+02  0.73316298247E+03  0.11601593393E+04  0.89481362606E+03 0.  0.
        -24    2    4    4    0    0 -0.10830432851E+03 -0.38886192142E+03  0.47009721669E+03  0.62471720981E+03  0.79603879232E+02 0.  0.
         24    2    4    4    0    0  0.51520468454E+02  0.45613674331E+03  0.26306576578E+03  0.53544212954E+03  0.82338263834E+02 0.  0.
         11    1    3    3    0    0  0.23545556879E+01 -0.28064743085E+02  0.12131658501E+03  0.12454271370E+03  0.00000000000E+00 0. -1.
        -11    1    3    3    0    0  0.54429304369E+02 -0.39210078804E+02  0.29781892923E+02  0.73395780533E+02  0.00000000000E+00 0.  1.
          2    1    6    6  502    0  0.21716129044E+02  0.39628302329E+03  0.20405610732E+03  0.44626306114E+03  0.00000000000E+00 0. -1.
          1    1    5    5  503    0 -0.10633653748E+03 -0.39238216872E+03  0.46030456398E+03  0.61412662958E+03  0.00000000000E+00 0. -1.
         -2    1    5    5    0  503 -0.19677910306E+01  0.35202473022E+01  0.97926527036E+01  0.10590580229E+02  0.00000000000E+00 0.  1.
         -1    1    6    6    0  502  0.29804339410E+02  0.59853720024E+02  0.59009658459E+02  0.89179068395E+02  0.00000000000E+00 0.  1.
<mgrwt>
<rscale>  0 0.10307819E+04</rscale>
<asrwt>0</asrwt>
<pdfrwt beam="1">  1        1 0.17248917E+00 0.10307819E+04</pdfrwt>
<pdfrwt beam="2">  1       -1 0.36448952E-01 0.10307819E+04</pdfrwt>
<totfact> 0.88146900E+01</totfact>
</mgrwt>
</event>
<event>
12    1  0.1496989E-007  0.1334544E+04  0.7818608E-02  0.9002611E-01
          1   -1    0    0  501    0  0.00000000000E+00  0.00000000000E+00  0.66970246242E+03  0.66970246242E+03  0.00000000000E+00 0. -1.
         -1   -1    0    0    0  501 -0.00000000000E+00 -0.00000000000E+00 -0.66485017021E+03  0.66485017021E+03  0.00000000000E+00 0.  1.
         23    2    1    2    0    0 -0.12120578942E+02  0.14246141191E+03 -0.32902205185E+03  0.37030212968E+03  0.91793215039E+02 0.  0.
        254    2    1    2    0    0  0.12120578942E+02 -0.14246141191E+03  0.33387434407E+03  0.96425050295E+03  0.89323277621E+03 0.  0.
        -24    2    4    4    0    0  0.47114590479E+02  0.10448720668E+03  0.58437844738E+03  0.60123856708E+03  0.82778522436E+02 0.  0.
         24    2    4    4    0    0 -0.34994011537E+02 -0.24694861859E+03 -0.25050410332E+03  0.36301193587E+03  0.82566087107E+02 0.  0.
         11    1    3    3    0    0  0.18291172126E+02  0.13251868991E+03 -0.22814941352E+03  0.26447670038E+03  0.00000000000E+00 0.  1.
        -11    1    3    3    0    0 -0.30411751068E+02  0.99427219967E+01 -0.10087263833E+03  0.10582542930E+03  0.00000000000E+00 0. -1.
          2    1    6    6  502    0  0.32331975651E+01 -0.11520929059E+03 -0.65067003902E+02  0.13235312313E+03  0.00000000000E+00 0. -1.
          1    1    5    5  503    0  0.26684982657E+01 -0.13134039458E+02  0.31325831489E+02  0.34072446257E+02  0.00000000000E+00 0. -1.
         -2    1    5    5    0  503  0.44446092213E+02  0.11762124614E+03  0.55305261590E+03  0.56716612082E+03  0.00000000000E+00 0.  1.
         -1    1    6    6    0  502 -0.38227209102E+02 -0.13173932800E+03 -0.18543709942E+03  0.23065881275E+03  0.00000000000E+00 0.  1.
<mgrwt>
<rscale>  0 0.13345438E+04</rscale>
<asrwt>0</asrwt>
<pdfrwt beam="1">  1        1 0.10303115E+00 0.13345438E+04</pdfrwt>
<pdfrwt beam="2">  1       -1 0.10228464E+00 0.13345438E+04</pdfrwt>
<totfact> 0.25840134E+01</totfact>
</mgrwt>
</event>
<event>
12    1  0.1496989E-007  0.1657659E+04  0.7818608E-02  0.8785889E-01
         -4   -1    0    0    0  501 -0.00000000000E+00  0.00000000000E+00  0.25562904477E+03  0.25562904477E+03  0.00000000000E+00 0.  1.
          4   -1    0    0  501    0  0.00000000000E+00 -0.00000000000E+00 -0.26873236650E+04  0.26873236650E+04  0.00000000000E+00 0. -1.
         23    2    1    2    0    0  0.52091096141E+03  0.16827580968E+03 -0.53246005172E+03  0.76895827412E+03  0.90100737088E+02 0.  0.
        254    2    1    2    0    0 -0.52091096141E+03 -0.16827580968E+03 -0.18992345685E+04  0.21739944356E+04  0.90525956616E+03 0.  0.
        -24    2    4    4    0    0  0.11137100379E+03 -0.27049623706E+03 -0.11281889204E+04  0.11682462943E+04  0.80108983322E+02 0.  0.
         24    2    4    4    0    0 -0.63228196520E+03  0.10222042738E+03 -0.77104564810E+03  0.10057481414E+04  0.82391948115E+02 0.  0.
         11    1    3    3    0    0  0.42583475903E+03  0.99542355253E+02 -0.41248248585E+03  0.60115366058E+03  0.00000000000E+00 0.  1.
        -11    1    3    3    0    0  0.95076202376E+02  0.68733454424E+02 -0.11997756587E+03  0.16780461355E+03  0.00000000000E+00 0. -1.
          4    1    6    6  502    0 -0.41935044010E+03  0.31136287044E+02 -0.47884599878E+03  0.63727368574E+03  0.00000000000E+00 0. -1.
          1    1    5    5  503    0  0.26219640070E+02 -0.87062993300E+02 -0.50330623309E+03  0.51145341781E+03  0.00000000000E+00 0. -1.
         -2    1    5    5    0  503  0.85151363717E+02 -0.18343324376E+03 -0.62488268732E+03  0.65679287646E+03  0.00000000000E+00 0.  1.
         -3    1    6    6    0  502 -0.21293152510E+03  0.71084140337E+02 -0.29219964932E+03  0.36847445562E+03  0.00000000000E+00 0.  1.
<mgrwt>
<rscale>  0 0.16576586E+04</rscale>
<asrwt>0</asrwt>
<pdfrwt beam="1">  1        4 0.41343438E+00 0.16576586E+04</pdfrwt>
<pdfrwt beam="2">  1       -4 0.39327549E-01 0.16576586E+04</pdfrwt>
<totfact> 0.66920559E-02</totfact>
</mgrwt>
</event>
<event>
12    1  0.1496989E-007  0.1947809E+04  0.7818608E-02  0.8631418E-01
         -1   -1    0    0    0  501 -0.00000000000E+00  0.00000000000E+00  0.45450279985E+03  0.45450279985E+03  0.00000000000E+00 0.  1.
          1   -1    0    0  501    0  0.00000000000E+00 -0.00000000000E+00 -0.20868744515E+04  0.20868744515E+04  0.00000000000E+00 0. -1.
         23    2    1    2    0    0 -0.28553959594E+03 -0.47605029829E+03  0.42935195842E+02  0.56450858457E+03  0.93111565657E+02 0.  0.
        254    2    1    2    0    0  0.28553959594E+03  0.47605029829E+03 -0.16753068475E+04  0.19768686667E+04  0.89061773229E+03 0.  0.
        -24    2    4    4    0    0  0.38822691433E+01  0.51351717180E+03 -0.15848109349E+04  0.16677721858E+04  0.78252198569E+02 0.  0.
         24    2    4    4    0    0  0.28165732680E+03 -0.37466873518E+02 -0.90495912590E+02  0.30909648098E+03  0.81341920362E+02 0.  0.
         11    1    3    3    0    0 -0.17250157934E+03 -0.32728239693E+03  0.67475220085E+02  0.37606311643E+03  0.00000000000E+00 0.  1.
        -11    1    3    3    0    0 -0.11303801660E+03 -0.14876790136E+03 -0.24540024243E+02  0.18844546814E+03  0.00000000000E+00 0. -1.
          2    1    6    6  502    0  0.34210433427E+01  0.99094546249E+01 -0.12425353904E+02  0.16257006126E+02  0.00000000000E+00 0. -1.
          1    1    5    5  503    0 -0.21972544564E+02  0.29234716729E+03 -0.80193812065E+03  0.85384682952E+03  0.00000000000E+00 0. -1.
         -2    1    5    5    0  503  0.25854813707E+02  0.22117000451E+03 -0.78287281422E+03  0.81392535625E+03  0.00000000000E+00 0.  1.
         -1    1    6    6    0  502  0.27823628345E+03 -0.47376328143E+02 -0.78070558686E+02  0.29283947485E+03  0.00000000000E+00 0.  1.
<mgrwt>
<rscale>  0 0.19478093E+04</rscale>
<asrwt>0</asrwt>
<pdfrwt beam="1">  1        1 0.32105761E+00 0.19478093E+04</pdfrwt>
<pdfrwt beam="2">  1       -1 0.69923507E-01 0.19478093E+04</pdfrwt>
<totfact> 0.50126232E+00</totfact>
</mgrwt>
</event>
<event>
12    1  0.1496989E-007  0.1758283E+04  0.7818608E-02  0.8728804E-01
         -2   -1    0    0    0  501 -0.00000000000E+00  0.00000000000E+00  0.28293433575E+03  0.28293433575E+03  0.00000000000E+00 0.  1.
          2   -1    0    0  501    0  0.00000000000E+00 -0.00000000000E+00 -0.27316920824E+04  0.27316920824E+04  0.00000000000E+00 0. -1.
         23    2    1    2    0    0 -0.14490776262E+03  0.62248114237E+03 -0.10616785042E+04  0.12422493935E+04  0.86840526401E+02 0.  0.
        254    2    1    2    0    0  0.14490776262E+03 -0.62248114237E+03 -0.13870792424E+04  0.17723770246E+04  0.89936114020E+03 0.  0.
        -24    2    4    4    0    0  0.12078940535E+03 -0.69372131025E+03 -0.14719789351E+04  0.16337153322E+04  0.80401893170E+02 0.  0.
         24    2    4    4    0    0  0.24118357272E+02  0.71240167889E+02  0.84899692686E+02  0.13866169248E+03  0.79763716474E+02 0.  0.
         13    1    3    3    0    0 -0.13740215358E+03  0.57997580850E+03 -0.10245834813E+04  0.11853364925E+04  0.00000000000E+00 0. -1.
        -13    1    3    3    0    0 -0.75056090355E+01  0.42505333869E+02 -0.37095022868E+02  0.56912900962E+02  0.00000000000E+00 0.  1.
          4    1    6    6  502    0  0.28621331239E+01  0.47986945732E+02  0.94247552884E+02  0.10579952737E+03  0.00000000000E+00 0. -1.
          3    1    5    5  503    0  0.73003359363E+02 -0.58790846143E+03 -0.12158506659E+04  0.13525009025E+04  0.00000000000E+00 0. -1.
         -4    1    5    5    0  503  0.47786045983E+02 -0.10581284882E+03 -0.25612826916E+03  0.28121442963E+03  0.00000000000E+00 0.  1.
         -3    1    6    6    0  502  0.21256224148E+02  0.23253222158E+02 -0.93478601980E+01  0.32862165115E+02  0.00000000000E+00 0.  1.
<mgrwt>
<rscale>  0 0.17582827E+04</rscale>
<asrwt>0</asrwt>
<pdfrwt beam="1">  1        2 0.42026032E+00 0.17582827E+04</pdfrwt>
<pdfrwt beam="2">  1       -2 0.43528359E-01 0.17582827E+04</pdfrwt>
<totfact> 0.12081220E+01</totfact>
</mgrwt>
</event>
<event>
12    1  0.1496989E-007  0.1869510E+04  0.7818608E-02  0.8670184E-01
          1   -1    0    0  501    0  0.00000000000E+00  0.00000000000E+00  0.96565569822E+03  0.96565569822E+03  0.00000000000E+00 0. -1.
         -1   -1    0    0    0  501 -0.00000000000E+00 -0.00000000000E+00 -0.90484296905E+03  0.90484296905E+03  0.00000000000E+00 0.  1.
         23    2    1    2    0    0  0.31656659974E+03 -0.15067700905E+03 -0.60218175719E+03  0.70274223327E+03  0.91136187119E+02 0.  0.
        254    2    1    2    0    0 -0.31656659974E+03  0.15067700905E+03  0.66299448635E+03  0.11677564340E+04  0.89508403354E+03 0.  0.
        -24    2    4    4    0    0  0.22441872024E+03 -0.59250666900E+02 -0.44338877851E+02  0.24941273927E+03  0.79789566356E+02 0.  0.
         24    2    4    4    0    0 -0.54098531998E+03  0.20992767595E+03  0.70733336420E+03  0.91834369473E+03  0.79371959611E+02 0.  0.
         11    1    3    3    0    0  0.28831110040E+03 -0.13278900306E+03 -0.58396969144E+03  0.66466292996E+03  0.00000000000E+00 0.  1.
        -11    1    3    3    0    0  0.28255499339E+02 -0.17888005997E+02 -0.18212065748E+02  0.38079303306E+02  0.00000000000E+00 0. -1.
          2    1    6    6  502    0 -0.51197964461E+03  0.21637049880E+03  0.67592590423E+03  0.87510866597E+03  0.00000000000E+00 0. -1.
          1    1    5    5  503    0  0.11339402115E+03 -0.22564808147E+02 -0.61944628669E+02  0.13116596975E+03  0.00000000000E+00 0. -1.
         -2    1    5    5    0  503  0.11102469909E+03 -0.36685858753E+02  0.17605750818E+02  0.11824676953E+03  0.00000000000E+00 0.  1.
         -1    1    6    6    0  502 -0.29005675370E+02 -0.64428228503E+01  0.31407459968E+02  0.43235028756E+02  0.00000000000E+00 0.  1.
<mgrwt>
<rscale>  0 0.18695098E+04</rscale>
<asrwt>0</asrwt>
<pdfrwt beam="1">  1        1 0.14856242E+00 0.18695098E+04</pdfrwt>
<pdfrwt beam="2">  1       -1 0.13920661E+00 0.18695098E+04</pdfrwt>
<totfact> 0.64279084E+00</totfact>
</mgrwt>
</event>
<event>
12    1  0.1496989E-007  0.2416037E+04  0.7818608E-02  0.8433524E-01
         -1   -1    0    0    0  501 -0.00000000000E+00  0.00000000000E+00  0.44075987378E+03  0.44075987378E+03  0.00000000000E+00 0.  1.
          1   -1    0    0  501    0  0.00000000000E+00 -0.00000000000E+00 -0.33108934324E+04  0.33108934324E+04  0.00000000000E+00 0. -1.
         23    2    1    2    0    0  0.65664449816E+03 -0.55646917332E+03 -0.21515482723E+04  0.23191343378E+04  0.91565118251E+02 0.  0.
        254    2    1    2    0    0 -0.65664449816E+03  0.55646917332E+03 -0.71858528635E+03  0.14325189684E+04  0.89157492299E+03 0.  0.
        -24    2    4    4    0    0 -0.54519965810E+03  0.78342926999E+03 -0.65364246145E+03  0.11595899486E+04  0.79976829243E+02 0.  0.
         24    2    4    4    0    0 -0.11144484006E+03 -0.22696009667E+03 -0.64942824898E+02  0.27292901981E+03  0.79635679777E+02 0.  0.
         11    1    3    3    0    0  0.45906197483E+03 -0.33341672506E+03 -0.13849589700E+04  0.14966682859E+04  0.00000000000E+00 0. -1.
        -11    1    3    3    0    0  0.19758252333E+03 -0.22305244826E+03 -0.76658930231E+03  0.82246605196E+03  0.00000000000E+00 0.  1.
          4    1    6    6  502    0  0.12098108611E+02 -0.23799377353E+02 -0.12304318431E+02  0.29396782926E+02  0.00000000000E+00 0. -1.
          1    1    5    5  503    0 -0.20358088939E+03  0.23564875709E+03 -0.23546372531E+03  0.39040835183E+03  0.00000000000E+00 0. -1.
         -2    1    5    5    0  503 -0.34161876871E+03  0.54778051291E+03 -0.41817873614E+03  0.76918159677E+03  0.00000000000E+00 0.  1.
         -3    1    6    6    0  502 -0.12354294867E+03 -0.20316071932E+03 -0.52638506467E+02  0.24353223689E+03  0.00000000000E+00 0.  1.
<mgrwt>
<rscale>  0 0.24160372E+04</rscale>
<asrwt>0</asrwt>
<pdfrwt beam="1">  1        1 0.50936823E+00 0.24160372E+04</pdfrwt>
<pdfrwt beam="2">  1       -1 0.67809210E-01 0.24160372E+04</pdfrwt>
<totfact> 0.69100858E-01</totfact>
</mgrwt>
</event>
<event>
12    1  0.1496989E-007  0.1211569E+04  0.7818608E-02  0.9102790E-01
         -1   -1    0    0    0  501 -0.00000000000E+00  0.00000000000E+00  0.10677043919E+04  0.10677043919E+04  0.00000000000E+00 0.  1.
          1   -1    0    0  501    0  0.00000000000E+00 -0.00000000000E+00 -0.34370479164E+03  0.34370479164E+03  0.00000000000E+00 0. -1.
         23    2    1    2    0    0  0.90507263038E+01  0.13173253112E+03  0.40648089388E+03  0.43730564033E+03  0.92596601299E+02 0.  0.
        254    2    1    2    0    0 -0.90507263038E+01 -0.13173253112E+03  0.31751870634E+03  0.97410354317E+03  0.91138587247E+03 0.  0.
        -24    2    4    4    0    0  0.31883304008E+03 -0.33490837070E+03  0.42110274730E+01  0.46961853094E+03  0.81888385281E+02 0.  0.
         24    2    4    4    0    0 -0.32788376638E+03  0.20317583958E+03  0.31330767886E+03  0.50448501222E+03  0.86920882840E+02 0.  0.
         11    1    3    3    0    0 -0.46253716294E+01  0.21128373011E+02  0.72504353682E+01  0.22811642243E+02  0.00000000000E+00 0. -1.
        -11    1    3    3    0    0  0.13676097933E+02  0.11060415810E+03  0.39923045851E+03  0.41449399809E+03  0.00000000000E+00 0.  1.
          4    1    6    6  502    0 -0.16563189457E+03  0.51916286631E+02  0.13849358497E+03  0.22205787173E+03  0.00000000000E+00 0. -1.
          3    1    5    5  503    0  0.28468275603E+03 -0.28995853558E+03 -0.22900241525E+02  0.40699464984E+03  0.00000000000E+00 0. -1.
         -4    1    5    5    0  503  0.34150284047E+02 -0.44949835124E+02  0.27111268999E+02  0.62623881107E+02  0.00000000000E+00 0.  1.
         -3    1    6    6    0  502 -0.16225187181E+03  0.15125955295E+03  0.17481409389E+03  0.28242714050E+03  0.00000000000E+00 0.  1.
<mgrwt>
<rscale>  0 0.12115694E+04</rscale>
<asrwt>0</asrwt>
<pdfrwt beam="1">  1        1 0.52877661E-01 0.12115694E+04</pdfrwt>
<pdfrwt beam="2">  1       -1 0.16426221E+00 0.12115694E+04</pdfrwt>
<totfact> 0.19687783E+01</totfact>
</mgrwt>
</event>
<event>
12    1  0.1496989E-007  0.2385898E+04  0.7818608E-02  0.8444802E-01
          2   -1    0    0  501    0  0.00000000000E+00  0.00000000000E+00  0.62875528906E+03  0.62875528906E+03  0.00000000000E+00 0. -1.
         -2   -1    0    0    0  501 -0.00000000000E+00 -0.00000000000E+00 -0.22634049650E+04  0.22634049650E+04  0.00000000000E+00 0.  1.
         23    2    1    2    0    0  0.19059038599E+03  0.31454993722E+03 -0.18643157477E+04  0.19024487787E+04  0.91497487535E+02 0.  0.
        254    2    1    2    0    0 -0.19059038599E+03 -0.31454993722E+03  0.22966607169E+03  0.98971147543E+03  0.88967181694E+03 0.  0.
        -24    2    4    4    0    0 -0.63633585978E+02  0.30440134895E+03  0.12143133242E+03  0.34363331464E+03  0.81417884550E+02 0.  0.
         24    2    4    4    0    0 -0.12695680002E+03 -0.61895128618E+03  0.10823473927E+03  0.64607816079E+03  0.80520229344E+02 0.  0.
         11    1    3    3    0    0  0.11154288355E+03  0.12555400808E+03 -0.67244200374E+03  0.69309730357E+03  0.00000000000E+00 0.  1.
        -11    1    3    3    0    0  0.79047502440E+02  0.18899592914E+03 -0.11918737439E+04  0.12093514751E+04  0.00000000000E+00 0. -1.
          4    1    6    6  502    0 -0.45882836977E+02 -0.25372021854E+03  0.46332707050E+01  0.25787720182E+03  0.00000000000E+00 0. -1.
          3    1    5    5  503    0 -0.57608888840E-01 -0.42985086061E+01 -0.24903763205E+01  0.49681454527E+01  0.00000000000E+00 0. -1.
         -4    1    5    5    0  503 -0.63575977090E+02  0.30869985756E+03  0.12392170874E+03  0.33866516918E+03  0.00000000000E+00 0.  1.
         -3    1    6    6    0  502 -0.81073963038E+02 -0.36523106764E+03  0.10360146857E+03  0.38820095897E+03  0.00000000000E+00 0.  1.
<mgrwt>
<rscale>  0 0.23858984E+04</rscale>
<asrwt>0</asrwt>
<pdfrwt beam="1">  1        2 0.96731581E-01 0.23858984E+04</pdfrwt>
<pdfrwt beam="2">  1       -2 0.34821616E+00 0.23858984E+04</pdfrwt>
<totfact> 0.67385724E-01</totfact>
</mgrwt>
</event>
<event>
12    1  0.1496989E-007  0.1717171E+04  0.7818608E-02  0.8751632E-01
          1   -1    0    0  501    0  0.00000000000E+00  0.00000000000E+00  0.53498368845E+03  0.53498368845E+03  0.00000000000E+00 0. -1.
         -1   -1    0    0    0  501 -0.00000000000E+00 -0.00000000000E+00 -0.13779273849E+04  0.13779273849E+04  0.00000000000E+00 0.  1.
         23    2    1    2    0    0  0.35665938551E+03  0.63620190258E+02 -0.86776488424E+03  0.94476849888E+03  0.91204036462E+02 0.  0.
        254    2    1    2    0    0 -0.35665938551E+03 -0.63620190258E+02  0.24821187769E+02  0.96814257449E+03  0.89745780251E+03 0.  0.
        -24    2    4    4    0    0 -0.62336587425E+03  0.11178752587E+03 -0.76361291937E+01  0.63828632843E+03  0.79181200252E+02 0.  0.
         24    2    4    4    0    0  0.26670648873E+03 -0.17540771612E+03  0.32457316962E+02  0.32985624606E+03  0.76494755572E+02 0.  0.
         13    1    3    3    0    0  0.25970438938E+03  0.51582558384E+02 -0.51985039689E+03  0.58339657639E+03  0.00000000000E+00 0.  1.
        -13    1    3    3    0    0  0.96954996132E+02  0.12037631874E+02 -0.34791448735E+03  0.36137192249E+03  0.00000000000E+00 0. -1.
          4    1    6    6  502    0  0.24358678319E+03 -0.13488269411E+03  0.11408801514E+02  0.27867189106E+03  0.00000000000E+00 0. -1.
          1    1    5    5  503    0 -0.32350638902E+03  0.31136194129E+02 -0.33346084558E+02  0.32670752620E+03  0.00000000000E+00 0. -1.
         -2    1    5    5    0  503 -0.29985948523E+03  0.80651331736E+02  0.25709955364E+02  0.31157880223E+03  0.00000000000E+00 0.  1.
         -3    1    6    6    0  502  0.23119705541E+02 -0.40525022015E+02  0.21048515449E+02  0.51184354995E+02  0.00000000000E+00 0.  1.
<mgrwt>
<rscale>  0 0.17171706E+04</rscale>
<asrwt>0</asrwt>
<pdfrwt beam="1">  1        1 0.82305184E-01 0.17171706E+04</pdfrwt>
<pdfrwt beam="2">  1       -1 0.21198883E+00 0.17171706E+04</pdfrwt>
<totfact> 0.47758132E+00</totfact>
</mgrwt>
</event>
<event>
12    1  0.1496989E-007  0.1861443E+04  0.7818608E-02  0.8674290E-01
          1   -1    0    0  501    0  0.00000000000E+00  0.00000000000E+00  0.16163314317E+04  0.16163314317E+04  0.00000000000E+00 0. -1.
         -1   -1    0    0    0  501 -0.00000000000E+00 -0.00000000000E+00 -0.53593116521E+03  0.53593116521E+03  0.00000000000E+00 0.  1.
         23    2    1    2    0    0  0.53572100265E+02 -0.25546905768E+03  0.11705046140E+04  0.12031132517E+04  0.96260249688E+02 0.  0.
        254    2    1    2    0    0 -0.53572100265E+02  0.25546905768E+03 -0.90104347544E+02  0.94914934518E+03  0.90809210802E+03 0.  0.
        -24    2    4    4    0    0 -0.34902776195E+03  0.34757452962E+00  0.24062378143E+03  0.43128078017E+03  0.79264164220E+02 0.  0.
         24    2    4    4    0    0  0.29545566169E+03  0.25512148315E+03 -0.33072812898E+03  0.51786856501E+03  0.80160689532E+02 0.  0.
         11    1    3    3    0    0  0.13462714466E+02 -0.22799355167E+03  0.91918279161E+03  0.94713214953E+03  0.00000000000E+00 0. -1.
        -11    1    3    3    0    0  0.40109385799E+02 -0.27475506012E+02  0.25132182243E+03  0.25598110221E+03  0.00000000000E+00 0.  1.
          2    1    6    6  502    0  0.93167492145E+02  0.47331923738E+02 -0.56738068622E+02  0.11891047485E+03  0.00000000000E+00 0. -1.
          1    1    5    5  503    0 -0.34735324078E+03  0.98638433495E+01  0.23826873556E+03  0.42133544787E+03  0.00000000000E+00 0. -1.
         -2    1    5    5    0  503 -0.16745211698E+01 -0.95162688199E+01  0.23550458701E+01  0.99453322946E+01  0.00000000000E+00 0.  1.
         -1    1    6    6    0  502  0.20228816954E+03  0.20778955941E+03 -0.27399006035E+03  0.39895809017E+03  0.00000000000E+00 0.  1.
<mgrwt>
<rscale>  0 0.18614429E+04</rscale>
<asrwt>0</asrwt>
<pdfrwt beam="1">  1        1 0.24866637E+00 0.18614429E+04</pdfrwt>
<pdfrwt beam="2">  1       -1 0.82450949E-01 0.18614429E+04</pdfrwt>
<totfact> 0.74632854E+00</totfact>
</mgrwt>
</event>
<event>
12    1  0.1496989E-007  0.1191892E+04  0.7818608E-02  0.9119983E-01
         -2   -1    0    0    0  501 -0.00000000000E+00  0.00000000000E+00  0.13719424800E+04  0.13719424800E+04  0.00000000000E+00 0. -1.
          2   -1    0    0  501    0  0.00000000000E+00 -0.00000000000E+00 -0.25886788971E+03  0.25886788971E+03  0.00000000000E+00 0.  1.
         23    2    1    2    0    0  0.13788287924E+03  0.19926450681E+03  0.23724008110E+03  0.35083975644E+03  0.89931343552E+02 0.  0.
        254    2    1    2    0    0 -0.13788287924E+03 -0.19926450681E+03  0.87583450919E+03  0.12799706133E+04  0.90139927407E+03 0.  0.
        -24    2    4    4    0    0 -0.32052217939E+03 -0.16979825382E+03  0.98358978260E+03  0.10514000881E+04  0.80170881921E+02 0.  0.
         24    2    4    4    0    0  0.18263930014E+03 -0.29466252993E+02 -0.10775527342E+03  0.22857052518E+03  0.80049434798E+02 0.  0.
         11    1    3    3    0    0  0.11955947928E+03  0.19257803036E+03  0.17721613745E+03  0.28772613061E+03  0.00000000000E+00 0. -1.
        -11    1    3    3    0    0  0.18323399964E+02  0.66864764501E+01  0.60023943652E+02  0.63113625827E+02  0.00000000000E+00 0.  1.
          4    1    6    6  502    0  0.17078783818E+03 -0.25982282010E+02 -0.12065044196E+03  0.21071329762E+03  0.00000000000E+00 0. -1.
          1    1    5    5  503    0 -0.27318427709E+03 -0.17142490483E+03  0.82182628525E+03  0.88284460148E+03  0.00000000000E+00 0. -1.
         -2    1    5    5    0  503 -0.47337902301E+02  0.16266510085E+01  0.16176349735E+03  0.16855548660E+03  0.00000000000E+00 0.  1.
         -3    1    6    6    0  502  0.11851461967E+02 -0.34839709826E+01  0.12895168545E+02  0.17857227566E+02  0.00000000000E+00 0.  1.
<mgrwt>
<rscale>  0 0.11918924E+04</rscale>
<asrwt>0</asrwt>
<pdfrwt beam="1">  1        2 0.39825830E-01 0.11918924E+04</pdfrwt>
<pdfrwt beam="2">  1       -2 0.21106807E+00 0.11918924E+04</pdfrwt>
<totfact> 0.14403260E+01</totfact>
</mgrwt>
</event>
<event>
12    1  0.1496989E-007  0.1387886E+04  0.7818608E-02  0.8962634E-01
          1   -1    0    0  501    0  0.00000000000E+00  0.00000000000E+00  0.31748989310E+03  0.31748989310E+03  0.00000000000E+00 0. -1.
         -1   -1    0    0    0  501 -0.00000000000E+00 -0.00000000000E+00 -0.15167634025E+04  0.15167634025E+04  0.00000000000E+00 0.  1.
         23    2    1    2    0    0  0.32380101011E+03 -0.16828638381E+03 -0.24550023785E+03  0.44946036326E+03  0.92611285683E+02 0.  0.
        254    2    1    2    0    0 -0.32380101011E+03  0.16828638381E+03 -0.95377327150E+03  0.13847929323E+04  0.93530776260E+03 0.  0.
        -24    2    4    4    0    0  0.11102198765E+03  0.45273545177E+03 -0.38221849151E+03  0.60813514190E+03  0.80262721902E+02 0.  0.
         24    2    4    4    0    0 -0.43482299775E+03 -0.28444906797E+03 -0.57155477998E+03  0.77665779039E+03  0.80871164231E+02 0.  0.
         11    1    3    3    0    0  0.24017929233E+02 -0.40452623439E+01  0.59965744416E+01  0.25083539964E+02  0.00000000000E+00 0.  1.
        -11    1    3    3    0    0  0.29978308087E+03 -0.16424112146E+03 -0.25149681229E+03  0.42437682330E+03  0.00000000000E+00 0. -1.
          4    1    6    6  502    0 -0.41988559974E+01 -0.20156403436E+02 -0.23029313372E+02  0.30891103340E+02  0.00000000000E+00 0. -1.
          3    1    5    5  503    0  0.37718309851E+02  0.45039084854E+02 -0.45304930590E+02  0.74187106684E+02  0.00000000000E+00 0. -1.
         -4    1    5    5    0  503  0.73303677797E+02  0.40769636692E+03 -0.33691356092E+03  0.53394803522E+03  0.00000000000E+00 0.  1.
         -3    1    6    6    0  502 -0.43062414176E+03 -0.26429266453E+03 -0.54852546661E+03  0.74576668705E+03  0.00000000000E+00 0.  1.
<mgrwt>
<rscale>  0 0.13878862E+04</rscale>
<asrwt>0</asrwt>
<pdfrwt beam="1">  1        1 0.48844599E-01 0.13878862E+04</pdfrwt>
<pdfrwt beam="2">  1       -1 0.23334822E+00 0.13878862E+04</pdfrwt>
<totfact> 0.71300106E+00</totfact>
</mgrwt>
</event>
<event>
12    1  0.1496989E-007  0.1789502E+04  0.7818608E-02  0.8711902E-01
          2   -1    0    0  501    0  0.00000000000E+00  0.00000000000E+00  0.24744210640E+04  0.24744210640E+04  0.00000000000E+00 0.  1.
         -2   -1    0    0    0  501 -0.00000000000E+00 -0.00000000000E+00 -0.32354195154E+03  0.32354195154E+03  0.00000000000E+00 0. -1.
         23    2    1    2    0    0 -0.54489828837E+03  0.36714770214E+03  0.73130875969E+03  0.98729075375E+03  0.90658427991E+02 0.  0.
        254    2    1    2    0    0  0.54489828837E+03 -0.36714770214E+03  0.14195703528E+04  0.18106722618E+04  0.91194433678E+03 0.  0.
        -24    2    4    4    0    0  0.66147535479E+03  0.52763384228E+02  0.98183822723E+03  0.11878967646E+04  0.82211916274E+02 0.  0.
         24    2    4    4    0    0 -0.11657706641E+03 -0.41991108637E+03  0.43773212557E+03  0.62277549725E+03  0.79525928736E+02 0.  0.
         13    1    3    3    0    0 -0.48749498723E+03  0.29507734771E+03  0.60713499433E+03  0.83266734357E+03  0.00000000000E+00 0. -1.
        -13    1    3    3    0    0 -0.57403301145E+02  0.72070354433E+02  0.12417376536E+03  0.15462341018E+03  0.00000000000E+00 0.  1.
          2    1    6    6  502    0 -0.50136410594E+01 -0.35371998752E+02  0.10477515325E+02  0.37230272894E+02  0.00000000000E+00 0. -1.
          3    1    5    5  503    0  0.16026717092E+03  0.38924290318E+02  0.20198255767E+03  0.26076353283E+03  0.00000000000E+00 0. -1.
         -4    1    5    5    0  503  0.50120818387E+03  0.13839093910E+02  0.77985566956E+03  0.92713323176E+03  0.00000000000E+00 0.  1.
         -1    1    6    6    0  502 -0.11156342535E+03 -0.38453908762E+03  0.42725461025E+03  0.58554522435E+03  0.00000000000E+00 0.  1.
<mgrwt>
<rscale>  0 0.17895016E+04</rscale>
<asrwt>0</asrwt>
<pdfrwt beam="1">  1        2 0.38068015E+00 0.17895016E+04</pdfrwt>
<pdfrwt beam="2">  1       -2 0.49775686E-01 0.17895016E+04</pdfrwt>
<totfact> 0.13012446E+01</totfact>
</mgrwt>
</event>
<event>
12    1  0.1496989E-007  0.3432967E+04  0.7818608E-02  0.8129862E-01
         -1   -1    0    0    0  501 -0.00000000000E+00  0.00000000000E+00  0.13641373933E+04  0.13641373933E+04  0.00000000000E+00 0.  1.
          1   -1    0    0  501    0  0.00000000000E+00 -0.00000000000E+00 -0.21598373442E+04  0.21598373442E+04  0.00000000000E+00 0. -1.
         23    2    1    2    0    0  0.12790779652E+04 -0.20806614260E+03 -0.13314714245E+04  0.18602290356E+04  0.91126010482E+02 0.  0.
        254    2    1    2    0    0 -0.12790779652E+04  0.20806614260E+03  0.53577147360E+03  0.16637457018E+04  0.89535843526E+03 0.  0.
        -24    2    4    4    0    0 -0.11334456950E+04  0.60163256591E+02  0.60044040574E+02  0.11390025268E+04  0.73503116782E+02 0.  0.
         24    2    4    4    0    0 -0.14563227022E+03  0.14790288601E+03  0.47572743303E+03  0.52474317507E+03  0.77167269156E+02 0.  0.
         13    1    3    3    0    0  0.12405461360E+04 -0.19160303834E+03 -0.13047319295E+04  0.18105225344E+04  0.00000000000E+00 0.  1.
        -13    1    3    3    0    0  0.38531829238E+02 -0.16463104257E+02 -0.26739495050E+02  0.49706501201E+02  0.00000000000E+00 0. -1.
          4    1    6    6  502    0 -0.13481040196E+03  0.13479548698E+03  0.35614784733E+03  0.40396157855E+03  0.00000000000E+00 0. -1.
          3    1    5    5  503    0 -0.11167174720E+04  0.65263444205E+02  0.52212923924E+02  0.11198408007E+04  0.00000000000E+00 0. -1.
         -4    1    5    5    0  503 -0.16728223008E+02 -0.51001876144E+01  0.78311166494E+01  0.19161726089E+02  0.00000000000E+00 0.  1.
         -3    1    6    6    0  502 -0.10821868257E+02  0.13107399023E+02  0.11957958570E+03  0.12078159652E+03  0.00000000000E+00 0.  1.
<mgrwt>
<rscale>  0 0.34329666E+04</rscale>
<asrwt>0</asrwt>
<pdfrwt beam="1">  1        1 0.33228267E+00 0.34329666E+04</pdfrwt>
<pdfrwt beam="2">  1       -1 0.20986729E+00 0.34329666E+04</pdfrwt>
<totfact> 0.24525212E-01</totfact>
</mgrwt>
</event>
<event>
12    1  0.1496989E-007  0.1823315E+04  0.7818608E-02  0.8693998E-01
         -1   -1    0    0    0  501 -0.00000000000E+00  0.00000000000E+00  0.80234852921E+03  0.80234852921E+03  0.00000000000E+00 0.  1.
          1   -1    0    0  501    0  0.00000000000E+00 -0.00000000000E+00 -0.10358581403E+04  0.10358581403E+04  0.00000000000E+00 0. -1.
         23    2    1    2    0    0  0.20699964418E+03 -0.13157917832E+03 -0.67921657117E+03  0.72766716069E+03  0.89456209024E+02 0.  0.
        254    2    1    2    0    0 -0.20699964418E+03  0.13157917832E+03  0.44570696009E+03  0.11105395088E+04  0.98715823124E+03 0.  0.
        -24    2    4    4    0    0 -0.10239076359E+01  0.52683430887E+03  0.37659832733E+03  0.65258439576E+03  0.80527362106E+02 0.  0.
         24    2    4    4    0    0 -0.20597573655E+03 -0.39525513056E+03  0.69108632752E+02  0.45795511305E+03  0.79336373591E+02 0.  0.
         13    1    3    3    0    0  0.19630959995E+03 -0.12329620654E+03 -0.53818235932E+03  0.58598606251E+03  0.00000000000E+00 0. -1.
        -13    1    3    3    0    0  0.10690044237E+02 -0.82829717769E+01 -0.14103421186E+03  0.14168109818E+03  0.00000000000E+00 0.  1.
          2    1    6    6  502    0 -0.54933375209E+02 -0.67674851153E+02 -0.12659643451E+02  0.88078531793E+02  0.00000000000E+00 0. -1.
          1    1    5    5  503    0  0.34700108866E+02  0.29381355166E+03  0.23259053208E+03  0.37633609488E+03  0.00000000000E+00 0. -1.
         -2    1    5    5    0  503 -0.35724016502E+02  0.23302075722E+03  0.14400779525E+03  0.27624830089E+03  0.00000000000E+00 0.  1.
         -1    1    6    6    0  502 -0.15104236134E+03 -0.32758027940E+03  0.81768276203E+02  0.36987658126E+03  0.00000000000E+00 0.  1.
<mgrwt>
<rscale>  0 0.18233148E+04</rscale>
<asrwt>0</asrwt>
<pdfrwt beam="1">  1        1 0.15936279E+00 0.18233148E+04</pdfrwt>
<pdfrwt beam="2">  1       -1 0.12343823E+00 0.18233148E+04</pdfrwt>
<totfact> 0.77173675E+00</totfact>
</mgrwt>
</event>
<event>
12    1  0.1496989E-007  0.1584130E+04  0.7818608E-02  0.8830357E-01
         -2   -1    0    0    0  501 -0.00000000000E+00  0.00000000000E+00  0.13491341508E+04  0.13491341508E+04  0.00000000000E+00 0.  1.
          2   -1    0    0  501    0  0.00000000000E+00 -0.00000000000E+00 -0.46501466575E+03  0.46501466575E+03  0.00000000000E+00 0. -1.
         23    2    1    2    0    0  0.11780234913E+03 -0.89032489472E+02 -0.28773936198E+03  0.33517964115E+03  0.88018599005E+02 0.  0.
        254    2    1    2    0    0 -0.11780234913E+03  0.89032489472E+02  0.11718588471E+04  0.14789691754E+04  0.89010813210E+03 0.  0.
        -24    2    4    4    0    0 -0.11997723623E+03  0.11829228154E+03  0.13069558868E+04  0.13202428710E+04  0.80746190900E+02 0.  0.
         24    2    4    4    0    0  0.21748871012E+01 -0.29259792072E+02 -0.13509703969E+03  0.15872630448E+03  0.77986947848E+02 0.  0.
         13    1    3    3    0    0  0.11416989998E+03 -0.49801554010E+02 -0.16809303790E+03  0.20921336055E+03  0.00000000000E+00 0. -1.
        -13    1    3    3    0    0  0.36324491569E+01 -0.39230935462E+02 -0.11964632408E+03  0.12596628060E+03  0.00000000000E+00 0.  1.
          4    1    6    6  502    0  0.38828897744E+02 -0.23906505084E+02 -0.84510692552E+02  0.96027399428E+02  0.00000000000E+00 0. -1.
          1    1    5    5  503    0 -0.10324252228E+03  0.11989870660E+03  0.12677365705E+04  0.12775722017E+04  0.00000000000E+00 0. -1.
         -2    1    5    5    0  503 -0.16734713954E+02 -0.16064250573E+01  0.39219316221E+02  0.42670669287E+02  0.00000000000E+00 0.  1.
         -3    1    6    6    0  502 -0.36654010643E+02 -0.53532869883E+01 -0.50586347133E+02  0.62698905047E+02  0.00000000000E+00 0.  1.
<mgrwt>
<rscale>  0 0.15841303E+04</rscale>
<asrwt>0</asrwt>
<pdfrwt beam="1">  1        2 0.71540718E-01 0.15841303E+04</pdfrwt>
<pdfrwt beam="2">  1       -2 0.20755910E+00 0.15841303E+04</pdfrwt>
<totfact> 0.76281514E+00</totfact>
</mgrwt>
</event>
<event>
12    1  0.1496989E-007  0.2232407E+04  0.7818608E-02  0.8505060E-01
         -2   -1    0    0    0  501 -0.00000000000E+00  0.00000000000E+00  0.20035298075E+04  0.20035298075E+04  0.00000000000E+00 0.  1.
          2   -1    0    0  501    0  0.00000000000E+00 -0.00000000000E+00 -0.62185739408E+03  0.62185739408E+03  0.00000000000E+00 0. -1.
         23    2    1    2    0    0  0.70247298539E+03 -0.23870658475E+03  0.11982034147E+04  0.14120436952E+04  0.87902476019E+02 0.  0.
        254    2    1    2    0    0 -0.70247298539E+03  0.23870658475E+03  0.18346899867E+03  0.12133435063E+04  0.94238657785E+03 0.  0.
        -24    2    4    4    0    0 -0.28935769709E+03 -0.18147903590E+03 -0.28810018959E+03  0.45457006440E+03  0.83484770279E+02 0.  0.
         24    2    4    4    0    0 -0.41311528830E+03  0.42018562065E+03  0.47156918826E+03  0.75877344195E+03  0.78354576448E+02 0.  0.
         11    1    3    3    0    0  0.69720735098E+03 -0.22661610532E+03  0.11845740285E+04  0.13930788127E+04  0.00000000000E+00 0.  1.
        -11    1    3    3    0    0  0.52656344164E+01 -0.12090479429E+02  0.13629386201E+02  0.18964882463E+02  0.00000000000E+00 0. -1.
          4    1    6    6  502    0 -0.73697123667E+02  0.11713050662E+03  0.91515995626E+02  0.16590961116E+03  0.00000000000E+00 0. -1.
          1    1    5    5  503    0 -0.10754334826E+03 -0.43714113823E+02 -0.55119757022E+02  0.12850946703E+03  0.00000000000E+00 0. -1.
         -2    1    5    5    0  503 -0.18181434883E+03 -0.13776492208E+03 -0.23298043257E+03  0.32606059737E+03  0.00000000000E+00 0.  1.
         -3    1    6    6    0  502 -0.33941816464E+03  0.30305511403E+03  0.38005319264E+03  0.59286383079E+03  0.00000000000E+00 0.  1.
<mgrwt>
<rscale>  0 0.22324066E+04</rscale>
<asrwt>0</asrwt>
<pdfrwt beam="1">  1        2 0.95670369E-01 0.22324066E+04</pdfrwt>
<pdfrwt beam="2">  1       -2 0.30823535E+00 0.22324066E+04</pdfrwt>
<totfact> 0.12254460E+00</totfact>
</mgrwt>
</event>
<event>
12    1  0.1496989E-007  0.3442739E+04  0.7818608E-02  0.8127496E-01
         -2   -1    0    0    0  501 -0.00000000000E+00  0.00000000000E+00  0.15749256650E+04  0.15749256650E+04  0.00000000000E+00 0.  1.
          2   -1    0    0  501    0  0.00000000000E+00 -0.00000000000E+00 -0.18814298259E+04  0.18814298259E+04  0.00000000000E+00 0. -1.
         23    2    1    2    0    0  0.80513794288E+03  0.41347343557E+03 -0.14729945065E+04  0.17312568780E+04  0.91269778585E+02 0.  0.
        254    2    1    2    0    0 -0.80513794288E+03 -0.41347343557E+03  0.11664903456E+04  0.17250986130E+04  0.89222088580E+03 0.  0.
        -24    2    4    4    0    0 -0.79375990845E+03 -0.28646699185E+03  0.12811568409E+04  0.15361933019E+04  0.80055481967E+02 0.  0.
         24    2    4    4    0    0 -0.11378034429E+02 -0.12700644373E+03 -0.11466649525E+03  0.18890531108E+03  0.79225721865E+02 0.  0.
         11    1    3    3    0    0  0.15036741519E+02  0.22854104419E+02 -0.59380792551E+02  0.65379600857E+02  0.00000000000E+00 0.  1.
        -11    1    3    3    0    0  0.79010120136E+03  0.39061933115E+03 -0.14136137140E+04  0.16658772772E+04  0.00000000000E+00 0. -1.
          4    1    6    6  502    0 -0.31903752038E+01 -0.89835230370E+02 -0.12056602773E+03  0.15038854396E+03  0.00000000000E+00 0. -1.
          1    1    5    5  503    0 -0.71302882080E+03 -0.27868422811E+03  0.11792017047E+04  0.14059131050E+04  0.00000000000E+00 0. -1.
         -2    1    5    5    0  503 -0.80731087653E+02 -0.77827637380E+01  0.10195513611E+03  0.13028019690E+03  0.00000000000E+00 0.  1.
         -3    1    6    6    0  502 -0.81876592255E+01 -0.37171213356E+02  0.58995324844E+01  0.38516767122E+02  0.00000000000E+00 0.  1.
<mgrwt>
<rscale>  0 0.34427385E+04</rscale>
<asrwt>0</asrwt>
<pdfrwt beam="1">  1        2 0.28945074E+00 0.34427385E+04</pdfrwt>
<pdfrwt beam="2">  1       -2 0.24229626E+00 0.34427385E+04</pdfrwt>
<totfact> 0.46024165E-01</totfact>
</mgrwt>
</event>
<event>
12    1  0.1496989E-007  0.1695150E+04  0.7818608E-02  0.8764136E-01
          2   -1    0    0  501    0  0.00000000000E+00  0.00000000000E+00  0.23543351854E+04  0.23543351854E+04  0.00000000000E+00 0. -1.
         -2   -1    0    0    0  501 -0.00000000000E+00 -0.00000000000E+00 -0.30513201253E+03  0.30513201253E+03  0.00000000000E+00 0.  1.
         23    2    1    2    0    0  0.31538734394E+03 -0.38124850412E+03  0.20108155387E+03  0.54180093051E+03  0.91076113114E+02 0.  0.
        254    2    1    2    0    0 -0.31538734394E+03  0.38124850412E+03  0.18481216189E+04  0.21176662674E+04  0.90782008292E+03 0.  0.
        -24    2    4    4    0    0 -0.49688140720E+03  0.23491161138E+03  0.50045238440E+03  0.74763137552E+03  0.80159133219E+02 0.  0.
         24    2    4    4    0    0  0.18149406325E+03  0.14633689274E+03  0.13476692346E+04  0.13700348919E+04  0.80178912287E+02 0.  0.
         11    1    3    3    0    0  0.20668831879E+03 -0.22588858811E+03  0.78722168137E+02  0.31613746237E+03  0.00000000000E+00 0. -1.
        -11    1    3    3    0    0  0.10869902516E+03 -0.15535991601E+03  0.12235938574E+03  0.22566346814E+03  0.00000000000E+00 0.  1.
          4    1    6    6  502    0  0.87934017444E+02  0.55210749955E+02  0.81503691753E+03  0.82162387700E+03  0.00000000000E+00 0. -1.
          3    1    5    5  503    0 -0.28678540749E+03  0.17358154847E+03  0.27717247946E+03  0.43497242130E+03  0.00000000000E+00 0. -1.
         -4    1    5    5    0  503 -0.21009599970E+03  0.61330062908E+02  0.22327990493E+03  0.31265895422E+03  0.00000000000E+00 0.  1.
         -3    1    6    6    0  502  0.93560045810E+02  0.91126142786E+02  0.53263231703E+03  0.54841101485E+03  0.00000000000E+00 0.  1.
<mgrwt>
<rscale>  0 0.16951496E+04</rscale>
<asrwt>0</asrwt>
<pdfrwt beam="1">  1        2 0.36220540E+00 0.16951496E+04</pdfrwt>
<pdfrwt beam="2">  1       -2 0.46943388E-01 0.16951496E+04</pdfrwt>
<totfact> 0.17305284E+01</totfact>
</mgrwt>
</event>
<event>
12    1  0.1496989E-007  0.1419428E+04  0.7818608E-02  0.8939874E-01
         -1   -1    0    0    0  501 -0.00000000000E+00  0.00000000000E+00  0.27903195429E+03  0.27903195429E+03  0.00000000000E+00 0.  1.
          1   -1    0    0  501    0  0.00000000000E+00 -0.00000000000E+00 -0.18051476657E+04  0.18051476657E+04  0.00000000000E+00 0. -1.
         23    2    1    2    0    0  0.11756757300E+03  0.40326478028E+03 -0.45426937405E+03  0.62574176090E+03  0.93527909719E+02 0.  0.
        254    2    1    2    0    0 -0.11756757300E+03 -0.40326478028E+03 -0.10718463374E+04  0.14584378591E+04  0.89540035778E+03 0.  0.
        -24    2    4    4    0    0  0.33694564588E+03 -0.25088991756E+03 -0.78531204226E+03  0.89426236980E+03  0.80697356305E+02 0.  0.
         24    2    4    4    0    0 -0.45451321888E+03 -0.15237486272E+03 -0.28653429513E+03  0.56417548933E+03  0.79948205376E+02 0.  0.
         11    1    3    3    0    0  0.10358792208E+03  0.25887954117E+03 -0.34795240187E+03  0.44589230584E+03  0.00000000000E+00 0. -1.
        -11    1    3    3    0    0  0.13979650918E+02  0.14438523911E+03 -0.10631697218E+03  0.17984945506E+03  0.00000000000E+00 0.  1.
          2    1    6    6  502    0 -0.43675367082E+03 -0.15078943085E+03 -0.25447849263E+03  0.52749457309E+03  0.00000000000E+00 0. -1.
          3    1    5    5  503    0  0.25273230266E+03 -0.17534911512E+03 -0.49628055786E+03  0.58387954331E+03  0.00000000000E+00 0. -1.
         -4    1    5    5    0  503  0.84213343222E+02 -0.75540802436E+02 -0.28903148439E+03  0.31038282649E+03  0.00000000000E+00 0.  1.
         -1    1    6    6    0  502 -0.17759548064E+02 -0.15854318707E+01 -0.32055802510E+02  0.36680916240E+02  0.00000000000E+00 0.  1.
<mgrwt>
<rscale>  0 0.14194279E+04</rscale>
<asrwt>0</asrwt>
<pdfrwt beam="1">  1        1 0.27771503E+00 0.14194279E+04</pdfrwt>
<pdfrwt beam="2">  1       -1 0.42927993E-01 0.14194279E+04</pdfrwt>
<totfact> 0.21044293E+01</totfact>
</mgrwt>
</event>
<event>
12    1  0.1496989E-007  0.2637877E+04  0.7818608E-02  0.8355448E-01
          1   -1    0    0  501    0  0.00000000000E+00  0.00000000000E+00  0.16940108093E+04  0.16940108093E+04  0.00000000000E+00 0. -1.
         -1   -1    0    0    0  501 -0.00000000000E+00 -0.00000000000E+00 -0.10269109499E+04  0.10269109499E+04  0.00000000000E+00 0.  1.
         23    2    1    2    0    0  0.73967369096E+02  0.79090736287E+03  0.11717211156E+04  0.14185170556E+04  0.90855026403E+02 0.  0.
        254    2    1    2    0    0 -0.73967369096E+02 -0.79090736287E+03 -0.50462125618E+03  0.13024047036E+04  0.90033869821E+03 0.  0.
        -24    2    4    4    0    0  0.28545070435E+03 -0.66975967731E+02  0.64712615042E+02  0.31070227544E+03  0.79876758508E+02 0.  0.
         24    2    4    4    0    0 -0.35941807344E+03 -0.72393139514E+03 -0.56933387123E+03  0.99170242818E+03  0.77939930423E+02 0.  0.
         11    1    3    3    0    0  0.36103803420E+02  0.26585889033E+03  0.32422282932E+03  0.42083830296E+03  0.00000000000E+00 0.  1.
        -11    1    3    3    0    0  0.37863565677E+02  0.52504847254E+03  0.84749828632E+03  0.99767875262E+03  0.00000000000E+00 0. -1.
          2    1    6    6  502    0 -0.36085259135E+03 -0.70614083561E+03 -0.56387222192E+03  0.97303718072E+03  0.00000000000E+00 0. -1.
          3    1    5    5  503    0  0.25265242447E+03 -0.84360580831E+02  0.61984923495E+02  0.27348141788E+03  0.00000000000E+00 0. -1.
         -4    1    5    5    0  503  0.32798279881E+02  0.17384613100E+02  0.27276915467E+01  0.37220857553E+02  0.00000000000E+00 0.  1.
         -1    1    6    6    0  502  0.14345179067E+01 -0.17790559527E+02 -0.54616493089E+01  0.18665247469E+02  0.00000000000E+00 0.  1.
<mgrwt>
<rscale>  0 0.26378766E+04</rscale>
<asrwt>0</asrwt>
<pdfrwt beam="1">  1        1 0.26061705E+00 0.26378766E+04</pdfrwt>
<pdfrwt beam="2">  1       -1 0.15798630E+00 0.26378766E+04</pdfrwt>
<totfact> 0.12785892E+00</totfact>
</mgrwt>
</event>
<event>
12    1  0.1496989E-007  0.1809530E+04  0.7818608E-02  0.8701248E-01
          2   -1    0    0  501    0  0.00000000000E+00  0.00000000000E+00  0.95156728504E+03  0.95156728504E+03  0.00000000000E+00 0.  1.
         -2   -1    0    0    0  501 -0.00000000000E+00 -0.00000000000E+00 -0.86026467987E+03  0.86026467987E+03  0.00000000000E+00 0. -1.
         23    2    1    2    0    0  0.28694481164E+03  0.61075902809E+03 -0.14152871848E+02  0.68076717502E+03  0.88767829077E+02 0.  0.
        254    2    1    2    0    0 -0.28694481164E+03 -0.61075902809E+03  0.10545547702E+03  0.11310647899E+04  0.90156685054E+03 0.  0.
        -24    2    4    4    0    0 -0.15498257456E+03  0.21021931409E+03 -0.60956754324E+02  0.27940759718E+03  0.78365305026E+02 0.  0.
         24    2    4    4    0    0 -0.13196223708E+03 -0.82097834217E+03  0.16641223134E+03  0.85165719271E+03  0.78787516923E+02 0.  0.
         11    1    3    3    0    0  0.27306172389E+03  0.52960599896E+03  0.64692128961E+01  0.59589182735E+03  0.00000000000E+00 0.  1.
        -11    1    3    3    0    0  0.13883087753E+02  0.81153029126E+02 -0.20622084744E+02  0.84875347664E+02  0.00000000000E+00 0. -1.
          4    1    6    6  502    0 -0.44979033048E+02 -0.23774201799E+03  0.12835132469E+02  0.24229965158E+03  0.00000000000E+00 0. -1.
          1    1    5    5  503    0 -0.13798959251E+03  0.21391780420E+03 -0.51897210579E+02  0.25979852783E+03  0.00000000000E+00 0. -1.
         -2    1    5    5    0  503 -0.16992982051E+02 -0.36984901122E+01 -0.90595437453E+01  0.19609069355E+02  0.00000000000E+00 0.  1.
         -3    1    6    6    0  502 -0.86983204035E+02 -0.58323632419E+03  0.15357709887E+03  0.60935754113E+03  0.00000000000E+00 0.  1.
<mgrwt>
<rscale>  0 0.18095300E+04</rscale>
<asrwt>0</asrwt>
<pdfrwt beam="1">  1        2 0.14639497E+00 0.18095300E+04</pdfrwt>
<pdfrwt beam="2">  1       -2 0.13234841E+00 0.18095300E+04</pdfrwt>
<totfact> 0.10602997E+01</totfact>
</mgrwt>
</event>
<event>
12    1  0.1496989E-007  0.1294669E+04  0.7818608E-02  0.9033803E-01
          2   -1    0    0  501    0  0.00000000000E+00  0.00000000000E+00  0.20740567354E+04  0.20740567354E+04  0.00000000000E+00 0. -1.
         -2   -1    0    0    0  501 -0.00000000000E+00 -0.00000000000E+00 -0.20203985705E+03  0.20203985705E+03  0.00000000000E+00 0.  1.
         23    2    1    2    0    0  0.11164579109E+03  0.13661102747E+03 -0.92401803106E+01  0.19901025639E+03  0.91609746878E+02 0.  0.
        254    2    1    2    0    0 -0.11164579109E+03 -0.13661102747E+03  0.18812570587E+04  0.20770863360E+04  0.86257299470E+03 0.  0.
        -24    2    4    4    0    0  0.67376947345E+02 -0.41428988756E+03  0.51541459383E+03  0.66957773361E+03  0.80662096737E+02 0.  0.
         24    2    4    4    0    0 -0.17902273844E+03  0.27767886009E+03  0.13658424648E+04  0.14075086024E+04  0.80000856251E+02 0.  0.
         11    1    3    3    0    0  0.19150694735E+02 -0.80396157761E+01  0.14989828841E+02  0.25614048867E+02  0.00000000000E+00 0. -1.
        -11    1    3    3    0    0  0.92495096355E+02  0.14465064324E+03 -0.24230009152E+02  0.17339620753E+03  0.00000000000E+00 0.  1.
          2    1    6    6  502    0 -0.17556236675E+03  0.25804900096E+03  0.11792045525E+04  0.12198093327E+04  0.00000000000E+00 0. -1.
          3    1    5    5  503    0  0.54844908667E+02 -0.40990837894E+03  0.50482519215E+03  0.65259583033E+03  0.00000000000E+00 0. -1.
         -2    1    5    5    0  503  0.12532038679E+02 -0.43815086159E+01  0.10589401683E+02  0.16981903285E+02  0.00000000000E+00 0.  1.
         -1    1    6    6    0  502 -0.34603716849E+01  0.19629859129E+02  0.18663791232E+03  0.18769926973E+03  0.00000000000E+00 0.  1.
<mgrwt>
<rscale>  0 0.12946693E+04</rscale>
<asrwt>0</asrwt>
<pdfrwt beam="1">  1        2 0.31908564E+00 0.12946693E+04</pdfrwt>
<pdfrwt beam="2">  1       -2 0.31083056E-01 0.12946693E+04</pdfrwt>
<totfact> 0.57234909E+01</totfact>
</mgrwt>
</event>
<event>
12    1  0.1577007E-007  0.1620996E+04  0.7818608E-02  0.8807752E-01
         -2   -1    0    0    0  501 -0.00000000000E+00  0.00000000000E+00  0.23916980459E+03  0.23916980459E+03  0.00000000000E+00 0.  1.
          2   -1    0    0  501    0  0.00000000000E+00 -0.00000000000E+00 -0.27466141607E+04  0.27466141607E+04  0.00000000000E+00 0. -1.
         23    2    1    2    0    0  0.45682473787E+03 -0.27276406127E+02 -0.32428292000E+03  0.56823995964E+03  0.91128459126E+02 0.  0.
        254    2    1    2    0    0 -0.45682473787E+03  0.27276406127E+02 -0.21831614361E+04  0.24175440057E+04  0.93214393724E+03 0.  0.
        -24    2    4    4    0    0 -0.19816328128E+03  0.34456479072E+02  0.20242517541E+01  0.21560657605E+03  0.77628364937E+02 0.  0.
         24    2    4    4    0    0 -0.25866145658E+03 -0.71800729449E+01 -0.21851856879E+04  0.22019374296E+04  0.80837187642E+02 0.  0.
         11    1    3    3    0    0  0.39642760363E+03  0.75782211436E+01 -0.28388632200E+03  0.48765122595E+03  0.00000000000E+00 0.  1.
        -11    1    3    3    0    0  0.60397134237E+02 -0.34854627271E+02 -0.40396598003E+02  0.80588733682E+02  0.00000000000E+00 0. -1.
          4    1    6    6  502    0 -0.24254252991E+02 -0.24050445599E+02 -0.20089413268E+03  0.20377719516E+03  0.00000000000E+00 0. -1.
          3    1    5    5  503    0 -0.88076609222E+01  0.23935939304E+02 -0.42424367468E+01  0.25855412409E+02  0.00000000000E+00 0. -1.
         -4    1    5    5    0  503 -0.18935562036E+03  0.10520539769E+02  0.62666885009E+01  0.18975116364E+03  0.00000000000E+00 0.  1.
         -3    1    6    6    0  502 -0.23440720359E+03  0.16870372654E+02 -0.19842915552E+04  0.19981602344E+04  0.00000000000E+00 0.  1.
<mgrwt>
<rscale>  0 0.16209962E+04</rscale>
<asrwt>0</asrwt>
<pdfrwt beam="1">  1        2 0.42255600E+00 0.16209962E+04</pdfrwt>
<pdfrwt beam="2">  1       -2 0.36795357E-01 0.16209962E+04</pdfrwt>
<totfact> 0.16649409E+01</totfact>
</mgrwt>
</event>
<event>
12    1  0.1496989E-007  0.1964932E+04  0.7818608E-02  0.8623194E-01
          2   -1    0    0  501    0  0.00000000000E+00  0.00000000000E+00  0.10530753419E+04  0.10530753419E+04  0.00000000000E+00 0. -1.
         -2   -1    0    0    0  501 -0.00000000000E+00 -0.00000000000E+00 -0.91659142850E+03  0.91659142850E+03  0.00000000000E+00 0.  1.
         23    2    1    2    0    0  0.30422203209E+03  0.38926899733E+03 -0.53621548420E+03  0.73741295563E+03  0.11031511477E+03 0.  0.
        254    2    1    2    0    0 -0.30422203209E+03 -0.38926899733E+03  0.67269939761E+03  0.12322538148E+04  0.90655589314E+03 0.  0.
        -24    2    4    4    0    0  0.59527682048E+02  0.15679264207E+03  0.52236319319E+03  0.55432842173E+03  0.79304577394E+02 0.  0.
         24    2    4    4    0    0 -0.36374971414E+03 -0.54606163940E+03  0.15033620442E+03  0.67792539305E+03  0.80527607842E+02 0.  0.
         11    1    3    3    0    0  0.32927394347E+02  0.21089238905E+02 -0.91492062933E+02  0.99497572211E+02  0.00000000000E+00 0. -1.
        -11    1    3    3    0    0  0.27129463775E+03  0.36817975843E+03 -0.44472342127E+03  0.63791538342E+03  0.00000000000E+00 0.  1.
          4    1    6    6  502    0 -0.77245645340E+02 -0.16369969169E+03  0.66472658205E+02  0.19282918107E+03  0.00000000000E+00 0. -1.
          3    1    5    5  503    0 -0.15325277317E+02  0.66448503394E+02  0.19184576454E+03  0.20360516963E+03  0.00000000000E+00 0. -1.
         -4    1    5    5    0  503  0.74852959365E+02  0.90344138671E+02  0.33051742865E+03  0.35072325210E+03  0.00000000000E+00 0.  1.
         -3    1    6    6    0  502 -0.28650406880E+03 -0.38236194771E+03  0.83863546211E+02  0.48509621198E+03  0.00000000000E+00 0.  1.
<mgrwt>
<rscale>  0 0.19649324E+04</rscale>
<asrwt>0</asrwt>
<pdfrwt beam="1">  1        2 0.16201159E+00 0.19649324E+04</pdfrwt>
<pdfrwt beam="2">  1       -2 0.14101407E+00 0.19649324E+04</pdfrwt>
<totfact> 0.76530212E+00</totfact>
</mgrwt>
</event>
<event>
12    1  0.1496989E-007  0.1791760E+04  0.7818608E-02  0.8710694E-01
         -1   -1    0    0    0  501 -0.00000000000E+00  0.00000000000E+00  0.93427752769E+03  0.93427752769E+03  0.00000000000E+00 0.  1.
          1   -1    0    0  501    0  0.00000000000E+00 -0.00000000000E+00 -0.85906027527E+03  0.85906027527E+03  0.00000000000E+00 0. -1.
         23    2    1    2    0    0 -0.56724901713E+03  0.23333113757E+02 -0.29923158163E+03  0.64862051109E+03  0.94091159725E+02 0.  0.
        254    2    1    2    0    0  0.56724901713E+03 -0.23333113757E+02  0.37444883404E+03  0.11447172919E+04  0.92078763423E+03 0.  0.
        -24    2    4    4    0    0  0.17085318321E+03 -0.15082419087E+03  0.61250973397E+03  0.65853985330E+03  0.81042071817E+02 0.  0.
         24    2    4    4    0    0  0.39639583392E+03  0.12749107711E+03 -0.23806089993E+03  0.48617743857E+03  0.79447327239E+02 0.  0.
         11    1    3    3    0    0 -0.45138502827E+03 -0.16681618428E+02 -0.25217858326E+03  0.51732074962E+03  0.00000000000E+00 0. -1.
        -11    1    3    3    0    0 -0.11586398886E+03  0.40014732185E+02 -0.47052998368E+02  0.13129976147E+03  0.00000000000E+00 0.  1.
          4    1    6    6  502    0  0.25570438067E+03  0.96407548210E+02 -0.11421588892E+03  0.29618307671E+03  0.00000000000E+00 0. -1.
          1    1    5    5  503    0  0.40209344367E+02 -0.70530751072E+02  0.29454612465E+03  0.30553035491E+03  0.00000000000E+00 0. -1.
         -2    1    5    5    0  503  0.13064383884E+03 -0.80293439794E+02  0.31796360932E+03  0.35300949839E+03  0.00000000000E+00 0.  1.
         -3    1    6    6    0  502  0.14069145325E+03  0.31083528899E+02 -0.12384501102E+03  0.18999436186E+03  0.00000000000E+00 0.  1.
<mgrwt>
<rscale>  0 0.17917597E+04</rscale>
<asrwt>0</asrwt>
<pdfrwt beam="1">  1        1 0.13216312E+00 0.17917597E+04</pdfrwt>
<pdfrwt beam="2">  1       -1 0.14373500E+00 0.17917597E+04</pdfrwt>
<totfact> 0.72677576E+00</totfact>
</mgrwt>
</event>
<event>
12    1  0.1496989E-007  0.9629118E+03  0.7818608E-02  0.9350185E-01
          2   -1    0    0  501    0  0.00000000000E+00  0.00000000000E+00  0.16743339024E+04  0.16743339024E+04  0.00000000000E+00 0. -1.
         -2   -1    0    0    0  501 -0.00000000000E+00 -0.00000000000E+00 -0.13844297757E+03  0.13844297757E+03  0.00000000000E+00 0.  1.
         23    2    1    2    0    0 -0.88482441752E+02 -0.11378209194E+03  0.27077396089E+03  0.31955980629E+03  0.89579154683E+02 0.  0.
        254    2    1    2    0    0  0.88482441752E+02  0.11378209194E+03  0.12651169640E+04  0.14932170737E+04  0.78000050626E+03 0.  0.
        -24    2    4    4    0    0 -0.19760820585E+03  0.11667791989E+03  0.57985012492E+02  0.25015118674E+03  0.80935866856E+02 0.  0.
         24    2    4    4    0    0  0.28609064760E+03 -0.28958279525E+01  0.12071319515E+04  0.12430658870E+04  0.78670239774E+02 0.  0.
         11    1    3    3    0    0 -0.60013287147E+02 -0.10474716532E+03  0.26192772777E+03  0.28840890737E+03  0.00000000000E+00 0. -1.
        -11    1    3    3    0    0 -0.28469154605E+02 -0.90349266180E+01  0.88462331236E+01  0.31150898918E+02  0.00000000000E+00 0.  1.
          2    1    6    6  502    0  0.17201324611E+03  0.30494086452E+02  0.80484720680E+03  0.82358816919E+03  0.00000000000E+00 0. -1.
          1    1    5    5  503    0 -0.68610697766E+02  0.45602912633E+02 -0.18142961745E+02  0.84357694074E+02  0.00000000000E+00 0. -1.
         -2    1    5    5    0  503 -0.12899750809E+03  0.71075007255E+02  0.76127974237E+02  0.16579349267E+03  0.00000000000E+00 0.  1.
         -1    1    6    6    0  502  0.11407740150E+03 -0.33389914404E+02  0.40228474467E+03  0.41947771777E+03  0.00000000000E+00 0.  1.
<mgrwt>
<rscale>  0 0.96291177E+03</rscale>
<asrwt>0</asrwt>
<pdfrwt beam="1">  1        2 0.25758982E+00 0.96291177E+03</pdfrwt>
<pdfrwt beam="2">  1       -2 0.21298921E-01 0.96291177E+03</pdfrwt>
<totfact> 0.19399674E+02</totfact>
</mgrwt>
</event>
<event>
12    1  0.1496989E-007  0.1263860E+04  0.7818608E-02  0.9058726E-01
         -2   -1    0    0    0  501 -0.00000000000E+00  0.00000000000E+00  0.37930978043E+03  0.37930978043E+03  0.00000000000E+00 0.  1.
          2   -1    0    0  501    0  0.00000000000E+00 -0.00000000000E+00 -0.10527957434E+04  0.10527957434E+04  0.00000000000E+00 0. -1.
         23    2    1    2    0    0 -0.28252091188E+03  0.26305946538E+02 -0.24718833346E+03  0.38729048452E+03  0.91552054714E+02 0.  0.
        254    2    1    2    0    0  0.28252091188E+03 -0.26305946538E+02 -0.42629762956E+03  0.10448150394E+04  0.91071330781E+03 0.  0.
        -24    2    4    4    0    0 -0.21448443929E+03 -0.68422919891E+01 -0.48599375352E+03  0.53766555377E+03  0.82728033892E+02 0.  0.
         24    2    4    4    0    0  0.49700535117E+03 -0.19463654549E+02  0.59696123959E+02  0.50714948559E+03  0.79017849750E+02 0.  0.
         11    1    3    3    0    0  0.46430626224E+01  0.62751464674E+01 -0.17014586544E+02  0.18719819683E+02  0.00000000000E+00 0.  1.
        -11    1    3    3    0    0 -0.28716397450E+03  0.20030800071E+02 -0.23017374692E+03  0.36857066483E+03  0.00000000000E+00 0. -1.
          2    1    6    6  502    0  0.36078610813E+03 -0.41605986617E-01  0.75646324540E+02  0.36863123032E+03  0.00000000000E+00 0. -1.
          1    1    5    5  503    0 -0.43917341721E+02  0.31959867885E+02 -0.97542056161E+02  0.11164505712E+03  0.00000000000E+00 0. -1.
         -2    1    5    5    0  503 -0.17056709757E+03 -0.38802159875E+02 -0.38845169736E+03  0.42602049665E+03  0.00000000000E+00 0.  1.
         -1    1    6    6    0  502  0.13621924304E+03 -0.19422048563E+02 -0.15950200581E+02  0.13851825527E+03  0.00000000000E+00 0.  1.
<mgrwt>
<rscale>  0 0.12638603E+04</rscale>
<asrwt>0</asrwt>
<pdfrwt beam="1">  1        2 0.16196857E+00 0.12638603E+04</pdfrwt>
<pdfrwt beam="2">  1       -2 0.58355351E-01 0.12638603E+04</pdfrwt>
<totfact> 0.62917884E+01</totfact>
</mgrwt>
</event>
<event>
12    1  0.1496989E-007  0.1387679E+04  0.7818608E-02  0.8962786E-01
         -2   -1    0    0    0  501 -0.00000000000E+00  0.00000000000E+00  0.25525245795E+03  0.25525245795E+03  0.00000000000E+00 0.  1.
          2   -1    0    0  501    0  0.00000000000E+00 -0.00000000000E+00 -0.18860282816E+04  0.18860282816E+04  0.00000000000E+00 0. -1.
         23    2    1    2    0    0 -0.22694122368E+03 -0.18547521966E+03 -0.60584350152E+02  0.31261640853E+03  0.90306031296E+02 0.  0.
        254    2    1    2    0    0  0.22694122368E+03  0.18547521966E+03 -0.15701914735E+04  0.18286643311E+04  0.89028568226E+03 0.  0.
        -24    2    4    4    0    0  0.52177288116E+03  0.11005153600E+03 -0.58954661050E+03  0.79898484188E+03  0.80332381434E+02 0.  0.
         24    2    4    4    0    0 -0.29483165749E+03  0.75423683656E+02 -0.98064486304E+03  0.10296794892E+04  0.77207931857E+02 0.  0.
         11    1    3    3    0    0 -0.25194769605E+02 -0.15754005797E+02  0.21289717714E+02  0.36554304732E+02  0.00000000000E+00 0. -1.
        -11    1    3    3    0    0 -0.20174645407E+03 -0.16972121386E+03 -0.81874067866E+02  0.27606210380E+03  0.00000000000E+00 0.  1.
          4    1    6    6  502    0 -0.65582405135E+02  0.29355143621E+02 -0.34466603416E+03  0.35207591713E+03  0.00000000000E+00 0. -1.
          3    1    5    5  503    0  0.41334062977E+02  0.10102192026E-01 -0.80100530330E+02  0.90136562079E+02  0.00000000000E+00 0. -1.
         -4    1    5    5    0  503  0.48043881819E+03  0.11004143381E+03 -0.50944608017E+03  0.70884827980E+03  0.00000000000E+00 0.  1.
         -3    1    6    6    0  502 -0.22924925235E+03  0.46068540035E+02 -0.63597882888E+03  0.67760357206E+03  0.00000000000E+00 0.  1.
<mgrwt>
<rscale>  0 0.13876791E+04</rscale>
<asrwt>0</asrwt>
<pdfrwt beam="1">  1        2 0.29015820E+00 0.13876791E+04</pdfrwt>
<pdfrwt beam="2">  1       -2 0.39269609E-01 0.13876791E+04</pdfrwt>
<totfact> 0.46185714E+01</totfact>
</mgrwt>
</event>
<event>
12    1  0.1496989E-007  0.1845931E+04  0.7818608E-02  0.8682248E-01
         -2   -1    0    0    0  501 -0.00000000000E+00  0.00000000000E+00  0.79319595132E+03  0.79319595132E+03  0.00000000000E+00 0.  1.
          2   -1    0    0  501    0  0.00000000000E+00 -0.00000000000E+00 -0.10739657767E+04  0.10739657767E+04  0.00000000000E+00 0. -1.
         23    2    1    2    0    0 -0.61891013837E+03  0.32520441545E+03 -0.15187185780E+03  0.72119199886E+03  0.90802900989E+02 0.  0.
        254    2    1    2    0    0  0.61891013837E+03 -0.32520441545E+03 -0.12889796755E+03  0.11459697291E+04  0.89879044433E+03 0.  0.
        -24    2    4    4    0    0 -0.17878338597E+03 -0.95405757908E+02 -0.21632422241E+03  0.30736630882E+03  0.81314948543E+02 0.  0.
         24    2    4    4    0    0  0.79769352434E+03 -0.22979865754E+03  0.87426254860E+02  0.83860342030E+03  0.80560317309E+02 0.  0.
         11    1    3    3    0    0 -0.19348052191E+03  0.56514843149E+02 -0.34279906170E+02  0.20445965817E+03  0.00000000000E+00 0.  1.
        -11    1    3    3    0    0 -0.42542961647E+03  0.26868957230E+03 -0.11759195163E+03  0.51673234069E+03  0.00000000000E+00 0. -1.
          4    1    6    6  502    0  0.73733233326E+03 -0.18932510675E+03  0.75984053725E+02  0.76503368693E+03  0.00000000000E+00 0. -1.
          3    1    5    5  503    0 -0.14100945763E+03 -0.10809928656E+03 -0.16581935560E+03  0.24303329317E+03  0.00000000000E+00 0. -1.
         -4    1    5    5    0  503 -0.37773928340E+02  0.12693528651E+02 -0.50504866809E+02  0.64333015654E+02  0.00000000000E+00 0.  1.
         -3    1    6    6    0  502  0.60361191081E+02 -0.40473550785E+02  0.11442201135E+02  0.73569733374E+02  0.00000000000E+00 0.  1.
<mgrwt>
<rscale>  0 0.18459310E+04</rscale>
<asrwt>0</asrwt>
<pdfrwt beam="1">  1        2 0.16522550E+00 0.18459310E+04</pdfrwt>
<pdfrwt beam="2">  1       -2 0.12203015E+00 0.18459310E+04</pdfrwt>
<totfact> 0.10832606E+01</totfact>
</mgrwt>
</event>
<event>
12    1  0.1496989E-007  0.1500207E+04  0.7818608E-02  0.8884315E-01
          1   -1    0    0  501    0  0.00000000000E+00  0.00000000000E+00  0.16569742603E+04  0.16569742603E+04  0.00000000000E+00 0. -1.
         -1   -1    0    0    0  501 -0.00000000000E+00 -0.00000000000E+00 -0.33956809999E+03  0.33956809999E+03  0.00000000000E+00 0.  1.
         23    2    1    2    0    0  0.15667298154E+03  0.31754577048E+03  0.85081828298E+03  0.92605247952E+03  0.91102715014E+02 0.  0.
        254    2    1    2    0    0 -0.15667298154E+03 -0.31754577048E+03  0.46658787734E+03  0.10704898808E+04  0.89602600302E+03 0.  0.
        -24    2    4    4    0    0 -0.12424697875E+03 -0.23104504392E+03  0.72973119411E+03  0.77951610011E+03  0.79489688807E+02 0.  0.
         24    2    4    4    0    0 -0.32426002786E+02 -0.86500726563E+02 -0.26314331677E+03  0.29097378068E+03  0.82991050892E+02 0.  0.
         11    1    3    3    0    0  0.83737201987E+02  0.13326534396E+03  0.27212305901E+03  0.31436050983E+03  0.00000000000E+00 0. -1.
        -11    1    3    3    0    0  0.72935779552E+02  0.18428042652E+03  0.57869522397E+03  0.61169196969E+03  0.00000000000E+00 0.  1.
          2    1    6    6  502    0 -0.21439107497E+02  0.10274700268E+02 -0.81105247072E+02  0.84517843669E+02  0.00000000000E+00 0. -1.
          1    1    5    5  503    0 -0.76100763831E+02 -0.17038802301E+03  0.40887739993E+03  0.44944869876E+03  0.00000000000E+00 0. -1.
         -4    1    5    5    0  503 -0.48146214921E+02 -0.60657020907E+02  0.32085379417E+03  0.33006740135E+03  0.00000000000E+00 0.  1.
         -3    1    6    6    0  502 -0.10986895289E+02 -0.96775426831E+02 -0.18203806970E+03  0.20645593701E+03  0.00000000000E+00 0.  1.
<mgrwt>
<rscale>  0 0.15002075E+04</rscale>
<asrwt>0</asrwt>
<pdfrwt beam="1">  1        1 0.25491911E+00 0.15002075E+04</pdfrwt>
<pdfrwt beam="2">  1       -1 0.52241247E-01 0.15002075E+04</pdfrwt>
<totfact> 0.18207473E+01</totfact>
</mgrwt>
</event>
<event>
12    1  0.1496989E-007  0.2001139E+04  0.7818608E-02  0.8606088E-01
         -2   -1    0    0    0  501 -0.00000000000E+00  0.00000000000E+00  0.33468695478E+03  0.33468695478E+03  0.00000000000E+00 0.  1.
          2   -1    0    0  501    0  0.00000000000E+00 -0.00000000000E+00 -0.29912702769E+04  0.29912702769E+04  0.00000000000E+00 0. -1.
         23    2    1    2    0    0 -0.63746864416E+03 -0.31981092130E+03 -0.16451506556E+04  0.17950897877E+04  0.84742955742E+02 0.  0.
        254    2    1    2    0    0  0.63746864416E+03  0.31981092130E+03 -0.10114326666E+04  0.15308674441E+04  0.90106259193E+03 0.  0.
        -24    2    4    4    0    0  0.29747462137E+03  0.50294124524E+03 -0.96796676613E+03  0.11333935789E+04  0.78614869827E+02 0.  0.
         24    2    4    4    0    0  0.33999402279E+03 -0.18313032394E+03 -0.43465900437E+02  0.39747386518E+03  0.83447815560E+02 0.  0.
         13    1    3    3    0    0 -0.52154860470E+03 -0.28488581431E+03 -0.13022005823E+04  0.14313976494E+04  0.00000000000E+00 0. -1.
        -13    1    3    3    0    0 -0.11592003946E+03 -0.34925106987E+02 -0.34295007333E+03  0.36369213827E+03  0.00000000000E+00 0.  1.
          4    1    6    6  502    0  0.32805646764E+02 -0.59304868698E+01  0.17479954188E+02  0.37642129756E+02  0.00000000000E+00 0. -1.
          3    1    5    5  503    0  0.11055276270E+03  0.12830153258E+03 -0.31708464595E+03  0.35947999847E+03  0.00000000000E+00 0. -1.
         -4    1    5    5    0  503  0.18692185867E+03  0.37463971265E+03 -0.65088212018E+03  0.77391358039E+03  0.00000000000E+00 0.  1.
         -3    1    6    6    0  502  0.30718837603E+03 -0.17719983707E+03 -0.60945854626E+02  0.35983173543E+03  0.00000000000E+00 0.  1.
<mgrwt>
<rscale>  0 0.20011388E+04</rscale>
<asrwt>0</asrwt>
<pdfrwt beam="1">  1        2 0.46019544E+00 0.20011388E+04</pdfrwt>
<pdfrwt beam="2">  1       -2 0.51490299E-01 0.20011388E+04</pdfrwt>
<totfact> 0.58502710E+00</totfact>
</mgrwt>
</event>
<event>
12    1  0.1496989E-007  0.1341105E+04  0.7818608E-02  0.8997589E-01
         -4   -1    0    0    0  501 -0.00000000000E+00  0.00000000000E+00  0.10505569974E+04  0.10505569974E+04  0.00000000000E+00 0.  1.
          4   -1    0    0  501    0  0.00000000000E+00 -0.00000000000E+00 -0.42800207214E+03  0.42800207214E+03  0.00000000000E+00 0. -1.
         23    2    1    2    0    0 -0.88458394226E+02  0.54781033888E+02 -0.20353975505E+03  0.24615668615E+03  0.91317211230E+02 0.  0.
        254    2    1    2    0    0  0.88458394226E+02 -0.54781033888E+02  0.82609468034E+03  0.12324023834E+04  0.90860187355E+03 0.  0.
        -24    2    4    4    0    0 -0.38700205034E+03 -0.35006438477E+02  0.54724669859E+03  0.67521928042E+03  0.73797627600E+02 0.  0.
         24    2    4    4    0    0  0.47546044456E+03 -0.19774595411E+02  0.27884798176E+03  0.55718310301E+03  0.79013570898E+02 0.  0.
         11    1    3    3    0    0 -0.47929180827E+02  0.74155235292E+02 -0.10066487168E+03  0.13390153728E+03  0.00000000000E+00 0. -1.
        -11    1    3    3    0    0 -0.40529213400E+02 -0.19374201404E+02 -0.10287488337E+03  0.11225514887E+03  0.00000000000E+00 0.  1.
          2    1    6    6  502    0  0.50091043772E+02  0.19247604580E+02  0.17614408214E+02  0.56478759945E+02  0.00000000000E+00 0. -1.
          3    1    5    5  503    0 -0.15372801689E+03 -0.29109850812E+01  0.27671757537E+03  0.31656499100E+03  0.00000000000E+00 0. -1.
         -4    1    5    5    0  503 -0.23327403345E+03 -0.32095453396E+02  0.27052912322E+03  0.35865428942E+03  0.00000000000E+00 0.  1.
         -1    1    6    6    0  502  0.42536940079E+03 -0.39022199990E+02  0.26123357354E+03  0.50070434307E+03  0.00000000000E+00 0.  1.
<mgrwt>
<rscale>  0 0.13411049E+04</rscale>
<asrwt>0</asrwt>
<pdfrwt beam="1">  1        4 0.65846473E-01 0.13411049E+04</pdfrwt>
<pdfrwt beam="2">  1       -4 0.16162415E+00 0.13411049E+04</pdfrwt>
<totfact> 0.10177788E+00</totfact>
</mgrwt>
</event>
<event>
12    1  0.1496989E-007  0.1781487E+04  0.7818608E-02  0.8716207E-01
         -2   -1    0    0    0  501 -0.00000000000E+00  0.00000000000E+00  0.71085915881E+03  0.71085915881E+03  0.00000000000E+00 0.  1.
          2   -1    0    0  501    0  0.00000000000E+00 -0.00000000000E+00 -0.11161481610E+04  0.11161481610E+04  0.00000000000E+00 0. -1.
         23    2    1    2    0    0 -0.24778220648E+03 -0.14734221489E+03  0.45661905960E+03  0.54763681833E+03  0.91100872989E+02 0.  0.
        254    2    1    2    0    0  0.24778220648E+03  0.14734221489E+03 -0.86190806183E+03  0.12793705015E+04  0.90044301484E+03 0.  0.
        -24    2    4    4    0    0 -0.21568628246E+03  0.30503091290E+03 -0.14687857516E+03  0.40919865261E+03  0.79409012056E+02 0.  0.
         24    2    4    4    0    0  0.46346848894E+03 -0.15768869800E+03 -0.71502948667E+03  0.87017184891E+03  0.79139838918E+02 0.  0.
         13    1    3    3    0    0 -0.20393713159E+03 -0.11392996223E+03  0.29147043157E+03  0.37353099258E+03  0.00000000000E+00 0.  1.
        -13    1    3    3    0    0 -0.43845074888E+02 -0.33412252667E+02  0.16514862803E+03  0.17410582575E+03  0.00000000000E+00 0. -1.
          2    1    6    6  502    0  0.24011607387E+03 -0.92821976104E+02 -0.44205443416E+03  0.51155036012E+03  0.00000000000E+00 0. -1.
          3    1    5    5  503    0 -0.55987264524E+02  0.78337556737E+02 -0.19396107131E+01  0.96307365627E+02  0.00000000000E+00 0. -1.
         -4    1    5    5    0  503 -0.15969901793E+03  0.22669335616E+03 -0.14493896445E+03  0.31289128698E+03  0.00000000000E+00 0.  1.
         -1    1    6    6    0  502  0.22335241506E+03 -0.64866721899E+02 -0.27297505251E+03  0.35862148879E+03  0.00000000000E+00 0.  1.
<mgrwt>
<rscale>  0 0.17814872E+04</rscale>
<asrwt>0</asrwt>
<pdfrwt beam="1">  1        2 0.17171510E+00 0.17814872E+04</pdfrwt>
<pdfrwt beam="2">  1       -2 0.10936295E+00 0.17814872E+04</pdfrwt>
<totfact> 0.13416300E+01</totfact>
</mgrwt>
</event>
<event>
12    1  0.1496989E-007  0.2176329E+04  0.7818608E-02  0.8528346E-01
          2   -1    0    0  501    0  0.00000000000E+00  0.00000000000E+00  0.24882000053E+04  0.24882000053E+04  0.00000000000E+00 0. -1.
         -2   -1    0    0    0  501 -0.00000000000E+00 -0.00000000000E+00 -0.47588688672E+03  0.47588688672E+03  0.00000000000E+00 0.  1.
         23    2    1    2    0    0  0.59430126427E+03 -0.52316834235E+03  0.14100818188E+04  0.16198562129E+04  0.93296879499E+02 0.  0.
        254    2    1    2    0    0 -0.59430126427E+03  0.52316834235E+03  0.60223129980E+03  0.13442306791E+04  0.90408764676E+03 0.  0.
        -24    2    4    4    0    0 -0.36339590614E+03  0.22094481076E+03  0.79876576379E+03  0.90845468882E+03  0.79937364486E+02 0.  0.
         24    2    4    4    0    0 -0.23090535813E+03  0.30222353159E+03 -0.19653446398E+03  0.43577599028E+03  0.81354598586E+02 0.  0.
         13    1    3    3    0    0  0.58236222853E+03 -0.48723927191E+03  0.13478406766E+04  0.15470043190E+04  0.00000000000E+00 0.  1.
        -13    1    3    3    0    0  0.11939035747E+02 -0.35929070434E+02  0.62241142139E+02  0.72851893947E+02  0.00000000000E+00 0. -1.
          2    1    6    6  502    0 -0.14923403620E+03  0.17020136446E+03 -0.74482649614E+02  0.23830016181E+03  0.00000000000E+00 0. -1.
          3    1    5    5  503    0 -0.56876791991E+02  0.44644513035E+02  0.82783598465E+02  0.10991463136E+03  0.00000000000E+00 0. -1.
         -4    1    5    5    0  503 -0.30651911415E+03  0.17630029772E+03  0.71598216532E+03  0.79854005747E+03  0.00000000000E+00 0.  1.
         -1    1    6    6    0  502 -0.81671321929E+02  0.13202216713E+03 -0.12205181437E+03  0.19747582847E+03  0.00000000000E+00 0.  1.
<mgrwt>
<rscale>  0 0.21763288E+04</rscale>
<asrwt>0</asrwt>
<pdfrwt beam="1">  1        2 0.38279999E+00 0.21763288E+04</pdfrwt>
<pdfrwt beam="2">  1       -2 0.73213368E-01 0.21763288E+04</pdfrwt>
<totfact> 0.54557733E+00</totfact>
</mgrwt>
</event>
<event>
12    1  0.1496989E-007  0.2396040E+04  0.7818608E-02  0.8440988E-01
          1   -1    0    0  501    0  0.00000000000E+00  0.00000000000E+00  0.11851504931E+04  0.11851504931E+04  0.00000000000E+00 0. -1.
         -1   -1    0    0    0  501 -0.00000000000E+00 -0.00000000000E+00 -0.12110295305E+04  0.12110295305E+04  0.00000000000E+00 0.  1.
         23    2    1    2    0    0  0.47933099840E+03  0.51290855126E+02 -0.92254905070E+03  0.10447950608E+04  0.90061147914E+02 0.  0.
        254    2    1    2    0    0 -0.47933099840E+03 -0.51290855126E+02  0.89667001327E+03  0.13513849628E+04  0.88872675612E+03 0.  0.
        -24    2    4    4    0    0  0.18903619255E+03  0.10283885343E+03  0.17849572908E+02  0.23351783908E+03  0.88890168437E+02 0.  0.
         24    2    4    4    0    0 -0.66836719095E+03 -0.15412970856E+03  0.87882044036E+03  0.11178671237E+04  0.82649082435E+02 0.  0.
         13    1    3    3    0    0  0.86584907255E+02 -0.25394270436E+02 -0.17275222782E+03  0.19489778694E+03  0.00000000000E+00 0. -1.
        -13    1    3    3    0    0  0.39274609115E+03  0.76685125562E+02 -0.74979682287E+03  0.84989727390E+03  0.00000000000E+00 0.  1.
          4    1    6    6  502    0 -0.12726243130E+02 -0.11701480737E+01  0.28988653429E+01  0.13104576720E+02  0.00000000000E+00 0. -1.
          1    1    5    5  503    0  0.26665601281E+02  0.13307072001E+02 -0.29726346458E+02  0.42092613730E+02  0.00000000000E+00 0. -1.
         -2    1    5    5    0  503  0.16237059127E+03  0.89531781429E+02  0.47575919366E+02  0.19142522534E+03  0.00000000000E+00 0.  1.
         -3    1    6    6    0  502 -0.65564094782E+03 -0.15295956048E+03  0.87592157502E+03  0.11047625470E+04  0.00000000000E+00 0.  1.
<mgrwt>
<rscale>  0 0.23960403E+04</rscale>
<asrwt>0</asrwt>
<pdfrwt beam="1">  1        1 0.18233084E+00 0.23960403E+04</pdfrwt>
<pdfrwt beam="2">  1       -1 0.18631224E+00 0.23960403E+04</pdfrwt>
<totfact> 0.18428027E+00</totfact>
</mgrwt>
</event>
<event>
12    1  0.1496989E-007  0.2635126E+04  0.7818608E-02  0.8356367E-01
          2   -1    0    0  501    0  0.00000000000E+00  0.00000000000E+00  0.19811836012E+04  0.19811836012E+04  0.00000000000E+00 0.  1.
         -2   -1    0    0    0  501 -0.00000000000E+00 -0.00000000000E+00 -0.87622982899E+03  0.87622982899E+03  0.00000000000E+00 0. -1.
         23    2    1    2    0    0 -0.98164330879E+03  0.52827337693E+03  0.13603486381E+03  0.11271071747E+04  0.95753603570E+02 0.  0.
        254    2    1    2    0    0  0.98164330879E+03 -0.52827337693E+03  0.96891890838E+03  0.17303062555E+04  0.90136537556E+03 0.  0.
        -24    2    4    4    0    0  0.65859842723E+03 -0.75160501385E+03  0.84382442536E+03  0.13104519028E+04  0.81132876001E+02 0.  0.
         24    2    4    4    0    0  0.32304488156E+03  0.22333163692E+03  0.12509448301E+03  0.41985435266E+03  0.79962692646E+02 0.  0.
         13    1    3    3    0    0 -0.73757125363E+03  0.37942844950E+03  0.61769833472E+02  0.83174083391E+03  0.00000000000E+00 0. -1.
        -13    1    3    3    0    0 -0.24407205516E+03  0.14884492744E+03  0.74265030337E+02  0.29536634078E+03  0.00000000000E+00 0.  1.
          4    1    6    6  502    0  0.20475086403E+03  0.16853490486E+03  0.51498783418E+02  0.27014635879E+03  0.00000000000E+00 0. -1.
          3    1    5    5  503    0  0.38804682180E+03 -0.42256177534E+03  0.53333749847E+03  0.78331837535E+03  0.00000000000E+00 0. -1.
         -4    1    5    5    0  503  0.27055160542E+03 -0.32904323852E+03  0.31048692690E+03  0.52713352747E+03  0.00000000000E+00 0.  1.
         -3    1    6    6    0  502  0.11829401753E+03  0.54796732060E+02  0.73595699595E+02  0.14970799387E+03  0.00000000000E+00 0.  1.
<mgrwt>
<rscale>  0 0.26351259E+04</rscale>
<asrwt>0</asrwt>
<pdfrwt beam="1">  1        2 0.30479748E+00 0.26351259E+04</pdfrwt>
<pdfrwt beam="2">  1       -2 0.13480459E+00 0.26351259E+04</pdfrwt>
<totfact> 0.23904955E+00</totfact>
</mgrwt>
</event>
<event>
12    1  0.1496989E-007  0.1460178E+04  0.7818608E-02  0.8911375E-01
         -2   -1    0    0    0  501 -0.00000000000E+00  0.00000000000E+00  0.10236643298E+04  0.10236643298E+04  0.00000000000E+00 0. -1.
          2   -1    0    0  501    0  0.00000000000E+00 -0.00000000000E+00 -0.52070748872E+03  0.52070748872E+03  0.00000000000E+00 0.  1.
         23    2    1    2    0    0  0.26513521111E+03 -0.19236206465E+03 -0.15613364634E+03  0.37394885036E+03  0.90333731700E+02 0.  0.
        254    2    1    2    0    0 -0.26513521111E+03  0.19236206465E+03  0.65909048740E+03  0.11704229681E+04  0.91004934462E+03 0.  0.
        -24    2    4    4    0    0 -0.17419208717E+03 -0.26637959223E+03  0.61101300018E+03  0.69344870626E+03  0.78950943240E+02 0.  0.
         24    2    4    4    0    0 -0.90943123933E+02  0.45874165688E+03  0.48077487214E+02  0.47697426186E+03  0.80488770357E+02 0.  0.
         13    1    3    3    0    0  0.15832974180E+03 -0.10495658919E+03 -0.13790673378E+03  0.23473913175E+03  0.00000000000E+00 0.  1.
        -13    1    3    3    0    0  0.10680546931E+03 -0.87405475461E+02 -0.18226912558E+02  0.13920971861E+03  0.00000000000E+00 0. -1.
          4    1    6    6  502    0 -0.12560565277E+02  0.81559813165E+02  0.39866431635E+02  0.91646621841E+02  0.00000000000E+00 0. -1.
          3    1    5    5  503    0 -0.32136204245E+02 -0.97039431163E+02  0.14205902788E+03  0.17501472574E+03  0.00000000000E+00 0. -1.
         -4    1    5    5    0  503 -0.14205588293E+03 -0.16934016107E+03  0.46895397230E+03  0.51843398052E+03  0.00000000000E+00 0.  1.
         -3    1    6    6    0  502 -0.78382558656E+02  0.37718184371E+03  0.82110555791E+01  0.38532764002E+03  0.00000000000E+00 0.  1.
<mgrwt>
<rscale>  0 0.14601776E+04</rscale>
<asrwt>0</asrwt>
<pdfrwt beam="1">  1        2 0.80108845E-01 0.14601776E+04</pdfrwt>
<pdfrwt beam="2">  1       -2 0.15748682E+00 0.14601776E+04</pdfrwt>
<totfact> 0.14950880E+01</totfact>
</mgrwt>
</event>
<event>
12    1  0.1496989E-007  0.1576591E+04  0.7818608E-02  0.8835060E-01
          1   -1    0    0  501    0  0.00000000000E+00  0.00000000000E+00  0.10830946861E+04  0.10830946861E+04  0.00000000000E+00 0. -1.
         -1   -1    0    0    0  501 -0.00000000000E+00 -0.00000000000E+00 -0.57373539825E+03  0.57373539825E+03  0.00000000000E+00 0.  1.
         23    2    1    2    0    0 -0.18127302230E+03 -0.35520266147E+03 -0.19079402872E+03  0.45087844248E+03  0.88657595094E+02 0.  0.
        254    2    1    2    0    0  0.18127302230E+03  0.35520266147E+03  0.70015331661E+03  0.12059516419E+04  0.89726019444E+03 0.  0.
        -24    2    4    4    0    0 -0.68963923406E+02 -0.83071940865E+02  0.68117029283E+03  0.69447983383E+03  0.81561643335E+02 0.  0.
         24    2    4    4    0    0  0.25023694570E+03  0.43827460233E+03  0.18983023776E+02  0.51147180807E+03  0.80869643376E+02 0.  0.
         11    1    3    3    0    0 -0.15161297256E+03 -0.30039505749E+03 -0.19412855457E+03  0.38847082221E+03  0.00000000000E+00 0.  1.
        -11    1    3    3    0    0 -0.29660049740E+02 -0.54807603977E+02  0.33345258466E+01  0.62407620263E+02  0.00000000000E+00 0. -1.
          4    1    6    6  502    0  0.11236540583E+02  0.98121767503E+01  0.14550285150E+02  0.20838652903E+02  0.00000000000E+00 0. -1.
          1    1    5    5  503    0 -0.57883817683E+02 -0.66216287641E+02  0.29620161983E+03  0.30898306213E+03  0.00000000000E+00 0. -1.
         -2    1    5    5    0  503 -0.11080105723E+02 -0.16855653224E+02  0.38496867301E+03  0.38549677169E+03  0.00000000000E+00 0.  1.
         -3    1    6    6    0  502  0.23900040512E+03  0.42846242558E+03  0.44327386264E+01  0.49063315517E+03  0.00000000000E+00 0.  1.
<mgrwt>
<rscale>  0 0.15765910E+04</rscale>
<asrwt>0</asrwt>
<pdfrwt beam="1">  1        1 0.16662995E+00 0.15765910E+04</pdfrwt>
<pdfrwt beam="2">  1       -1 0.88266984E-01 0.15765910E+04</pdfrwt>
<totfact> 0.15830142E+01</totfact>
</mgrwt>
</event>
<event>
12    1  0.1496989E-007  0.2300233E+04  0.7818608E-02  0.8477829E-01
          1   -1    0    0  501    0  0.00000000000E+00  0.00000000000E+00  0.29721689918E+04  0.29721689918E+04  0.00000000000E+00 0. -1.
         -1   -1    0    0    0  501 -0.00000000000E+00 -0.00000000000E+00 -0.44505130697E+03  0.44505130697E+03  0.00000000000E+00 0.  1.
         23    2    1    2    0    0 -0.36468739245E+03  0.79365031015E+03  0.17173611410E+04  0.19291472755E+04  0.96965009237E+02 0.  0.
        254    2    1    2    0    0  0.36468739245E+03 -0.79365031015E+03  0.80975654389E+03  0.14880730233E+04  0.89206387288E+03 0.  0.
        -24    2    4    4    0    0  0.26838147756E+03 -0.27710991491E+03  0.86859804885E+03  0.95366730475E+03  0.78741572668E+02 0.  0.
         24    2    4    4    0    0  0.96305914889E+02 -0.51654039524E+03 -0.58841504960E+02  0.53440571854E+03  0.77706757390E+02 0.  0.
         11    1    3    3    0    0 -0.20726633309E+01  0.39245538959E+02  0.11169312200E+03  0.11840549718E+03  0.00000000000E+00 0.  1.
        -11    1    3    3    0    0 -0.36261472911E+03  0.75440477119E+03  0.16056680190E+04  0.18107417783E+04  0.00000000000E+00 0. -1.
          2    1    6    6  502    0  0.29209915070E+02 -0.43637852106E+02 -0.15772003243E+02  0.54829165242E+02  0.00000000000E+00 0. -1.
          1    1    5    5  503    0  0.14399837375E+03 -0.16473828484E+03  0.39910554360E+03  0.45514774422E+03  0.00000000000E+00 0. -1.
         -2    1    5    5    0  503  0.12438310380E+03 -0.11237163007E+03  0.46949250524E+03  0.49851956054E+03  0.00000000000E+00 0.  1.
         -1    1    6    6    0  502  0.67095999819E+02 -0.47290254314E+03 -0.43069501718E+02  0.47957655330E+03  0.00000000000E+00 0.  1.
<mgrwt>
<rscale>  0 0.23002328E+04</rscale>
<asrwt>0</asrwt>
<pdfrwt beam="1">  1        1 0.45725675E+00 0.23002328E+04</pdfrwt>
<pdfrwt beam="2">  1       -1 0.68469434E-01 0.23002328E+04</pdfrwt>
<totfact> 0.12228522E+00</totfact>
</mgrwt>
</event>
<event>
12    1  0.1496989E-007  0.2741042E+04  0.7818608E-02  0.8321810E-01
          2   -1    0    0  501    0  0.00000000000E+00  0.00000000000E+00  0.82140960940E+03  0.82140960940E+03  0.00000000000E+00 0. -1.
         -2   -1    0    0    0  501 -0.00000000000E+00 -0.00000000000E+00 -0.22867133840E+04  0.22867133840E+04  0.00000000000E+00 0.  1.
         23    2    1    2    0    0 -0.44805298772E+03 -0.58031042330E+03  0.44973086476E+03  0.86353791375E+03  0.76994873603E+02 0.  0.
        254    2    1    2    0    0  0.44805298772E+03  0.58031042330E+03 -0.19150346394E+04  0.22445850796E+04  0.91284875123E+03 0.  0.
        -24    2    4    4    0    0  0.57836935133E+03  0.58387554668E+03 -0.19209486423E+04  0.20909365999E+04  0.80934652690E+02 0.  0.
         24    2    4    4    0    0 -0.13031636361E+03 -0.35651233794E+01  0.59140029449E+01  0.15364847971E+03  0.81103730845E+02 0.  0.
         13    1    3    3    0    0 -0.42949772234E+03 -0.53012371799E+03  0.43018765790E+03  0.80657353718E+03  0.00000000000E+00 0. -1.
        -13    1    3    3    0    0 -0.18555265383E+02 -0.50186705308E+02  0.19543206867E+02  0.56964376568E+02  0.00000000000E+00 0.  1.
          2    1    6    6  502    0  0.11134304783E+01 -0.10522315880E+02  0.18626581551E+02  0.21422147399E+02  0.00000000000E+00 0. -1.
          3    1    5    5  503    0  0.49179708424E+03  0.45241609844E+03 -0.15377658198E+04  0.16766837551E+04  0.00000000000E+00 0. -1.
         -4    1    5    5    0  503  0.86572267092E+02  0.13145944824E+03 -0.38318282253E+03  0.41425284482E+03  0.00000000000E+00 0.  1.
         -3    1    6    6    0  502 -0.13142979409E+03  0.69571925002E+01 -0.12712578606E+02  0.13222633231E+03  0.00000000000E+00 0.  1.
<mgrwt>
<rscale>  0 0.27410424E+04</rscale>
<asrwt>0</asrwt>
<pdfrwt beam="1">  1        2 0.12637071E+00 0.27410424E+04</pdfrwt>
<pdfrwt beam="2">  1       -2 0.35180206E+00 0.27410424E+04</pdfrwt>
<totfact> 0.44060823E-01</totfact>
</mgrwt>
</event>
<event>
12    1  0.1496989E-007  0.1205745E+04  0.7818608E-02  0.9107843E-01
          1   -1    0    0  501    0  0.00000000000E+00  0.00000000000E+00  0.41576172530E+03  0.41576172530E+03  0.00000000000E+00 0. -1.
         -1   -1    0    0    0  501 -0.00000000000E+00 -0.00000000000E+00 -0.87419069952E+03  0.87419069952E+03  0.00000000000E+00 0.  1.
         23    2    1    2    0    0  0.39107240773E+02 -0.15412031337E+03  0.11171584846E+03  0.21478161917E+03  0.91478226179E+02 0.  0.
        254    2    1    2    0    0 -0.39107240773E+02  0.15412031337E+03 -0.57014482267E+03  0.10751708057E+04  0.89757712495E+03 0.  0.
        -24    2    4    4    0    0  0.27996579529E+03 -0.45455224203E+02 -0.62102188814E+03  0.68689325204E+03  0.75545550538E+02 0.  0.
         24    2    4    4    0    0 -0.31907303606E+03  0.19957553757E+03  0.50877065469E+02  0.38827755361E+03  0.80826884839E+02 0.  0.
         11    1    3    3    0    0  0.11856301694E+02  0.10450708877E+02  0.43080668817E+01  0.16381350559E+02  0.00000000000E+00 0.  1.
        -11    1    3    3    0    0  0.27250939080E+02 -0.16457102224E+03  0.10740778158E+03  0.19840026861E+03  0.00000000000E+00 0. -1.
          2    1    6    6  502    0  0.39946082214E+01  0.44264663696E+01  0.55260829239E+01  0.81294582750E+01  0.00000000000E+00 0. -1.
          1    1    5    5  503    0  0.24202158410E+01  0.39936480272E+01  0.22275518340E+00  0.46750710320E+01  0.00000000000E+00 0. -1.
         -2    1    5    5    0  503  0.27754557945E+03 -0.49448872230E+02 -0.62124464333E+03  0.68221818101E+03  0.00000000000E+00 0.  1.
         -1    1    6    6    0  502 -0.32306764428E+03  0.19514907120E+03  0.45350982545E+02  0.38014809534E+03  0.00000000000E+00 0.  1.
<mgrwt>
<rscale>  0 0.12057446E+04</rscale>
<asrwt>0</asrwt>
<pdfrwt beam="1">  1        1 0.63963343E-01 0.12057446E+04</pdfrwt>
<pdfrwt beam="2">  1       -1 0.13449088E+00 0.12057446E+04</pdfrwt>
<totfact> 0.26222359E+01</totfact>
</mgrwt>
</event>
<event>
12    1  0.1496989E-007  0.1755284E+04  0.7818608E-02  0.8730447E-01
         -1   -1    0    0    0  501 -0.00000000000E+00  0.00000000000E+00  0.45406527704E+03  0.45406527704E+03  0.00000000000E+00 0.  1.
          1   -1    0    0  501    0  0.00000000000E+00 -0.00000000000E+00 -0.16963536946E+04  0.16963536946E+04  0.00000000000E+00 0. -1.
         23    2    1    2    0    0  0.45560100510E+03  0.14220630020E+03 -0.99849664689E+03  0.11103857925E+04  0.90366734811E+02 0.  0.
        254    2    1    2    0    0 -0.45560100510E+03 -0.14220630020E+03 -0.24379177062E+03  0.10400331790E+04  0.89131345689E+03 0.  0.
        -24    2    4    4    0    0 -0.20971303308E+03  0.17247881691E+03  0.26608322174E+03  0.38739429510E+03  0.74468519933E+02 0.  0.
         24    2    4    4    0    0 -0.24588797202E+03 -0.31468511711E+03 -0.50987499236E+03  0.65263888395E+03  0.80482217208E+02 0.  0.
         11    1    3    3    0    0  0.40100818836E+03  0.15197456260E+03 -0.90934334425E+03  0.10053900500E+04  0.00000000000E+00 0. -1.
        -11    1    3    3    0    0  0.54592816748E+02 -0.97682624024E+01 -0.89153302640E+02  0.10499574259E+03  0.00000000000E+00 0.  1.
          4    1    6    6  502    0 -0.20030963231E+02 -0.46084840380E+02 -0.31369385426E+02  0.59237575429E+02  0.00000000000E+00 0. -1.
          1    1    5    5  503    0 -0.17369365201E+03  0.15010245717E+03  0.18102791298E+03  0.29235481469E+03  0.00000000000E+00 0. -1.
         -2    1    5    5    0  503 -0.36019381069E+02  0.22376359740E+02  0.85055308767E+02  0.95039480413E+02  0.00000000000E+00 0.  1.
         -3    1    6    6    0  502 -0.22585700879E+03 -0.26860027673E+03 -0.47850560694E+03  0.59340130852E+03  0.00000000000E+00 0.  1.
<mgrwt>
<rscale>  0 0.17552838E+04</rscale>
<asrwt>0</asrwt>
<pdfrwt beam="1">  1        1 0.26097750E+00 0.17552838E+04</pdfrwt>
<pdfrwt beam="2">  1       -1 0.69856195E-01 0.17552838E+04</pdfrwt>
<totfact> 0.94069110E+00</totfact>
</mgrwt>
</event>
<event>
12    1  0.1496989E-007  0.1867538E+04  0.7818608E-02  0.8671186E-01
         -1   -1    0    0    0  501 -0.00000000000E+00  0.00000000000E+00  0.67316023385E+03  0.67316023385E+03  0.00000000000E+00 0.  1.
          1   -1    0    0  501    0  0.00000000000E+00 -0.00000000000E+00 -0.12952700627E+04  0.12952700627E+04  0.00000000000E+00 0. -1.
         23    2    1    2    0    0  0.26129327244E+03  0.65207793300E+03 -0.38336719304E+03  0.80524407294E+03  0.89262575497E+02 0.  0.
        254    2    1    2    0    0 -0.26129327244E+03 -0.65207793300E+03 -0.23874263581E+03  0.11631862236E+04  0.89583722837E+03 0.  0.
        -24    2    4    4    0    0  0.32722774524E+03 -0.19816395533E+03 -0.68364236043E+02  0.39668349409E+03  0.79606377039E+02 0.  0.
         24    2    4    4    0    0 -0.58852101768E+03 -0.45391397767E+03 -0.17037839977E+03  0.76650272953E+03  0.78120086378E+02 0.  0.
         11    1    3    3    0    0  0.96743041430E+02  0.27191572665E+03 -0.20618188264E+03  0.35469472394E+03  0.00000000000E+00 0. -1.
        -11    1    3    3    0    0  0.16455023101E+03  0.38016220635E+03 -0.17718531040E+03  0.45054934900E+03  0.00000000000E+00 0.  1.
          4    1    6    6  502    0 -0.46655983710E+03 -0.35715032862E+03 -0.10153053599E+03  0.59627417231E+03  0.00000000000E+00 0. -1.
          3    1    5    5  503    0  0.27175973149E+03 -0.18982336310E+03 -0.75952544326E+02  0.34008094599E+03  0.00000000000E+00 0. -1.
         -4    1    5    5    0  503  0.55468013757E+02 -0.83405922313E+01  0.75883082833E+01  0.56602548101E+02  0.00000000000E+00 0.  1.
         -3    1    6    6    0  502 -0.12196118058E+03 -0.96763649051E+02 -0.68847863780E+02  0.17022855722E+03  0.00000000000E+00 0.  1.
<mgrwt>
<rscale>  0 0.18675377E+04</rscale>
<asrwt>0</asrwt>
<pdfrwt beam="1">  1        1 0.19927232E+00 0.18675377E+04</pdfrwt>
<pdfrwt beam="2">  1       -1 0.10356311E+00 0.18675377E+04</pdfrwt>
<totfact> 0.75194895E+00</totfact>
</mgrwt>
</event>
<event>
12    1  0.1496989E-007  0.1288272E+04  0.7818608E-02  0.9038918E-01
         -2   -1    0    0    0  501 -0.00000000000E+00  0.00000000000E+00  0.88702384619E+03  0.88702384619E+03  0.00000000000E+00 0.  1.
          2   -1    0    0  501    0  0.00000000000E+00 -0.00000000000E+00 -0.46775650322E+03  0.46775650322E+03  0.00000000000E+00 0. -1.
         23    2    1    2    0    0 -0.12957887516E+03  0.14688661784E+03 -0.14952284856E+03  0.26335921466E+03  0.92922711528E+02 0.  0.
        254    2    1    2    0    0  0.12957887516E+03 -0.14688661784E+03  0.56879019153E+03  0.10914211347E+04  0.91066538750E+03 0.  0.
        -24    2    4    4    0    0  0.24203383269E+03  0.77630238406E+02  0.73377245719E+03  0.78075933262E+03  0.80970898944E+02 0.  0.
         24    2    4    4    0    0 -0.11245495753E+03 -0.22451685625E+03 -0.16498226565E+03  0.31066180212E+03  0.78978928218E+02 0.  0.
         11    1    3    3    0    0 -0.55957134531E+01 -0.30931158874E+01 -0.39102701982E+02  0.39621972152E+02  0.00000000000E+00 0.  1.
        -11    1    3    3    0    0 -0.12398316171E+03  0.14997973373E+03 -0.11042014658E+03  0.22373724251E+03  0.00000000000E+00 0. -1.
          4    1    6    6  502    0  0.34837132504E+00 -0.72855009095E+02 -0.60451318123E+02  0.94669612736E+02  0.00000000000E+00 0. -1.
          3    1    5    5  503    0  0.13677735991E+03  0.73727743703E+02  0.51538161855E+03  0.53829549423E+03  0.00000000000E+00 0. -1.
         -4    1    5    5    0  503  0.10525647277E+03  0.39024947034E+01  0.21839083864E+03  0.24246383839E+03  0.00000000000E+00 0.  1.
         -3    1    6    6    0  502 -0.11280332885E+03 -0.15166184715E+03 -0.10453094753E+03  0.21599218938E+03  0.00000000000E+00 0.  1.
<mgrwt>
<rscale>  0 0.12882720E+04</rscale>
<asrwt>0</asrwt>
<pdfrwt beam="1">  1        2 0.71962539E-01 0.12882720E+04</pdfrwt>
<pdfrwt beam="2">  1       -2 0.13646521E+00 0.12882720E+04</pdfrwt>
<totfact> 0.25024719E+01</totfact>
</mgrwt>
</event>
<event>
12    1  0.1496989E-007  0.1777235E+04  0.7818608E-02  0.8718500E-01
         -1   -1    0    0    0  501 -0.00000000000E+00  0.00000000000E+00  0.75070275929E+03  0.75070275929E+03  0.00000000000E+00 0.  1.
          1   -1    0    0  501    0  0.00000000000E+00 -0.00000000000E+00 -0.10518694537E+04  0.10518694537E+04  0.00000000000E+00 0. -1.
         23    2    1    2    0    0  0.53577830398E+02 -0.52940045041E+03  0.28118370675E+03  0.60901945104E+03  0.93300557308E+02 0.  0.
        254    2    1    2    0    0 -0.53577830398E+02  0.52940045041E+03 -0.58235040112E+03  0.11935527619E+04  0.89571244547E+03 0.  0.
        -24    2    4    4    0    0 -0.37721062557E+03  0.56402479820E+03 -0.26630897569E+03  0.73311242981E+03  0.78240240123E+02 0.  0.
         24    2    4    4    0    0  0.32363279517E+03 -0.34624347793E+02 -0.31604142543E+03  0.46044033210E+03  0.78651670443E+02 0.  0.
         13    1    3    3    0    0  0.27034741286E+02 -0.31294938118E+02  0.19237089881E+02  0.45610481419E+02  0.00000000000E+00 0. -1.
        -13    1    3    3    0    0  0.26543089112E+02 -0.49810551229E+03  0.26194661687E+03  0.56340896962E+03  0.00000000000E+00 0.  1.
          4    1    6    6  502    0  0.21666376781E+03  0.14346116878E+02 -0.20926616357E+03  0.30156479663E+03  0.00000000000E+00 0. -1.
          1    1    5    5  503    0 -0.35019311182E+03  0.52366379622E+03 -0.26778689140E+03  0.68452085888E+03  0.00000000000E+00 0. -1.
         -2    1    5    5    0  503 -0.27017513756E+02  0.40361001976E+02  0.14779157092E+01  0.48591570925E+02  0.00000000000E+00 0.  1.
         -3    1    6    6    0  502  0.10696902736E+03 -0.48970464671E+02 -0.10677526185E+03  0.15887553546E+03  0.00000000000E+00 0.  1.
<mgrwt>
<rscale>  0 0.17772353E+04</rscale>
<asrwt>0</asrwt>
<pdfrwt beam="1">  1        1 0.16182607E+00 0.17772353E+04</pdfrwt>
<pdfrwt beam="2">  1       -1 0.11549273E+00 0.17772353E+04</pdfrwt>
<totfact> 0.88612960E+00</totfact>
</mgrwt>
</event>
<event>
12    1  0.1496989E-007  0.2406137E+04  0.7818608E-02  0.8437209E-01
          2   -1    0    0  501    0  0.00000000000E+00  0.00000000000E+00  0.15852403505E+04  0.15852403505E+04  0.00000000000E+00 0. -1.
         -2   -1    0    0    0  501 -0.00000000000E+00 -0.00000000000E+00 -0.91303139633E+03  0.91303139633E+03  0.00000000000E+00 0.  1.
         23    2    1    2    0    0  0.11447898082E+03 -0.82150656092E+03 -0.35358687892E+03  0.90626885241E+03  0.91219982663E+02 0.  0.
        254    2    1    2    0    0 -0.11447898082E+03  0.82150656092E+03  0.10257958331E+04  0.15920028944E+04  0.89120012225E+03 0.  0.
        -24    2    4    4    0    0  0.35349953690E+03  0.24615927458E+03  0.56563883734E+03  0.71558336286E+03  0.80968783168E+02 0.  0.
         24    2    4    4    0    0 -0.46797851772E+03  0.57534728634E+03  0.46015699572E+03  0.87641953152E+03  0.79613702133E+02 0.  0.
         13    1    3    3    0    0  0.11009705079E+03 -0.82004763332E+03 -0.35635764958E+03  0.90088304231E+03  0.00000000000E+00 0.  1.
        -13    1    3    3    0    0  0.43819300257E+01 -0.14589275944E+01  0.27707706554E+01  0.53858101062E+01  0.00000000000E+00 0. -1.
          2    1    6    6  502    0 -0.23674759658E+03  0.31910701763E+03  0.28787286784E+03  0.49066230875E+03  0.00000000000E+00 0. -1.
          1    1    5    5  503    0  0.34447099167E+03  0.22205864229E+03  0.50992415156E+03  0.65421169744E+03  0.00000000000E+00 0. -1.
         -2    1    5    5    0  503  0.90285452322E+01  0.24100632286E+02  0.55714685781E+02  0.61371665427E+02  0.00000000000E+00 0.  1.
         -1    1    6    6    0  502 -0.23123092113E+03  0.25624026871E+03  0.17228412788E+03  0.38575722277E+03  0.00000000000E+00 0.  1.
<mgrwt>
<rscale>  0 0.24061373E+04</rscale>
<asrwt>0</asrwt>
<pdfrwt beam="1">  1        2 0.24388313E+00 0.24061373E+04</pdfrwt>
<pdfrwt beam="2">  1       -2 0.14046637E+00 0.24061373E+04</pdfrwt>
<totfact> 0.36381065E+00</totfact>
</mgrwt>
</event>
<event>
12    1  0.1496989E-007  0.1257188E+04  0.7818608E-02  0.9064222E-01
          1   -1    0    0  501    0  0.00000000000E+00  0.00000000000E+00  0.31792394207E+03  0.31792394207E+03  0.00000000000E+00 0. -1.
         -1   -1    0    0    0  501 -0.00000000000E+00 -0.00000000000E+00 -0.12428456756E+04  0.12428456756E+04  0.00000000000E+00 0.  1.
         23    2    1    2    0    0  0.16895119722E+03  0.81949846383E+02 -0.51339043518E+03  0.55396281569E+03  0.89692685687E+02 0.  0.
        254    2    1    2    0    0 -0.16895119722E+03 -0.81949846383E+02 -0.41153129838E+03  0.10068068020E+04  0.89946742169E+03 0.  0.
        -24    2    4    4    0    0 -0.23390107413E+03  0.30424249304E+03  0.51766239466E+02  0.39499000282E+03  0.77872663585E+02 0.  0.
         24    2    4    4    0    0  0.64949876905E+02 -0.38619233942E+03 -0.46329753784E+03  0.61181679919E+03  0.79449214364E+02 0.  0.
         11    1    3    3    0    0 -0.36636391723E+01  0.15123401169E+02 -0.12480654770E+02  0.19947587784E+02  0.00000000000E+00 0. -1.
        -11    1    3    3    0    0  0.17261483639E+03  0.66826445214E+02 -0.50090978041E+03  0.53401522790E+03  0.00000000000E+00 0.  1.
          2    1    6    6  502    0  0.11130120405E+01 -0.33838627624E+02 -0.82096559901E+02  0.88803922565E+02  0.00000000000E+00 0. -1.
          3    1    5    5  503    0 -0.14242698409E+03  0.14797837055E+03 -0.43294783453E+01  0.20543073853E+03  0.00000000000E+00 0. -1.
         -4    1    5    5    0  503 -0.91474090037E+02  0.15626412249E+03  0.56095717812E+02  0.18955926430E+03  0.00000000000E+00 0.  1.
         -1    1    6    6    0  502  0.63836864864E+02 -0.35235371180E+03 -0.38120097794E+03  0.52301287663E+03  0.00000000000E+00 0.  1.
<mgrwt>
<rscale>  0 0.12571880E+04</rscale>
<asrwt>0</asrwt>
<pdfrwt beam="1">  1        1 0.48911376E-01 0.12571880E+04</pdfrwt>
<pdfrwt beam="2">  1       -1 0.19120703E+00 0.12571880E+04</pdfrwt>
<totfact> 0.13879866E+01</totfact>
</mgrwt>
</event>
<event>
12    1  0.1496989E-007  0.1679866E+04  0.7818608E-02  0.8772932E-01
         -1   -1    0    0    0  501 -0.00000000000E+00  0.00000000000E+00  0.38838338976E+03  0.38838338976E+03  0.00000000000E+00 0.  1.
          1   -1    0    0  501    0  0.00000000000E+00 -0.00000000000E+00 -0.18164712669E+04  0.18164712669E+04  0.00000000000E+00 0. -1.
         23    2    1    2    0    0 -0.42929194102E+03 -0.32994030654E+03 -0.19459100190E+03  0.58244581725E+03  0.90693414955E+02 0.  0.
        254    2    1    2    0    0  0.42929194102E+03  0.32994030654E+03 -0.12334968753E+04  0.16224088394E+04  0.90418124538E+03 0.  0.
        -24    2    4    4    0    0  0.48336635307E+03 -0.16385926845E+03 -0.83459384867E+03  0.98149185339E+03  0.79287293332E+02 0.  0.
         24    2    4    4    0    0 -0.54074412057E+02  0.49379957499E+03 -0.39890302658E+03  0.64091698604E+03  0.69920641281E+02 0.  0.
         11    1    3    3    0    0 -0.14328703566E+03 -0.59610223817E+02 -0.47278577054E+02  0.16223383501E+03  0.00000000000E+00 0. -1.
        -11    1    3    3    0    0 -0.28600490535E+03 -0.27033008272E+03 -0.14731242484E+03  0.42021198225E+03  0.00000000000E+00 0.  1.
          2    1    6    6  502    0 -0.65625797411E+02  0.37534625731E+03 -0.32505975727E+03  0.50085467349E+03  0.00000000000E+00 0. -1.
          1    1    5    5  503    0  0.41568891069E+03 -0.11012198176E+03 -0.68921377813E+03  0.81236676034E+03  0.00000000000E+00 0. -1.
         -2    1    5    5    0  503  0.67677442387E+02 -0.53737286690E+02 -0.14538007054E+03  0.16912509305E+03  0.00000000000E+00 0.  1.
         -1    1    6    6    0  502  0.11551385354E+02  0.11845331769E+03 -0.73843269309E+02  0.14006231255E+03  0.00000000000E+00 0.  1.
<mgrwt>
<rscale>  0 0.16798658E+04</rscale>
<asrwt>0</asrwt>
<pdfrwt beam="1">  1        1 0.27945711E+00 0.16798658E+04</pdfrwt>
<pdfrwt beam="2">  1       -1 0.59751291E-01 0.16798658E+04</pdfrwt>
<totfact> 0.10748133E+01</totfact>
</mgrwt>
</event>
<event>
12    1  0.1496989E-007  0.2538140E+04  0.7818608E-02  0.8389523E-01
          1   -1    0    0  501    0  0.00000000000E+00  0.00000000000E+00  0.34483692180E+04  0.34483692180E+04  0.00000000000E+00 0. -1.
         -1   -1    0    0    0  501 -0.00000000000E+00 -0.00000000000E+00 -0.46704357427E+03  0.46704357427E+03  0.00000000000E+00 0.  1.
         23    2    1    2    0    0 -0.79227687781E+03  0.77211900352E+03  0.14660960527E+04  0.18390178296E+04  0.93158654144E+02 0.  0.
        254    2    1    2    0    0  0.79227687781E+03 -0.77211900352E+03  0.15152295910E+04  0.20763949627E+04  0.88973306167E+03 0.  0.
        -24    2    4    4    0    0  0.93201526317E+03 -0.68478987230E+03  0.10050836053E+04  0.15343607631E+04  0.80500171144E+02 0.  0.
         24    2    4    4    0    0 -0.13973838536E+03 -0.87329131222E+02  0.51014598564E+03  0.54203419963E+03  0.79993458461E+02 0.  0.
         13    1    3    3    0    0 -0.53736829678E+03  0.51396093090E+03  0.91206055441E+03  0.11767646238E+04  0.00000000000E+00 0.  1.
        -13    1    3    3    0    0 -0.25490858103E+03  0.25815807263E+03  0.55403549834E+03  0.66225320578E+03  0.00000000000E+00 0. -1.
          2    1    6    6  502    0 -0.74871839757E+02 -0.12083668231E+02  0.14527055884E+03  0.16387599791E+03  0.00000000000E+00 0. -1.
          1    1    5    5  503    0  0.48042260992E+03 -0.40270662931E+03  0.54606466581E+03  0.83136341792E+03  0.00000000000E+00 0. -1.
         -2    1    5    5    0  503  0.45159265325E+03 -0.28208324299E+03  0.45901893950E+03  0.70299734513E+03  0.00000000000E+00 0.  1.
         -1    1    6    6    0  502 -0.64866545599E+02 -0.75245462991E+02  0.36487542681E+03  0.37815820172E+03  0.00000000000E+00 0.  1.
<mgrwt>
<rscale>  0 0.25381400E+04</rscale>
<asrwt>0</asrwt>
<pdfrwt beam="1">  1        1 0.53051832E+00 0.25381400E+04</pdfrwt>
<pdfrwt beam="2">  1       -1 0.71852860E-01 0.25381400E+04</pdfrwt>
<totfact> 0.47519570E-01</totfact>
</mgrwt>
</event>
<event>
12    1  0.1496989E-007  0.1755487E+04  0.7818608E-02  0.8730336E-01
         -2   -1    0    0    0  501 -0.00000000000E+00  0.00000000000E+00  0.67580471431E+03  0.67580471431E+03  0.00000000000E+00 0.  1.
          2   -1    0    0  501    0  0.00000000000E+00 -0.00000000000E+00 -0.11400246995E+04  0.11400246995E+04  0.00000000000E+00 0. -1.
         23    2    1    2    0    0  0.64441079889E+02  0.42492592445E+03  0.31867931735E+03  0.54299370362E+03  0.92579483799E+02 0.  0.
        254    2    1    2    0    0 -0.64441079889E+02 -0.42492592445E+03 -0.78289930250E+03  0.12728357102E+04  0.90689841390E+03 0.  0.
        -24    2    4    4    0    0  0.36950092459E+03 -0.33556979822E+02 -0.47500794779E+03  0.60746078230E+03  0.75624383629E+02 0.  0.
         24    2    4    4    0    0 -0.43394200448E+03 -0.39136894463E+03 -0.30789135471E+03  0.66537492785E+03  0.80320571689E+02 0.  0.
         11    1    3    3    0    0  0.36546080526E+02  0.31595532145E+03  0.18373989751E+03  0.36731965792E+03  0.00000000000E+00 0. -1.
        -11    1    3    3    0    0  0.27894999363E+02  0.10897060300E+03  0.13493941984E+03  0.17567404571E+03  0.00000000000E+00 0.  1.
          2    1    6    6  502    0 -0.23577765044E+03 -0.17827570556E+03 -0.12016354218E+03  0.31908087456E+03  0.00000000000E+00 0. -1.
          3    1    5    5  503    0  0.43220791930E+02  0.78501672771E+01 -0.96457666296E+02  0.10598935498E+03  0.00000000000E+00 0. -1.
         -4    1    5    5    0  503  0.32628013266E+03 -0.41407147099E+02 -0.37855028149E+03  0.50147142732E+03  0.00000000000E+00 0.  1.
         -1    1    6    6    0  502 -0.19816435404E+03 -0.21309323907E+03 -0.18772781253E+03  0.34629405330E+03  0.00000000000E+00 0.  1.
<mgrwt>
<rscale>  0 0.17554875E+04</rscale>
<asrwt>0</asrwt>
<pdfrwt beam="1">  1        2 0.17538841E+00 0.17554875E+04</pdfrwt>
<pdfrwt beam="2">  1       -2 0.10396996E+00 0.17554875E+04</pdfrwt>
<totfact> 0.14684040E+01</totfact>
</mgrwt>
</event>
<event>
12    1  0.1496989E-007  0.2715616E+04  0.7818608E-02  0.8329956E-01
         -2   -1    0    0    0  501 -0.00000000000E+00  0.00000000000E+00  0.81801845033E+03  0.81801845033E+03  0.00000000000E+00 0. -1.
          2   -1    0    0  501    0  0.00000000000E+00 -0.00000000000E+00 -0.22537901644E+04  0.22537901644E+04  0.00000000000E+00 0.  1.
         23    2    1    2    0    0  0.10530682932E+04  0.96062419552E+02 -0.13028979457E+04  0.16796713294E+04  0.74645156304E+02 0.  0.
        254    2    1    2    0    0 -0.10530682932E+04 -0.96062419552E+02 -0.13287376842E+03  0.13921372853E+04  0.89566174656E+03 0.  0.
        -24    2    4    4    0    0 -0.11773082891E+04 -0.11308049898E+03  0.11017207135E+02  0.11854106530E+04  0.78962209565E+02 0.  0.
         24    2    4    4    0    0  0.12423999591E+03  0.17018079430E+02 -0.14389097556E+03  0.20672663231E+03  0.79410931544E+02 0.  0.
         11    1    3    3    0    0  0.33021732130E+03  0.73808631823E+01 -0.36581091449E+03  0.49286466863E+03  0.00000000000E+00 0. -1.
        -11    1    3    3    0    0  0.72285097193E+03  0.88681556369E+02 -0.93708703118E+03  0.11868066608E+04  0.00000000000E+00 0.  1.
          2    1    6    6  502    0  0.64703486340E+02 -0.31152792048E+02 -0.71825308900E+02  0.10156728113E+03  0.00000000000E+00 0. -1.
          3    1    5    5  503    0 -0.61154926376E+03 -0.57119626522E+02 -0.33700038808E+02  0.61513481966E+03  0.00000000000E+00 0. -1.
         -4    1    5    5    0  503 -0.56575902538E+03 -0.55960872459E+02  0.44717245944E+02  0.57027583338E+03  0.00000000000E+00 0.  1.
         -1    1    6    6    0  502  0.59536509569E+02  0.48170871478E+02 -0.72065666657E+02  0.10515935118E+03  0.00000000000E+00 0.  1.
<mgrwt>
<rscale>  0 0.27156155E+04</rscale>
<asrwt>0</asrwt>
<pdfrwt beam="1">  1        2 0.34673694E+00 0.27156155E+04</pdfrwt>
<pdfrwt beam="2">  1       -2 0.12584899E+00 0.27156155E+04</pdfrwt>
<totfact> 0.19886255E+00</totfact>
</mgrwt>
</event>
<event>
12    1  0.1496989E-007  0.1698255E+04  0.7818608E-02  0.8762360E-01
          2   -1    0    0  501    0  0.00000000000E+00  0.00000000000E+00  0.11642909247E+04  0.11642909247E+04  0.00000000000E+00 0. -1.
         -2   -1    0    0    0  501 -0.00000000000E+00 -0.00000000000E+00 -0.61927639626E+03  0.61927639626E+03  0.00000000000E+00 0.  1.
         23    2    1    2    0    0 -0.54679832905E+03  0.19163748451E+03  0.78457174485E+01  0.58645062645E+03  0.90274270201E+02 0.  0.
        254    2    1    2    0    0  0.54679832905E+03 -0.19163748451E+03  0.53716881097E+03  0.11971166945E+04  0.89934682445E+03 0.  0.
        -24    2    4    4    0    0  0.10506933259E+03 -0.45753789170E+03  0.47293650950E+03  0.67139161434E+03  0.81958958010E+02 0.  0.
         24    2    4    4    0    0  0.44172899646E+03  0.26590040720E+03  0.64232301473E+02  0.52572508016E+03  0.80209341662E+02 0.  0.
         11    1    3    3    0    0 -0.47197255085E+03  0.13027468089E+03  0.54871069581E+01  0.48965262133E+03  0.00000000000E+00 0.  1.
        -11    1    3    3    0    0 -0.74825778208E+02  0.61362803617E+02  0.23586104904E+01  0.96798005122E+02  0.00000000000E+00 0. -1.
          4    1    6    6  502    0  0.41252819977E+03  0.22543708238E+03  0.70749142372E+02  0.47540176152E+03  0.00000000000E+00 0. -1.
          1    1    5    5  503    0  0.56437161956E+02 -0.34362199379E+03  0.30633649004E+03  0.46379227354E+03  0.00000000000E+00 0. -1.
         -2    1    5    5    0  503  0.48632170635E+02 -0.11391589791E+03  0.16660001946E+03  0.20759934080E+03  0.00000000000E+00 0.  1.
         -3    1    6    6    0  502  0.29200796697E+02  0.40463324814E+02 -0.65168408993E+01  0.50323318631E+02  0.00000000000E+00 0.  1.
<mgrwt>
<rscale>  0 0.16982554E+04</rscale>
<asrwt>0</asrwt>
<pdfrwt beam="1">  1        2 0.17912168E+00 0.16982554E+04</pdfrwt>
<pdfrwt beam="2">  1       -2 0.95273292E-01 0.16982554E+04</pdfrwt>
<totfact> 0.17536864E+01</totfact>
</mgrwt>
</event>
<event>
12    1  0.1496989E-007  0.2071165E+04  0.7818608E-02  0.8574053E-01
          1   -1    0    0  501    0  0.00000000000E+00  0.00000000000E+00  0.20729134172E+04  0.20729134172E+04  0.00000000000E+00 0. -1.
         -1   -1    0    0    0  501 -0.00000000000E+00 -0.00000000000E+00 -0.51735457600E+03  0.51735457600E+03  0.00000000000E+00 0.  1.
         23    2    1    2    0    0 -0.22269758674E+03  0.76005634877E+03  0.29028422410E+03  0.84823781875E+03  0.89233390387E+02 0.  0.
        254    2    1    2    0    0  0.22269758674E+03 -0.76005634877E+03  0.12652746171E+04  0.17420301744E+04  0.89803641550E+03 0.  0.
        -24    2    4    4    0    0 -0.94987638917E+02  0.13715653015E+03  0.40466806305E+02  0.18880513468E+03  0.78582766308E+02 0.  0.
         24    2    4    4    0    0  0.31768522566E+03 -0.89721287891E+03  0.12248078108E+04  0.15532250398E+04  0.80243367833E+02 0.  0.
         11    1    3    3    0    0 -0.72708110639E+02  0.23000941884E+03  0.45690008107E+02  0.24551655534E+03  0.00000000000E+00 0. -1.
        -11    1    3    3    0    0 -0.14998947610E+03  0.53004692993E+03  0.24459421599E+03  0.60272126341E+03  0.00000000000E+00 0.  1.
          2    1    6    6  502    0  0.12198597733E+03 -0.36529394193E+03  0.55938785549E+03  0.67914285357E+03  0.00000000000E+00 0. -1.
          3    1    5    5  503    0 -0.93742216257E+02  0.11102385021E+03  0.58631278643E+01  0.14542446387E+03  0.00000000000E+00 0. -1.
         -4    1    5    5    0  503 -0.12454226600E+01  0.26132679939E+02  0.34603678440E+02  0.43380670811E+02  0.00000000000E+00 0.  1.
         -1    1    6    6    0  502  0.19569924833E+03 -0.53191893698E+03  0.66541995529E+03  0.87408218619E+03  0.00000000000E+00 0.  1.
<mgrwt>
<rscale>  0 0.20711651E+04</rscale>
<asrwt>0</asrwt>
<pdfrwt beam="1">  1        1 0.31890975E+00 0.20711651E+04</pdfrwt>
<pdfrwt beam="2">  1       -1 0.79593013E-01 0.20711651E+04</pdfrwt>
<totfact> 0.38653595E+00</totfact>
</mgrwt>
</event>
<event>
12    1  0.2620652E-007  0.1784650E+04  0.7818608E-02  0.8714505E-01
         -1   -1    0    0    0  501 -0.00000000000E+00  0.00000000000E+00  0.36408297580E+03  0.36408297580E+03  0.00000000000E+00 0.  1.
          1   -1    0    0  501    0  0.00000000000E+00 -0.00000000000E+00 -0.21869850166E+04  0.21869850166E+04  0.00000000000E+00 0. -1.
         23    2    1    2    0    0 -0.51859561998E+03 -0.54712466784E+02 -0.91146034769E+02  0.53774914378E+03  0.94507517647E+02 0.  0.
        254    2    1    2    0    0  0.51859561998E+03  0.54712466784E+02 -0.17317560060E+04  0.20133188486E+04  0.88461237312E+03 0.  0.
        -24    2    4    4    0    0 -0.11745300722E+03 -0.22351852339E+03 -0.20767479666E+03  0.33667125566E+03  0.80392624118E+02 0.  0.
         24    2    4    4    0    0  0.63604862721E+03  0.27823099018E+03 -0.15240812094E+04  0.16766475930E+04  0.79707453485E+02 0.  0.
         13    1    3    3    0    0 -0.45873565284E+03 -0.51051155360E+02 -0.11072422865E+03  0.47466248478E+03  0.00000000000E+00 0.  1.
        -13    1    3    3    0    0 -0.59859967143E+02 -0.36613114242E+01  0.19578193877E+02  0.63086658995E+02  0.00000000000E+00 0. -1.
          4    1    6    6  502    0  0.44842783997E+02  0.50766459800E+01 -0.68696894531E+02  0.82194348523E+02  0.00000000000E+00 0. -1.
          3    1    5    5  503    0  0.10503401713E+02 -0.36698706724E+02 -0.36487719124E+02  0.52805967178E+02  0.00000000000E+00 0. -1.
         -4    1    5    5    0  503 -0.12795640894E+03 -0.18681981667E+03 -0.17118707753E+03  0.28386528848E+03  0.00000000000E+00 0.  1.
         -3    1    6    6    0  502  0.59120584321E+03  0.27315434420E+03 -0.14553843148E+04  0.15944532444E+04  0.00000000000E+00 0.  1.
<mgrwt>
<rscale>  0 0.17846501E+04</rscale>
<asrwt>0</asrwt>
<pdfrwt beam="1">  1        1 0.33645922E+00 0.17846501E+04</pdfrwt>
<pdfrwt beam="2">  1       -1 0.56012768E-01 0.17846501E+04</pdfrwt>
<totfact> 0.67769806E+00</totfact>
</mgrwt>
</event>
<event>
12    1  0.1496989E-007  0.1567531E+04  0.7818608E-02  0.8840747E-01
         -2   -1    0    0    0  501 -0.00000000000E+00  0.00000000000E+00  0.82206863489E+03  0.82206863489E+03  0.00000000000E+00 0.  1.
          2   -1    0    0  501    0  0.00000000000E+00 -0.00000000000E+00 -0.74724736844E+03  0.74724736844E+03  0.00000000000E+00 0. -1.
         23    2    1    2    0    0 -0.74843124105E+02 -0.17965479313E+03  0.50809312502E+03  0.55156488433E+03  0.90486794727E+02 0.  0.
        254    2    1    2    0    0  0.74843124105E+02  0.17965479313E+03 -0.43327185857E+03  0.10177511190E+04  0.90011971363E+03 0.  0.
        -24    2    4    4    0    0 -0.36830371304E+03  0.14613770970E+03 -0.39203732188E+03  0.56430282351E+03  0.87980450334E+02 0.  0.
         24    2    4    4    0    0  0.44314683714E+03  0.33517083432E+02 -0.41234536689E+02  0.45344829548E+03  0.80078433473E+02 0.  0.
         11    1    3    3    0    0 -0.70634919029E+02 -0.14989801075E+03  0.31287704087E+03  0.35404907586E+03  0.00000000000E+00 0. -1.
        -11    1    3    3    0    0 -0.42082050759E+01 -0.29756782381E+02  0.19521608415E+03  0.19751580848E+03  0.00000000000E+00 0.  1.
          4    1    6    6  502    0  0.26310981275E+03  0.45719643883E+02  0.52609586038E+01  0.26710435617E+03  0.00000000000E+00 0. -1.
          3    1    5    5  503    0 -0.84134094872E+02  0.10175535531E+02 -0.12668082897E+03  0.15241430337E+03  0.00000000000E+00 0. -1.
         -2    1    5    5    0  503 -0.28416961816E+03  0.13596217417E+03 -0.26535649291E+03  0.41188852014E+03  0.00000000000E+00 0.  1.
         -3    1    6    6    0  502  0.18003702439E+03 -0.12202560451E+02 -0.46495495292E+02  0.18634393931E+03  0.00000000000E+00 0.  1.
<mgrwt>
<rscale>  0 0.15675313E+04</rscale>
<asrwt>0</asrwt>
<pdfrwt beam="1">  1        2 0.11496113E+00 0.15675313E+04</pdfrwt>
<pdfrwt beam="2">  1       -2 0.12647210E+00 0.15675313E+04</pdfrwt>
<totfact> 0.16860226E+01</totfact>
</mgrwt>
</event>
<event>
12    1  0.1496989E-007  0.1496705E+04  0.7818608E-02  0.8886647E-01
         -2   -1    0    0    0  501 -0.00000000000E+00  0.00000000000E+00  0.39450274722E+03  0.39450274722E+03  0.00000000000E+00 0.  1.
          2   -1    0    0  501    0  0.00000000000E+00 -0.00000000000E+00 -0.14195878149E+04  0.14195878149E+04  0.00000000000E+00 0. -1.
         23    2    1    2    0    0 -0.42134001605E+03 -0.12990526088E+03 -0.54904730130E+03  0.70997495375E+03  0.90601931284E+02 0.  0.
        254    2    1    2    0    0  0.42134001605E+03  0.12990526088E+03 -0.47603776635E+03  0.11041156083E+04  0.89334010077E+03 0.  0.
        -24    2    4    4    0    0 -0.89131389244E+02  0.35435014025E+03 -0.37899178290E+03  0.53245794165E+03  0.79801388914E+02 0.  0.
         24    2    4    4    0    0  0.51047140530E+03 -0.22444487937E+03 -0.97045983445E+02  0.57165766669E+03  0.80112455203E+02 0.  0.
         11    1    3    3    0    0 -0.40649836634E+03 -0.10403812494E+03 -0.50197190348E+03  0.65424815259E+03  0.00000000000E+00 0. -1.
        -11    1    3    3    0    0 -0.14841649715E+02 -0.25867135940E+02 -0.47075397822E+02  0.55726801165E+02  0.00000000000E+00 0.  1.
          2    1    6    6  502    0  0.13145056422E+03 -0.43993876186E+02  0.82694973676E+01  0.13886358976E+03  0.00000000000E+00 0. -1.
          1    1    5    5  503    0  0.16449193505E+01  0.30948468448E+02 -0.80280029533E+01  0.32015032256E+02  0.00000000000E+00 0. -1.
         -4    1    5    5    0  503 -0.90776308594E+02  0.32340167180E+03 -0.37096377995E+03  0.50044290939E+03  0.00000000000E+00 0.  1.
         -1    1    6    6    0  502  0.37902084108E+03 -0.18045100319E+03 -0.10531548081E+03  0.43279407693E+03  0.00000000000E+00 0.  1.
<mgrwt>
<rscale>  0 0.14967048E+04</rscale>
<asrwt>0</asrwt>
<pdfrwt beam="1">  1        2 0.21839813E+00 0.14967048E+04</pdfrwt>
<pdfrwt beam="2">  1       -2 0.60692730E-01 0.14967048E+04</pdfrwt>
<totfact> 0.34445056E+01</totfact>
</mgrwt>
</event>
<event>
12    1  0.1496989E-007  0.2788003E+04  0.7818608E-02  0.8307003E-01
          2   -1    0    0  501    0  0.00000000000E+00  0.00000000000E+00  0.13666586045E+04  0.13666586045E+04  0.00000000000E+00 0. -1.
         -2   -1    0    0    0  501 -0.00000000000E+00 -0.00000000000E+00 -0.14218913494E+04  0.14218913494E+04  0.00000000000E+00 0.  1.
         23    2    1    2    0    0 -0.55828843084E+03  0.96216226783E+03 -0.58624379586E+03  0.12608368445E+04  0.92658289214E+02 0.  0.
        254    2    1    2    0    0  0.55828843084E+03 -0.96216226783E+03  0.53101105091E+03  0.15277131094E+04  0.90249233068E+03 0.  0.
        -24    2    4    4    0    0  0.60409641750E+03 -0.19201252391E+03  0.12041206107E+03  0.65017680689E+03  0.80184317571E+02 0.  0.
         24    2    4    4    0    0 -0.45807986664E+02 -0.77014974392E+03  0.41059898984E+03  0.87753630256E+03  0.79053350071E+02 0.  0.
         13    1    3    3    0    0 -0.13425308643E+03  0.19500197568E+03 -0.87979416194E+02  0.25256690086E+03  0.00000000000E+00 0. -1.
        -13    1    3    3    0    0 -0.42403534440E+03  0.76716029216E+03 -0.49826437967E+03  0.10082699436E+04  0.00000000000E+00 0.  1.
          4    1    6    6  502    0  0.17353503517E-01 -0.12491252062E+03  0.35821456090E+02  0.12994735405E+03  0.00000000000E+00 0. -1.
          3    1    5    5  503    0  0.21218561840E+02 -0.11509869646E+02 -0.10136283268E+02  0.26181075308E+02  0.00000000000E+00 0. -1.
         -4    1    5    5    0  503  0.58287785566E+03 -0.18050265427E+03  0.13054834434E+03  0.62399573158E+03  0.00000000000E+00 0.  1.
         -3    1    6    6    0  502 -0.45825340167E+02 -0.64523722330E+03  0.37477753375E+03  0.74758894851E+03  0.00000000000E+00 0.  1.
<mgrwt>
<rscale>  0 0.27880029E+04</rscale>
<asrwt>0</asrwt>
<pdfrwt beam="1">  1        2 0.21025517E+00 0.27880029E+04</pdfrwt>
<pdfrwt beam="2">  1       -2 0.21875251E+00 0.27880029E+04</pdfrwt>
<totfact> 0.13259266E+00</totfact>
</mgrwt>
</event>
<event>
12    1  0.1496989E-007  0.1261155E+04  0.7818608E-02  0.9060949E-01
          2   -1    0    0  501    0  0.00000000000E+00  0.00000000000E+00  0.12944943052E+04  0.12944943052E+04  0.00000000000E+00 0. -1.
         -2   -1    0    0    0  501 -0.00000000000E+00 -0.00000000000E+00 -0.30716880724E+03  0.30716880724E+03  0.00000000000E+00 0.  1.
         23    2    1    2    0    0  0.33511654212E+02 -0.17303820249E+03  0.57069661845E+03  0.60403293436E+03  0.89977247086E+02 0.  0.
        254    2    1    2    0    0 -0.33511654212E+02  0.17303820249E+03  0.41662887951E+03  0.99763017808E+03  0.88916876828E+03 0.  0.
        -24    2    4    4    0    0 -0.16006036046E+03 -0.26414223072E+03  0.43029187178E+03  0.53620980062E+03  0.83542913060E+02 0.  0.
         24    2    4    4    0    0  0.12654870625E+03  0.43718043321E+03 -0.13662992268E+02  0.46142037746E+03  0.74704625998E+02 0.  0.
         13    1    3    3    0    0  0.35040908087E+02 -0.15704415240E+03  0.56421031003E+03  0.58670606353E+03  0.00000000000E+00 0. -1.
        -13    1    3    3    0    0 -0.15292538752E+01 -0.15994050094E+02  0.64863084224E+01  0.17326870831E+02  0.00000000000E+00 0.  1.
          2    1    6    6  502    0  0.29206917616E+02  0.34184910423E+02  0.10356303922E+02  0.46140060340E+02  0.00000000000E+00 0. -1.
          3    1    5    5  503    0 -0.50678678860E+02 -0.27990280189E+02  0.57816658052E+02  0.81820231143E+02  0.00000000000E+00 0. -1.
         -4    1    5    5    0  503 -0.10938168160E+03 -0.23615195053E+03  0.37247521373E+03  0.45438956948E+03  0.00000000000E+00 0.  1.
         -1    1    6    6    0  502  0.97341788631E+02  0.40299552278E+03 -0.24019296189E+02  0.41528031712E+03  0.00000000000E+00 0.  1.
<mgrwt>
<rscale>  0 0.12611555E+04</rscale>
<asrwt>0</asrwt>
<pdfrwt beam="1">  1        2 0.19915297E+00 0.12611555E+04</pdfrwt>
<pdfrwt beam="2">  1       -2 0.47256740E-01 0.12611555E+04</pdfrwt>
<totfact> 0.69438369E+01</totfact>
</mgrwt>
</event>
<event>
12    1  0.1496989E-007  0.1209805E+04  0.7818608E-02  0.9104317E-01
         -1   -1    0    0    0  501 -0.00000000000E+00  0.00000000000E+00  0.29336108001E+03  0.29336108001E+03  0.00000000000E+00 0.  1.
          1   -1    0    0  501    0  0.00000000000E+00 -0.00000000000E+00 -0.12472928816E+04  0.12472928816E+04  0.00000000000E+00 0. -1.
         23    2    1    2    0    0  0.14759847315E+03 -0.11388915808E+03  0.90774651177E+01  0.20786953803E+03  0.91494780527E+02 0.  0.
        254    2    1    2    0    0 -0.14759847315E+03  0.11388915808E+03 -0.96300926670E+03  0.13327844236E+04  0.90231448084E+03 0.  0.
        -24    2    4    4    0    0 -0.71850737646E+02 -0.35833781939E+03 -0.66682535633E+03  0.76466989353E+03  0.80594471992E+02 0.  0.
         24    2    4    4    0    0 -0.75747735506E+02  0.47222697747E+03 -0.29618391037E+03  0.56811453004E+03  0.79329520288E+02 0.  0.
         13    1    3    3    0    0  0.35971144827E+02 -0.64829850545E+02  0.36881376103E+02  0.82807419264E+02  0.00000000000E+00 0.  1.
        -13    1    3    3    0    0  0.11162732833E+03 -0.49059307536E+02 -0.27803910986E+02  0.12506211877E+03  0.00000000000E+00 0. -1.
          4    1    6    6  502    0 -0.41151774575E+02  0.88269951742E+02 -0.80598983735E+02  0.12641696528E+03  0.00000000000E+00 0. -1.
          1    1    5    5  503    0 -0.33052256041E+02 -0.31094617434E+03 -0.56868243224E+03  0.64898357737E+03  0.00000000000E+00 0. -1.
         -2    1    5    5    0  503 -0.38798481606E+02 -0.47391645052E+02 -0.98142924095E+02  0.11568631615E+03  0.00000000000E+00 0.  1.
         -3    1    6    6    0  502 -0.34595960931E+02  0.38395702573E+03 -0.21558492664E+03  0.44169756476E+03  0.00000000000E+00 0.  1.
<mgrwt>
<rscale>  0 0.12098053E+04</rscale>
<asrwt>0</asrwt>
<pdfrwt beam="1">  1        1 0.19189121E+00 0.12098053E+04</pdfrwt>
<pdfrwt beam="2">  1       -1 0.45132475E-01 0.12098053E+04</pdfrwt>
<totfact> 0.47533005E+01</totfact>
</mgrwt>
</event>
<event>
12    1  0.1496989E-007  0.1439691E+04  0.7818608E-02  0.8925579E-01
         -2   -1    0    0    0  501 -0.00000000000E+00  0.00000000000E+00  0.16871763235E+04  0.16871763235E+04  0.00000000000E+00 0.  1.
          2   -1    0    0  501    0  0.00000000000E+00 -0.00000000000E+00 -0.30712722109E+03  0.30712722109E+03  0.00000000000E+00 0. -1.
         23    2    1    2    0    0 -0.29841549183E+03 -0.81669573310E+02  0.57054034602E+01  0.32314365872E+03  0.93099664757E+02 0.  0.
        254    2    1    2    0    0  0.29841549183E+03  0.81669573310E+02  0.13743436989E+04  0.16711598858E+04  0.89901781757E+03 0.  0.
        -24    2    4    4    0    0  0.10442490790E+03  0.43891008332E+02  0.14411968751E+04  0.14478484274E+04  0.79910286514E+02 0.  0.
         24    2    4    4    0    0  0.19399058393E+03  0.37778564978E+02 -0.66853176192E+02  0.22331145844E+03  0.79618425518E+02 0.  0.
         13    1    3    3    0    0 -0.24163720980E+03 -0.65702915449E+02  0.41974152739E+02  0.25390400500E+03  0.00000000000E+00 0. -1.
        -13    1    3    3    0    0 -0.56778282031E+02 -0.15966657861E+02 -0.36268749279E+02  0.69239653725E+02  0.00000000000E+00 0.  1.
          2    1    6    6  502    0  0.15952570087E+03  0.58679006742E+02 -0.39219677355E+02  0.17444156088E+03  0.00000000000E+00 0. -1.
          3    1    5    5  503    0  0.52507246026E+02  0.22586030812E+02  0.11422825500E+04  0.11437117485E+04  0.00000000000E+00 0. -1.
         -4    1    5    5    0  503  0.51917661877E+02  0.21304977520E+02  0.29891432509E+03  0.30413667886E+03  0.00000000000E+00 0.  1.
         -1    1    6    6    0  502  0.34464883053E+02 -0.20900441764E+02 -0.27633498837E+02  0.48869897563E+02  0.00000000000E+00 0.  1.
<mgrwt>
<rscale>  0 0.14396913E+04</rscale>
<asrwt>0</asrwt>
<pdfrwt beam="1">  1        2 0.47250343E-01 0.14396913E+04</pdfrwt>
<pdfrwt beam="2">  1       -2 0.25956558E+00 0.14396913E+04</pdfrwt>
<totfact> 0.58352849E+00</totfact>
</mgrwt>
</event>
<event>
12    1  0.1496989E-007  0.1417540E+04  0.7818608E-02  0.8941219E-01
         -1   -1    0    0    0  501 -0.00000000000E+00  0.00000000000E+00  0.43399860286E+03  0.43399860286E+03  0.00000000000E+00 0.  1.
          1   -1    0    0  501    0  0.00000000000E+00 -0.00000000000E+00 -0.11575032990E+04  0.11575032990E+04  0.00000000000E+00 0. -1.
         23    2    1    2    0    0  0.13036019662E+03 -0.20215762960E+03  0.15759294539E+03  0.30808894729E+03  0.11055213673E+03 0.  0.
        254    2    1    2    0    0 -0.13036019662E+03  0.20215762960E+03 -0.88109764152E+03  0.12834129546E+04  0.90163976731E+03 0.  0.
        -24    2    4    4    0    0 -0.51021442439E+03  0.59288276842E+02 -0.49116579913E+03  0.71517829232E+03  0.80014304583E+02 0.  0.
         24    2    4    4    0    0  0.37985422777E+03  0.14286935276E+03 -0.38993184239E+03  0.56823466226E+03  0.78376676134E+02 0.  0.
         13    1    3    3    0    0 -0.10513838328E+02 -0.65060000030E+02  0.57681855552E+02  0.87581623987E+02  0.00000000000E+00 0. -1.
        -13    1    3    3    0    0  0.14087403495E+03 -0.13709762957E+03  0.99911089835E+02  0.22050732330E+03  0.00000000000E+00 0.  1.
          2    1    6    6  502    0  0.24773096161E+03  0.64372995822E+02 -0.20606493710E+03  0.32859895044E+03  0.00000000000E+00 0. -1.
          1    1    5    5  503    0 -0.22692556663E+03  0.66409774055E+02 -0.22658833296E+03  0.32748701274E+03  0.00000000000E+00 0. -1.
         -2    1    5    5    0  503 -0.28328885776E+03 -0.71214972124E+01 -0.26457746617E+03  0.38769127958E+03  0.00000000000E+00 0.  1.
         -1    1    6    6    0  502  0.13212326617E+03  0.78496356939E+02 -0.18386690529E+03  0.23963571181E+03  0.00000000000E+00 0.  1.
<mgrwt>
<rscale>  0 0.14175399E+04</rscale>
<asrwt>0</asrwt>
<pdfrwt beam="1">  1        1 0.17807743E+00 0.14175399E+04</pdfrwt>
<pdfrwt beam="2">  1       -1 0.66769015E-01 0.14175399E+04</pdfrwt>
<totfact> 0.25414388E+01</totfact>
</mgrwt>
</event>
<event>
12    1  0.1496989E-007  0.1517217E+04  0.7818608E-02  0.8873084E-01
         -2   -1    0    0    0  501 -0.00000000000E+00  0.00000000000E+00  0.92592980562E+03  0.92592980562E+03  0.00000000000E+00 0.  1.
          2   -1    0    0  501    0  0.00000000000E+00 -0.00000000000E+00 -0.62152291480E+03  0.62152291480E+03  0.00000000000E+00 0. -1.
         23    2    1    2    0    0 -0.25505996404E+03 -0.33484942212E+02 -0.32091246407E+03  0.42071107981E+03  0.88522180632E+02 0.  0.
        254    2    1    2    0    0  0.25505996404E+03  0.33484942212E+02  0.62531935489E+03  0.11267416406E+04  0.90130217046E+03 0.  0.
        -24    2    4    4    0    0  0.29237441344E+03  0.41169433974E+03  0.51159766547E+03  0.72310548175E+03  0.78576964914E+02 0.  0.
         24    2    4    4    0    0 -0.37314449400E+02 -0.37820939753E+03  0.11372168942E+03  0.40363615886E+03  0.74530594966E+02 0.  0.
         13    1    3    3    0    0 -0.10879776422E+02  0.57656001172E+01  0.34801926912E+01  0.12795445318E+02  0.00000000000E+00 0.  1.
        -13    1    3    3    0    0 -0.24418018762E+03 -0.39250542329E+02 -0.32439265677E+03  0.40791563449E+03  0.00000000000E+00 0. -1.
          4    1    6    6  502    0 -0.37424396218E+02 -0.37537964095E+03  0.10089421990E+03  0.39049981291E+03  0.00000000000E+00 0. -1.
          1    1    5    5  503    0  0.25493949468E+03  0.37266970586E+03  0.41961112305E+03  0.61640112767E+03  0.00000000000E+00 0. -1.
         -2    1    5    5    0  503  0.37434918767E+02  0.39024633879E+02  0.91986542420E+02  0.10670435408E+03  0.00000000000E+00 0.  1.
         -3    1    6    6    0  502  0.10994681843E+00 -0.28297565713E+01  0.12827469524E+02  0.13136345951E+02  0.00000000000E+00 0.  1.
<mgrwt>
<rscale>  0 0.15172167E+04</rscale>
<asrwt>0</asrwt>
<pdfrwt beam="1">  1        2 0.95618909E-01 0.15172167E+04</pdfrwt>
<pdfrwt beam="2">  1       -2 0.14245074E+00 0.15172167E+04</pdfrwt>
<totfact> 0.15728670E+01</totfact>
</mgrwt>
</event>
<event>
12    1  0.1496989E-007  0.1502110E+04  0.7818608E-02  0.8883051E-01
         -2   -1    0    0    0  501 -0.00000000000E+00  0.00000000000E+00  0.41712828277E+03  0.41712828277E+03  0.00000000000E+00 0.  1.
          2   -1    0    0  501    0  0.00000000000E+00 -0.00000000000E+00 -0.13523031532E+04  0.13523031532E+04  0.00000000000E+00 0. -1.
         23    2    1    2    0    0  0.21701101377E+03 -0.26104352880E+02 -0.79831462387E+03  0.83498116298E+03  0.11005492493E+03 0.  0.
        254    2    1    2    0    0 -0.21701101377E+03  0.26104352880E+02 -0.13686024652E+03  0.93445027296E+03  0.89815999032E+03 0.  0.
        -24    2    4    4    0    0 -0.46030763610E+03  0.29046351083E+03 -0.13567943746E+03  0.56649925844E+03  0.79122241469E+02 0.  0.
         24    2    4    4    0    0  0.24329662233E+03 -0.26435915795E+03 -0.11808090610E+01  0.36795101451E+03  0.79420047506E+02 0.  0.
         11    1    3    3    0    0  0.22008066171E+03 -0.23313698699E+02 -0.80033236736E+03  0.83036794523E+03  0.00000000000E+00 0. -1.
        -11    1    3    3    0    0 -0.30696479419E+01 -0.27906541811E+01  0.20177434905E+01  0.46132177532E+01  0.00000000000E+00 0.  1.
          2    1    6    6  502    0  0.13416156136E+03 -0.87670102182E+02  0.54169104516E+00  0.16026747890E+03  0.00000000000E+00 0. -1.
          1    1    5    5  503    0 -0.29590939704E+03  0.23021629425E+03 -0.93665392708E+02  0.38643902389E+03  0.00000000000E+00 0. -1.
         -2    1    5    5    0  503 -0.16439823905E+03  0.60247216576E+02 -0.42014044750E+02  0.18006023455E+03  0.00000000000E+00 0.  1.
         -1    1    6    6    0  502  0.10913506097E+03 -0.17668905576E+03 -0.17225001062E+01  0.20768353562E+03  0.00000000000E+00 0.  1.
<mgrwt>
<rscale>  0 0.15021104E+04</rscale>
<asrwt>0</asrwt>
<pdfrwt beam="1">  1        2 0.20804664E+00 0.15021104E+04</pdfrwt>
<pdfrwt beam="2">  1       -2 0.64173583E-01 0.15021104E+04</pdfrwt>
<totfact> 0.33414499E+01</totfact>
</mgrwt>
</event>
<event>
12    1  0.1496989E-007  0.2024362E+04  0.7818608E-02  0.8595315E-01
          1   -1    0    0  501    0  0.00000000000E+00  0.00000000000E+00  0.10343143325E+04  0.10343143325E+04  0.00000000000E+00 0. -1.
         -1   -1    0    0    0  501 -0.00000000000E+00 -0.00000000000E+00 -0.99052087838E+03  0.99052087838E+03  0.00000000000E+00 0.  1.
         23    2    1    2    0    0 -0.66672398122E+03 -0.11973145214E+03 -0.42633279039E+03  0.80558454342E+03  0.91380089025E+02 0.  0.
        254    2    1    2    0    0  0.66672398122E+03  0.11973145214E+03  0.47012624448E+03  0.12192506674E+04  0.89816313469E+03 0.  0.
        -24    2    4    4    0    0 -0.20678237759E+03 -0.60843335560E+02  0.98893951428E+02  0.24998576825E+03  0.79069637238E+02 0.  0.
         24    2    4    4    0    0  0.87350635882E+03  0.18057478770E+03  0.37123229305E+03  0.96926489918E+03  0.77720116667E+02 0.  0.
         13    1    3    3    0    0 -0.20140124814E+02 -0.14403278693E+02 -0.33730677481E+02  0.41843012177E+02  0.00000000000E+00 0. -1.
        -13    1    3    3    0    0 -0.64658385641E+03 -0.10532817345E+03 -0.39260211291E+03  0.76374153125E+03  0.00000000000E+00 0.  1.
          2    1    6    6  502    0  0.11686364560E+03  0.48928878712E+02  0.39853151096E+02  0.13281348006E+03  0.00000000000E+00 0. -1.
          1    1    5    5  503    0 -0.40447137581E+02  0.88179458630E+01 -0.52688330334E+01  0.41731135969E+02  0.00000000000E+00 0. -1.
         -2    1    5    5    0  503 -0.16633524001E+03 -0.69661281423E+02  0.10416278446E+03  0.20825463228E+03  0.00000000000E+00 0.  1.
         -1    1    6    6    0  502  0.75664271322E+03  0.13164590899E+03  0.33137914195E+03  0.83645141912E+03  0.00000000000E+00 0.  1.
<mgrwt>
<rscale>  0 0.20243616E+04</rscale>
<asrwt>0</asrwt>
<pdfrwt beam="1">  1        1 0.15912528E+00 0.20243616E+04</pdfrwt>
<pdfrwt beam="2">  1       -1 0.15238783E+00 0.20243616E+04</pdfrwt>
<totfact> 0.44036322E+00</totfact>
</mgrwt>
</event>
<event>
12    1  0.1496989E-007  0.2028322E+04  0.7818608E-02  0.8593493E-01
         -2   -1    0    0    0  501 -0.00000000000E+00  0.00000000000E+00  0.43657791215E+03  0.43657791215E+03  0.00000000000E+00 0.  1.
          2   -1    0    0  501    0  0.00000000000E+00 -0.00000000000E+00 -0.23558740445E+04  0.23558740445E+04  0.00000000000E+00 0. -1.
         23    2    1    2    0    0 -0.37942203089E+03 -0.65774244522E+03 -0.36705130783E+03  0.84839754868E+03  0.92008348773E+02 0.  0.
        254    2    1    2    0    0  0.37942203089E+03  0.65774244522E+03 -0.15522448245E+04  0.19440544079E+04  0.89067241124E+03 0.  0.
        -24    2    4    4    0    0  0.58200705596E+02 -0.70899810657E+02 -0.90858256804E+03  0.91697463438E+03  0.83102899257E+02 0.  0.
         24    2    4    4    0    0  0.32122132530E+03  0.72864225588E+03 -0.64366225643E+03  0.10270797736E+04  0.80554850970E+02 0.  0.
         11    1    3    3    0    0 -0.27440848520E+03 -0.46094453219E+03 -0.30400987906E+03  0.61659702000E+03  0.00000000000E+00 0. -1.
        -11    1    3    3    0    0 -0.10501354569E+03 -0.19679791303E+03 -0.63041428769E+02  0.23180052867E+03  0.00000000000E+00 0.  1.
          2    1    6    6  502    0  0.46720402930E+02  0.19164857094E+03 -0.16196251368E+03  0.25523288705E+03  0.00000000000E+00 0. -1.
          3    1    5    5  503    0  0.30185446237E+01  0.69423084967E+01 -0.68546293428E+01  0.10212404337E+02  0.00000000000E+00 0. -1.
         -4    1    5    5    0  503  0.55182160972E+02 -0.77842119153E+02 -0.90172793870E+03  0.90676223004E+03  0.00000000000E+00 0.  1.
         -1    1    6    6    0  502  0.27450092237E+03  0.53699368494E+03 -0.48169974275E+03  0.77184688651E+03  0.00000000000E+00 0.  1.
<mgrwt>
<rscale>  0 0.20283220E+04</rscale>
<asrwt>0</asrwt>
<pdfrwt beam="1">  1        2 0.36244215E+00 0.20283220E+04</pdfrwt>
<pdfrwt beam="2">  1       -2 0.67165834E-01 0.20283220E+04</pdfrwt>
<totfact> 0.79452474E+00</totfact>
</mgrwt>
</event>
<event>
12    1  0.1496989E-007  0.2445984E+04  0.7818608E-02  0.8422486E-01
          2   -1    0    0  501    0  0.00000000000E+00  0.00000000000E+00  0.23801019010E+04  0.23801019010E+04  0.00000000000E+00 0. -1.
         -2   -1    0    0    0  501 -0.00000000000E+00 -0.00000000000E+00 -0.62842219713E+03  0.62842219713E+03  0.00000000000E+00 0.  1.
         23    2    1    2    0    0  0.13166500090E+03  0.78483329864E+03 -0.94442747622E+02  0.80677835950E+03  0.93128457901E+02 0.  0.
        254    2    1    2    0    0 -0.13166500090E+03 -0.78483329864E+03  0.18461224515E+04  0.22017457386E+04  0.89789599201E+03 0.  0.
        -24    2    4    4    0    0 -0.74547722464E+02  0.18704091348E+03  0.42866410805E+03  0.48033265358E+03  0.80155313751E+02 0.  0.
         24    2    4    4    0    0 -0.57117278434E+02 -0.97187421212E+03  0.14174583434E+04  0.17214130850E+04  0.79202185787E+02 0.  0.
         13    1    3    3    0    0  0.16966956801E+02  0.34622323637E+03 -0.63118851025E+02  0.35233846850E+03  0.00000000000E+00 0. -1.
        -13    1    3    3    0    0  0.11469804410E+03  0.43861006226E+03 -0.31323896598E+02  0.45443989101E+03  0.00000000000E+00 0.  1.
          4    1    6    6  502    0 -0.77316280717E+02 -0.75021036010E+03  0.10956601030E+04  0.13301370054E+04  0.00000000000E+00 0. -1.
          3    1    5    5  503    0 -0.52573614955E+02  0.10260809909E+03  0.32498246732E+03  0.34482750914E+03  0.00000000000E+00 0. -1.
         -4    1    5    5    0  503 -0.21974107510E+02  0.84432814393E+02  0.10368164073E+03  0.13550514445E+03  0.00000000000E+00 0.  1.
         -3    1    6    6    0  502  0.20199002283E+02 -0.22166385202E+03  0.32179824036E+03  0.39127607963E+03  0.00000000000E+00 0.  1.
<mgrwt>
<rscale>  0 0.24459835E+04</rscale>
<asrwt>0</asrwt>
<pdfrwt beam="1">  1        2 0.36616952E+00 0.24459835E+04</pdfrwt>
<pdfrwt beam="2">  1       -2 0.96680339E-01 0.24459835E+04</pdfrwt>
<totfact> 0.32698364E+00</totfact>
</mgrwt>
</event>
<event>
12    1  0.1496989E-007  0.1781480E+04  0.7818608E-02  0.8716211E-01
          2   -1    0    0  501    0  0.00000000000E+00  0.00000000000E+00  0.22194512237E+04  0.22194512237E+04  0.00000000000E+00 0.  1.
         -2   -1    0    0    0  501 -0.00000000000E+00 -0.00000000000E+00 -0.35748376068E+03  0.35748376068E+03  0.00000000000E+00 0. -1.
         23    2    1    2    0    0  0.35628149885E+03 -0.53170581390E+03  0.49051171509E+03  0.81199390223E+03  0.95314089555E+02 0.  0.
        254    2    1    2    0    0 -0.35628149885E+03  0.53170581390E+03  0.13714557479E+04  0.17649410822E+04  0.90800802636E+03 0.  0.
        -24    2    4    4    0    0  0.77734384704E+02  0.64385037080E+03  0.75279200424E+03  0.99681397516E+03  0.79726814089E+02 0.  0.
         24    2    4    4    0    0 -0.43401588356E+03 -0.11214455690E+03  0.61866374371E+03  0.76812710699E+03  0.79550209866E+02 0.  0.
         13    1    3    3    0    0  0.36043663396E+03 -0.50917724691E+03  0.47782429808E+03  0.78580665288E+03  0.00000000000E+00 0. -1.
        -13    1    3    3    0    0 -0.41551351099E+01 -0.22528566994E+02  0.12687417003E+02  0.26187249355E+02  0.00000000000E+00 0.  1.
          4    1    6    6  502    0 -0.22046436378E+03 -0.19344086207E+02  0.32841732041E+03  0.39602609221E+03  0.00000000000E+00 0. -1.
          3    1    5    5  503    0  0.68939687003E+02  0.32040059801E+03  0.33880921459E+03  0.47138191261E+03  0.00000000000E+00 0. -1.
         -4    1    5    5    0  503  0.87946977009E+01  0.32344977279E+03  0.41398278965E+03  0.52543206255E+03  0.00000000000E+00 0.  1.
         -3    1    6    6    0  502 -0.21355151977E+03 -0.92800470695E+02  0.29024642330E+03  0.37210101478E+03  0.00000000000E+00 0.  1.
<mgrwt>
<rscale>  0 0.17814800E+04</rscale>
<asrwt>0</asrwt>
<pdfrwt beam="1">  1        2 0.34145403E+00 0.17814800E+04</pdfrwt>
<pdfrwt beam="2">  1       -2 0.54997503E-01 0.17814800E+04</pdfrwt>
<totfact> 0.14807350E+01</totfact>
</mgrwt>
</event>
<event>
12    1  0.1496989E-007  0.1935314E+04  0.7818608E-02  0.8637475E-01
         -2   -1    0    0    0  501 -0.00000000000E+00  0.00000000000E+00  0.35060814359E+03  0.35060814359E+03  0.00000000000E+00 0. -1.
          2   -1    0    0  501    0  0.00000000000E+00 -0.00000000000E+00 -0.26706732154E+04  0.26706732154E+04  0.00000000000E+00 0.  1.
         23    2    1    2    0    0 -0.48977942735E+01 -0.63686352188E+03 -0.15365623729E+04  0.16658333179E+04  0.91419818911E+02 0.  0.
        254    2    1    2    0    0  0.48977942735E+01  0.63686352188E+03 -0.78350269889E+03  0.13554480411E+04  0.90429186605E+03 0.  0.
        -24    2    4    4    0    0 -0.51977076146E+02  0.56559794361E+03 -0.11458743514E+02  0.57399225923E+03  0.82055838299E+02 0.  0.
         24    2    4    4    0    0  0.56874870420E+02  0.71265578276E+02 -0.77204395538E+03  0.78145578185E+03  0.79421259201E+02 0.  0.
         11    1    3    3    0    0 -0.14179477489E+02 -0.92053135126E+02 -0.15681765493E+03  0.18239137635E+03  0.00000000000E+00 0. -1.
        -11    1    3    3    0    0  0.92816832152E+01 -0.54481038676E+03 -0.13797447180E+04  0.14834419416E+04  0.00000000000E+00 0.  1.
          4    1    6    6  502    0 -0.76050023026E+01 -0.12742630440E+02 -0.10968252574E+03  0.11068182842E+03  0.00000000000E+00 0. -1.
          1    1    5    5  503    0 -0.12384513157E+02  0.64713912598E+02  0.24416162250E+02  0.70266746252E+02  0.00000000000E+00 0. -1.
         -2    1    5    5    0  503 -0.39592562990E+02  0.50088403101E+03 -0.35874905763E+02  0.50372551298E+03  0.00000000000E+00 0.  1.
         -3    1    6    6    0  502  0.64479872723E+02  0.84008208715E+02 -0.66236142964E+03  0.67077395343E+03  0.00000000000E+00 0.  1.
<mgrwt>
<rscale>  0 0.19353137E+04</rscale>
<asrwt>0</asrwt>
<pdfrwt beam="1">  1        2 0.41087282E+00 0.19353137E+04</pdfrwt>
<pdfrwt beam="2">  1       -2 0.53939713E-01 0.19353137E+04</pdfrwt>
<totfact> 0.83684471E+00</totfact>
</mgrwt>
</event>
<event>
12    1  0.1496989E-007  0.1687500E+04  0.7818608E-02  0.8768526E-01
         -1   -1    0    0    0  501 -0.00000000000E+00  0.00000000000E+00  0.67972329238E+03  0.67972329238E+03  0.00000000000E+00 0.  1.
          1   -1    0    0  501    0  0.00000000000E+00 -0.00000000000E+00 -0.10473591980E+04  0.10473591980E+04  0.00000000000E+00 0. -1.
         23    2    1    2    0    0 -0.23086884812E+03 -0.52450383985E+03 -0.31492685778E+03  0.66009058054E+03  0.90199477426E+02 0.  0.
        254    2    1    2    0    0  0.23086884812E+03  0.52450383985E+03 -0.52709047833E+02  0.10669919098E+04  0.89849250908E+03 0.  0.
        -24    2    4    4    0    0  0.33136292884E+03  0.57486168773E+03 -0.33884346172E+03  0.74930374300E+03  0.79836439632E+02 0.  0.
         24    2    4    4    0    0 -0.10049408072E+03 -0.50357847883E+02  0.28613441389E+03  0.31768816683E+03  0.80111768354E+02 0.  0.
         13    1    3    3    0    0 -0.18773998730E+03 -0.40043810302E+03 -0.28253314771E+03  0.52480658983E+03  0.00000000000E+00 0. -1.
        -13    1    3    3    0    0 -0.43128860818E+02 -0.12406573683E+03 -0.32393710071E+02  0.13528399071E+03  0.00000000000E+00 0.  1.
          2    1    6    6  502    0 -0.85048017743E+02 -0.46505086131E+02  0.28577276245E+03  0.30176474300E+03  0.00000000000E+00 0. -1.
          3    1    5    5  503    0  0.24532415215E+03  0.45098900931E+03 -0.22598601631E+03  0.56093199740E+03  0.00000000000E+00 0. -1.
         -4    1    5    5    0  503  0.86038776685E+02  0.12387267842E+03 -0.11285744541E+03  0.18837174559E+03  0.00000000000E+00 0.  1.
         -1    1    6    6    0  502 -0.15446062979E+02 -0.38527617519E+01  0.36165143444E+00  0.15923423828E+02  0.00000000000E+00 0.  1.
<mgrwt>
<rscale>  0 0.16875005E+04</rscale>
<asrwt>0</asrwt>
<pdfrwt beam="1">  1        1 0.16113218E+00 0.16875005E+04</pdfrwt>
<pdfrwt beam="2">  1       -1 0.10457281E+00 0.16875005E+04</pdfrwt>
<totfact> 0.11386213E+01</totfact>
</mgrwt>
</event>
<event>
12    1  0.1496989E-007  0.1323805E+04  0.7818608E-02  0.9010898E-01
         -1   -1    0    0    0  501 -0.00000000000E+00  0.00000000000E+00  0.87322324338E+03  0.87322324338E+03  0.00000000000E+00 0.  1.
          1   -1    0    0  501    0  0.00000000000E+00 -0.00000000000E+00 -0.50172169034E+03  0.50172169034E+03  0.00000000000E+00 0. -1.
         23    2    1    2    0    0 -0.12541170149E+03 -0.32795033997E+03  0.52328789741E+02  0.36618293111E+03  0.89844957778E+02 0.  0.
        254    2    1    2    0    0  0.12541170149E+03  0.32795033997E+03  0.31917276330E+03  0.10087620026E+04  0.89019661015E+03 0.  0.
        -24    2    4    4    0    0 -0.15492819300E+03 -0.14465059367E+03 -0.15934277411E+03  0.27568483123E+03  0.75402037604E+02 0.  0.
         24    2    4    4    0    0  0.28033989449E+03  0.47260093364E+03  0.47851553741E+03  0.73307717138E+03  0.80516586717E+02 0.  0.
         13    1    3    3    0    0 -0.11323794548E+03 -0.32806486677E+03  0.59398938751E+02  0.35210456264E+03  0.00000000000E+00 0.  1.
        -13    1    3    3    0    0 -0.12173756006E+02  0.11452679659E+00 -0.70701490096E+01  0.14078368467E+02  0.00000000000E+00 0. -1.
          4    1    6    6  502    0  0.29082155983E+02  0.11103000112E+03  0.10859820232E+03  0.15800950127E+03  0.00000000000E+00 0. -1.
          3    1    5    5  503    0 -0.55210871908E+02 -0.91498918632E+02 -0.48356172933E+02  0.11729710972E+03  0.00000000000E+00 0. -1.
         -4    1    5    5    0  503 -0.99717321096E+02 -0.53151675037E+02 -0.11098660117E+03  0.15838772151E+03  0.00000000000E+00 0.  1.
         -3    1    6    6    0  502  0.25125773851E+03  0.36157093252E+03  0.36991733509E+03  0.57506767011E+03  0.00000000000E+00 0.  1.
<mgrwt>
<rscale>  0 0.13238052E+04</rscale>
<asrwt>0</asrwt>
<pdfrwt beam="1">  1        1 0.77187952E-01 0.13238052E+04</pdfrwt>
<pdfrwt beam="2">  1       -1 0.13434204E+00 0.13238052E+04</pdfrwt>
<totfact> 0.20185162E+01</totfact>
</mgrwt>
</event>
<event>
12    1  0.1496989E-007  0.2236011E+04  0.7818608E-02  0.8503587E-01
          2   -1    0    0  501    0  0.00000000000E+00  0.00000000000E+00  0.24118694729E+04  0.24118694729E+04  0.00000000000E+00 0. -1.
         -2   -1    0    0    0  501 -0.00000000000E+00 -0.00000000000E+00 -0.51824398484E+03  0.51824398484E+03  0.00000000000E+00 0.  1.
         23    2    1    2    0    0 -0.23308940361E+02  0.91359777781E+03  0.54321167060E+03  0.10678814233E+04  0.10043708864E+03 0.  0.
        254    2    1    2    0    0  0.23308940361E+02 -0.91359777781E+03  0.13504138175E+04  0.18622320345E+04  0.89949233766E+03 0.  0.
        -24    2    4    4    0    0  0.28395147931E+03 -0.31166387732E+02  0.61173926513E+03  0.67984810893E+03  0.79804363259E+02 0.  0.
         24    2    4    4    0    0 -0.26064253894E+03 -0.88243139008E+03  0.73867455235E+03  0.11823839256E+04  0.75973428316E+02 0.  0.
         11    1    3    3    0    0 -0.25525123256E+02  0.21427952966E+03  0.85653240854E+02  0.23217176060E+03  0.00000000000E+00 0. -1.
        -11    1    3    3    0    0  0.22161828944E+01  0.69931824815E+03  0.45755842975E+03  0.83570966268E+03  0.00000000000E+00 0.  1.
          4    1    6    6  502    0 -0.68166457055E+02 -0.15890098112E+03  0.16703592560E+03  0.24041045757E+03  0.00000000000E+00 0. -1.
          3    1    5    5  503    0  0.11494754696E+02 -0.21886277239E+01  0.26910276611E+01  0.12006710903E+02  0.00000000000E+00 0. -1.
         -4    1    5    5    0  503  0.27245672461E+03 -0.28977760008E+02  0.60904823747E+03  0.66784139803E+03  0.00000000000E+00 0.  1.
         -3    1    6    6    0  502 -0.19247608189E+03 -0.72353040896E+03  0.57163862675E+03  0.94197346798E+03  0.00000000000E+00 0.  1.
<mgrwt>
<rscale>  0 0.22360115E+04</rscale>
<asrwt>0</asrwt>
<pdfrwt beam="1">  1        2 0.37105684E+00 0.22360115E+04</pdfrwt>
<pdfrwt beam="2">  1       -2 0.79729845E-01 0.22360115E+04</pdfrwt>
<totfact> 0.49677081E+00</totfact>
</mgrwt>
</event>
<event>
12    1  0.1496989E-007  0.1940723E+04  0.7818608E-02  0.8634847E-01
         -1   -1    0    0    0  501 -0.00000000000E+00  0.00000000000E+00  0.64877938935E+03  0.64877938935E+03  0.00000000000E+00 0.  1.
          1   -1    0    0  501    0  0.00000000000E+00 -0.00000000000E+00 -0.14513435795E+04  0.14513435795E+04  0.00000000000E+00 0. -1.
         23    2    1    2    0    0 -0.48527135798E+03 -0.48563989112E+03  0.34535867325E+02  0.69291178117E+03  0.87175774314E+02 0.  0.
        254    2    1    2    0    0  0.48527135798E+03  0.48563989112E+03 -0.83710005749E+03  0.14072111877E+04  0.89898410765E+03 0.  0.
        -24    2    4    4    0    0  0.57025355069E+03 -0.52747088222E+02 -0.38735802094E+03  0.69612323233E+03  0.81055233087E+02 0.  0.
         24    2    4    4    0    0 -0.84982192709E+02  0.53838697934E+03 -0.44974203655E+03  0.71108795537E+03  0.79345247070E+02 0.  0.
         13    1    3    3    0    0 -0.39344777429E+03 -0.42352544331E+03  0.46602275016E+01  0.57809745714E+03  0.00000000000E+00 0. -1.
        -13    1    3    3    0    0 -0.91823583686E+02 -0.62114447803E+02  0.29875639823E+02  0.11481432403E+03  0.00000000000E+00 0.  1.
          4    1    6    6  502    0 -0.22041887952E+02  0.33849371492E+03 -0.30716571266E+03  0.45761841626E+03  0.00000000000E+00 0. -1.
          3    1    5    5  503    0  0.35995341835E+03 -0.47030168400E+02 -0.20027800030E+03  0.41459567958E+03  0.00000000000E+00 0. -1.
         -4    1    5    5    0  503  0.21030013234E+03 -0.57169198227E+01 -0.18708002064E+03  0.28152755275E+03  0.00000000000E+00 0.  1.
         -3    1    6    6    0  502 -0.62940304758E+02  0.19989326442E+03 -0.14257632388E+03  0.25346953911E+03  0.00000000000E+00 0.  1.
<mgrwt>
<rscale>  0 0.19407234E+04</rscale>
<asrwt>0</asrwt>
<pdfrwt beam="1">  1        1 0.22328362E+00 0.19407234E+04</pdfrwt>
<pdfrwt beam="2">  1       -1 0.99812216E-01 0.19407234E+04</pdfrwt>
<totfact> 0.63118222E+00</totfact>
</mgrwt>
</event>
<event>
12    1  0.1496989E-007  0.1997376E+04  0.7818608E-02  0.8607848E-01
         -2   -1    0    0    0  501 -0.00000000000E+00  0.00000000000E+00  0.55293741505E+03  0.55293741505E+03  0.00000000000E+00 0.  1.
          2   -1    0    0  501    0  0.00000000000E+00 -0.00000000000E+00 -0.18037813851E+04  0.18037813851E+04  0.00000000000E+00 0. -1.
         23    2    1    2    0    0  0.15647012452E+03 -0.76606585810E+03 -0.36692746895E+03  0.86861081595E+03  0.92245234563E+02 0.  0.
        254    2    1    2    0    0 -0.15647012452E+03  0.76606585810E+03 -0.88391650112E+03  0.14881079842E+04  0.90654133548E+03 0.  0.
        -24    2    4    4    0    0 -0.88623086118E+02  0.88296386354E+03 -0.39761747902E+03  0.97565209379E+03  0.79486557261E+02 0.  0.
         24    2    4    4    0    0 -0.67847038400E+02 -0.11689800543E+03 -0.48629902209E+03  0.51245589043E+03  0.88633720728E+02 0.  0.
         11    1    3    3    0    0  0.21418640581E+02 -0.33021715415E+02 -0.34976153541E+02  0.52654754484E+02  0.00000000000E+00 0. -1.
        -11    1    3    3    0    0  0.13505148394E+03 -0.73304414269E+03 -0.33195131541E+03  0.81595606147E+03  0.00000000000E+00 0.  1.
          4    1    6    6  502    0 -0.29288470885E+02 -0.50444197575E+02 -0.35946216491E+03  0.36416408334E+03  0.00000000000E+00 0. -1.
          3    1    5    5  503    0 -0.16829186785E+02  0.51103058694E+03 -0.24937085556E+03  0.56887723273E+03  0.00000000000E+00 0. -1.
         -4    1    5    5    0  503 -0.71793899333E+02  0.37193327660E+03 -0.14824662347E+03  0.40677486106E+03  0.00000000000E+00 0.  1.
         -3    1    6    6    0  502 -0.38558567515E+02 -0.66453807860E+02 -0.12683685718E+03  0.14829180708E+03  0.00000000000E+00 0.  1.
<mgrwt>
<rscale>  0 0.19973765E+04</rscale>
<asrwt>0</asrwt>
<pdfrwt beam="1">  1        2 0.27750483E+00 0.19973765E+04</pdfrwt>
<pdfrwt beam="2">  1       -2 0.85067293E-01 0.19973765E+04</pdfrwt>
<totfact> 0.95969413E+00</totfact>
</mgrwt>
</event>
<event>
12    1  0.1496989E-007  0.1634160E+04  0.7818608E-02  0.8799833E-01
         -2   -1    0    0    0  501 -0.00000000000E+00  0.00000000000E+00  0.47861978213E+03  0.47861978213E+03  0.00000000000E+00 0.  1.
          2   -1    0    0  501    0  0.00000000000E+00 -0.00000000000E+00 -0.13948857320E+04  0.13948857320E+04  0.00000000000E+00 0. -1.
         23    2    1    2    0    0  0.44305524721E+03 -0.16955727177E+03  0.23388893506E+02  0.48412076249E+03  0.93692325404E+02 0.  0.
        254    2    1    2    0    0 -0.44305524721E+03  0.16955727177E+03 -0.93965484337E+03  0.13893847516E+04  0.90685784053E+03 0.  0.
        -24    2    4    4    0    0  0.22244715131E+03  0.68673786913E+02 -0.56352992669E+03  0.61429806186E+03  0.74815148181E+02 0.  0.
         24    2    4    4    0    0 -0.66550239852E+03  0.10088348485E+03 -0.37612491668E+03  0.77508668977E+03  0.78857490219E+02 0.  0.
         11    1    3    3    0    0  0.31443099645E+03 -0.14480209655E+03  0.51979575691E+02  0.35005196040E+03  0.00000000000E+00 0.  1.
        -11    1    3    3    0    0  0.12862425077E+03 -0.24755175221E+02 -0.28590682184E+02  0.13406880209E+03  0.00000000000E+00 0. -1.
          4    1    6    6  502    0 -0.49902677822E+03  0.10638593037E+03 -0.26608068975E+03  0.57545167045E+03  0.00000000000E+00 0. -1.
          1    1    5    5  503    0  0.18333295730E+03  0.42245247619E+02 -0.36988771816E+03  0.41498500963E+03  0.00000000000E+00 0. -1.
         -2    1    5    5    0  503  0.39114194010E+02  0.26428539294E+02 -0.19364220853E+03  0.19931305223E+03  0.00000000000E+00 0.  1.
         -3    1    6    6    0  502 -0.16647562030E+03 -0.55024455190E+01 -0.11004422693E+03  0.19963501932E+03  0.00000000000E+00 0.  1.
<mgrwt>
<rscale>  0 0.16341602E+04</rscale>
<asrwt>0</asrwt>
<pdfrwt beam="1">  1        2 0.21459781E+00 0.16341602E+04</pdfrwt>
<pdfrwt beam="2">  1       -2 0.73633812E-01 0.16341602E+04</pdfrwt>
<totfact> 0.23174277E+01</totfact>
</mgrwt>
</event>
<event>
12    1  0.1496989E-007  0.1678618E+04  0.7818608E-02  0.8773654E-01
         -1   -1    0    0    0  501 -0.00000000000E+00  0.00000000000E+00  0.14421388219E+04  0.14421388219E+04  0.00000000000E+00 0.  1.
          1   -1    0    0  501    0  0.00000000000E+00 -0.00000000000E+00 -0.48846846189E+03  0.48846846189E+03  0.00000000000E+00 0. -1.
         23    2    1    2    0    0 -0.61919403440E+02  0.58810346075E+03  0.18993778710E+03  0.62796310199E+03  0.92528922117E+02 0.  0.
        254    2    1    2    0    0  0.61919403440E+02 -0.58810346075E+03  0.76373257287E+03  0.13026441818E+04  0.87401071408E+03 0.  0.
        -24    2    4    4    0    0  0.67019369277E+02 -0.91479274269E+02  0.78698007740E+03  0.79911282707E+03  0.79897526167E+02 0.  0.
         24    2    4    4    0    0 -0.50999658363E+01 -0.49662418648E+03 -0.23247504528E+02  0.50353135469E+03  0.79635334091E+02 0.  0.
         11    1    3    3    0    0 -0.82221605878E+02  0.53273370042E+03  0.16315511419E+03  0.56319195601E+03  0.00000000000E+00 0.  1.
        -11    1    3    3    0    0  0.20302202438E+02  0.55369760333E+02  0.26782672914E+02  0.64771145980E+02  0.00000000000E+00 0. -1.
          4    1    6    6  502    0 -0.13828105729E+02 -0.17310751975E+03  0.27881964024E+02  0.17588301174E+03  0.00000000000E+00 0. -1.
          1    1    5    5  503    0 -0.55978862586E+01  0.11013915302E+02  0.49933875453E+02  0.51439620708E+02  0.00000000000E+00 0. -1.
         -2    1    5    5    0  503  0.72617255535E+02 -0.10249318957E+03  0.73704620194E+03  0.74767320636E+03  0.00000000000E+00 0.  1.
         -3    1    6    6    0  502  0.87281398925E+01 -0.32351666673E+03 -0.51129468552E+02  0.32764834294E+03  0.00000000000E+00 0.  1.
<mgrwt>
<rscale>  0 0.16786177E+04</rscale>
<asrwt>0</asrwt>
<pdfrwt beam="1">  1        1 0.75148995E-01 0.16786177E+04</pdfrwt>
<pdfrwt beam="2">  1       -1 0.22186751E+00 0.16786177E+04</pdfrwt>
<totfact> 0.46653770E+00</totfact>
</mgrwt>
</event>
<event>
12    1  0.1496989E-007  0.1713472E+04  0.7818608E-02  0.8753718E-01
         -2   -1    0    0    0  501 -0.00000000000E+00  0.00000000000E+00  0.30883537650E+03  0.30883537650E+03  0.00000000000E+00 0.  1.
          2   -1    0    0  501    0  0.00000000000E+00 -0.00000000000E+00 -0.23766593728E+04  0.23766593728E+04  0.00000000000E+00 0. -1.
         23    2    1    2    0    0  0.47462159950E+01  0.60936926033E+03 -0.93265066395E+03  0.11178687510E+04  0.91868718641E+02 0.  0.
        254    2    1    2    0    0 -0.47462159950E+01 -0.60936926033E+03 -0.11351733324E+04  0.15676259984E+04  0.89301699543E+03 0.  0.
        -24    2    4    4    0    0  0.45688493470E+02  0.21929947544E+03 -0.33852300243E+03  0.41417113753E+03  0.82220493911E+02 0.  0.
         24    2    4    4    0    0 -0.50434709465E+02 -0.82866873577E+03 -0.79665032997E+03  0.11534548608E+04  0.81060682046E+02 0.  0.
         13    1    3    3    0    0  0.13076377826E+02  0.45246208392E+03 -0.75860582211E+03  0.88338877193E+03  0.00000000000E+00 0. -1.
        -13    1    3    3    0    0 -0.83301618308E+01  0.15690717641E+03 -0.17404484185E+03  0.23447997906E+03  0.00000000000E+00 0.  1.
          4    1    6    6  502    0 -0.11923262903E+02 -0.14724099987E+03 -0.10133264786E+03  0.17913788478E+03  0.00000000000E+00 0. -1.
          3    1    5    5  503    0  0.67620311197E+00  0.52797560874E+02 -0.14817962810E+03  0.15730620417E+03  0.00000000000E+00 0. -1.
         -4    1    5    5    0  503  0.45012290358E+02  0.16650191457E+03 -0.19034337433E+03  0.25686493336E+03  0.00000000000E+00 0.  1.
         -3    1    6    6    0  502 -0.38511446562E+02 -0.68142773590E+03 -0.69531768210E+03  0.97431697605E+03  0.00000000000E+00 0.  1.
<mgrwt>
<rscale>  0 0.17134719E+04</rscale>
<asrwt>0</asrwt>
<pdfrwt beam="1">  1        2 0.36563988E+00 0.17134719E+04</pdfrwt>
<pdfrwt beam="2">  1       -2 0.47513138E-01 0.17134719E+04</pdfrwt>
<totfact> 0.16376443E+01</totfact>
</mgrwt>
</event>
<event>
12    1  0.1496989E-007  0.1700073E+04  0.7818608E-02  0.8761323E-01
         -2   -1    0    0    0  501 -0.00000000000E+00  0.00000000000E+00  0.28176180448E+03  0.28176180448E+03  0.00000000000E+00 0.  1.
          2   -1    0    0  501    0  0.00000000000E+00 -0.00000000000E+00 -0.25644414839E+04  0.25644414839E+04  0.00000000000E+00 0. -1.
         23    2    1    2    0    0  0.28727181013E+03 -0.27409886482E+03 -0.55030934768E+02  0.41084944520E+03  0.90075425329E+02 0.  0.
        254    2    1    2    0    0 -0.28727181013E+03  0.27409886482E+03 -0.22276487446E+04  0.24353538432E+04  0.90048549754E+03 0.  0.
        -24    2    4    4    0    0  0.24910056517E+03  0.11283302491E+03 -0.25495905520E+03  0.38310787570E+03  0.83577159063E+02 0.  0.
         24    2    4    4    0    0 -0.53637237530E+03  0.16126583992E+03 -0.19726896894E+04  0.20522459675E+04  0.80665382944E+02 0.  0.
         11    1    3    3    0    0  0.24712789732E+03 -0.20139805863E+03 -0.70175105027E+02  0.32643210782E+03  0.00000000000E+00 0.  1.
        -11    1    3    3    0    0  0.40143912814E+02 -0.72700806197E+02  0.15144170259E+02  0.84417337381E+02  0.00000000000E+00 0. -1.
          4    1    6    6  502    0 -0.35828656913E+03  0.85620883257E+02 -0.11730651192E+04  0.12295454344E+04  0.00000000000E+00 0. -1.
          3    1    5    5  503    0  0.21179400168E+03  0.80058097555E+02 -0.24278305850E+03  0.33197833006E+03  0.00000000000E+00 0. -1.
         -4    1    5    5    0  503  0.37306563487E+02  0.32774927351E+02 -0.12175996703E+02  0.51129545644E+02  0.00000000000E+00 0.  1.
         -3    1    6    6    0  502 -0.17808580618E+03  0.75644956660E+02 -0.79962457022E+03  0.82270053308E+03  0.00000000000E+00 0.  1.
<mgrwt>
<rscale>  0 0.17000725E+04</rscale>
<asrwt>0</asrwt>
<pdfrwt beam="1">  1        2 0.39452946E+00 0.17000725E+04</pdfrwt>
<pdfrwt beam="2">  1       -2 0.43347970E-01 0.17000725E+04</pdfrwt>
<totfact> 0.15361110E+01</totfact>
</mgrwt>
</event>
<event>
12    1  0.1496989E-007  0.2306927E+04  0.7818608E-02  0.8475195E-01
         -2   -1    0    0    0  501 -0.00000000000E+00  0.00000000000E+00  0.60355450281E+03  0.60355450281E+03  0.00000000000E+00 0.  1.
          2   -1    0    0  501    0  0.00000000000E+00 -0.00000000000E+00 -0.22044050681E+04  0.22044050681E+04  0.00000000000E+00 0. -1.
         23    2    1    2    0    0  0.42560797891E+03  0.27721264447E+03  0.32932401131E+03  0.61274173097E+03  0.94916397314E+02 0.  0.
        254    2    1    2    0    0 -0.42560797891E+03 -0.27721264447E+03 -0.19301745766E+04  0.21952178399E+04  0.91401229020E+03 0.  0.
        -24    2    4    4    0    0 -0.60701998111E+03  0.98679194850E+02 -0.11046012270E+04  0.12667246055E+04  0.78971605526E+02 0.  0.
         24    2    4    4    0    0  0.18141200220E+03 -0.37589183932E+03 -0.82557334958E+03  0.92849323443E+03  0.79519440687E+02 0.  0.
         13    1    3    3    0    0  0.17981652041E+02  0.34977863069E+02  0.85091087260E+01  0.40239230190E+02  0.00000000000E+00 0. -1.
        -13    1    3    3    0    0  0.40762632687E+03  0.24223478140E+03  0.32081490258E+03  0.57250250078E+03  0.00000000000E+00 0.  1.
          4    1    6    6  502    0  0.60104085102E+02 -0.77325859365E+02 -0.13888965622E+03  0.16994742181E+03  0.00000000000E+00 0. -1.
          3    1    5    5  503    0 -0.10020221785E+03 -0.12438935816E+02 -0.19239868572E+03  0.21728429730E+03  0.00000000000E+00 0. -1.
         -4    1    5    5    0  503 -0.50681776326E+03  0.11111813067E+03 -0.91220254129E+03  0.10494403082E+04  0.00000000000E+00 0.  1.
         -3    1    6    6    0  502  0.12130791709E+03 -0.29856597995E+03 -0.68668369335E+03  0.75854581262E+03  0.00000000000E+00 0.  1.
<mgrwt>
<rscale>  0 0.23069275E+04</rscale>
<asrwt>0</asrwt>
<pdfrwt beam="1">  1        2 0.33913925E+00 0.23069275E+04</pdfrwt>
<pdfrwt beam="2">  1       -2 0.92854538E-01 0.23069275E+04</pdfrwt>
<totfact> 0.45726983E+00</totfact>
</mgrwt>
</event>
<event>
12    1  0.1496989E-007  0.1256770E+04  0.7818608E-02  0.9064567E-01
          1   -1    0    0  501    0  0.00000000000E+00  0.00000000000E+00  0.96549720924E+03  0.96549720924E+03  0.00000000000E+00 0. -1.
         -1   -1    0    0    0  501 -0.00000000000E+00 -0.00000000000E+00 -0.40897856371E+03  0.40897856371E+03  0.00000000000E+00 0.  1.
         23    2    1    2    0    0  0.28696369521E+03  0.89295416668E+01  0.21517642251E+03  0.37042098798E+03  0.92102749392E+02 0.  0.
        254    2    1    2    0    0 -0.28696369521E+03 -0.89295416668E+01  0.34134222302E+03  0.10040547850E+04  0.89954632951E+03 0.  0.
        -24    2    4    4    0    0  0.31075040639E+03  0.84647238084E+02  0.88611922054E+02  0.34423502590E+03  0.83154737322E+02 0.  0.
         24    2    4    4    0    0 -0.59771410160E+03 -0.93576779751E+02  0.25273030096E+03  0.65981975908E+03  0.73964508249E+02 0.  0.
         13    1    3    3    0    0  0.26368156963E+03  0.35602466093E+02  0.18806709043E+03  0.32582930540E+03  0.00000000000E+00 0. -1.
        -13    1    3    3    0    0  0.23282125575E+02 -0.26672924427E+02  0.27109332084E+02  0.44591682574E+02  0.00000000000E+00 0.  1.
          2    1    6    6  502    0 -0.95322504684E+02  0.11873504317E+02  0.44246113028E+02  0.10575953159E+03  0.00000000000E+00 0. -1.
          3    1    5    5  503    0  0.20374576140E+03  0.23370094373E+02  0.81626618817E+02  0.22072924930E+03  0.00000000000E+00 0. -1.
         -4    1    5    5    0  503  0.10700464499E+03  0.61277143711E+02  0.69853032375E+01  0.12350577660E+03  0.00000000000E+00 0.  1.
         -1    1    6    6    0  502 -0.50239159692E+03 -0.10545028407E+03  0.20848418794E+03  0.55406022749E+03  0.00000000000E+00 0.  1.
<mgrwt>
<rscale>  0 0.12567699E+04</rscale>
<asrwt>0</asrwt>
<pdfrwt beam="1">  1        1 0.14853803E+00 0.12567699E+04</pdfrwt>
<pdfrwt beam="2">  1       -1 0.62919779E-01 0.12567699E+04</pdfrwt>
<totfact> 0.40684365E+01</totfact>
</mgrwt>
</event>
<event>
12    1  0.1496989E-007  0.1247349E+04  0.7818608E-02  0.9072393E-01
          1   -1    0    0  501    0  0.00000000000E+00  0.00000000000E+00  0.62112644134E+03  0.62112644134E+03  0.00000000000E+00 0. -1.
         -1   -1    0    0    0  501 -0.00000000000E+00 -0.00000000000E+00 -0.62623265174E+03  0.62623265174E+03  0.00000000000E+00 0.  1.
         23    2    1    2    0    0 -0.86123018142E+02 -0.20853312661E+03  0.17962701010E+03  0.30226973628E+03  0.90542208772E+02 0.  0.
        254    2    1    2    0    0  0.86123018142E+02  0.20853312661E+03 -0.18473322050E+03  0.94508935680E+03  0.89897958288E+03 0.  0.
        -24    2    4    4    0    0  0.43594422424E+03  0.32005986140E+03 -0.15583901810E+03  0.56830462247E+03  0.78731587199E+02 0.  0.
         24    2    4    4    0    0 -0.34982120610E+03 -0.11152673479E+03 -0.28894202400E+02  0.37678473433E+03  0.79490705623E+02 0.  0.
         13    1    3    3    0    0 -0.16611091604E+02 -0.44450544131E+02 -0.24304386328E+01  0.47515116224E+02  0.00000000000E+00 0.  1.
        -13    1    3    3    0    0 -0.69511926538E+02 -0.16408258248E+03  0.18205744873E+03  0.25475462006E+03  0.00000000000E+00 0. -1.
          4    1    6    6  502    0 -0.19830538860E+02  0.11927151086E+02 -0.48051222830E+01  0.23634644162E+02  0.00000000000E+00 0. -1.
          3    1    5    5  503    0  0.27527244301E+02  0.68994681058E+00 -0.13457797397E+02  0.30648613609E+02  0.00000000000E+00 0. -1.
         -4    1    5    5    0  503  0.40841697994E+03  0.31936991459E+03 -0.14238122071E+03  0.53765600886E+03  0.00000000000E+00 0.  1.
         -3    1    6    6    0  502 -0.32999066724E+03 -0.12345388588E+03 -0.24089080117E+02  0.35315009017E+03  0.00000000000E+00 0.  1.
<mgrwt>
<rscale>  0 0.12473486E+04</rscale>
<asrwt>0</asrwt>
<pdfrwt beam="1">  1        1 0.95557914E-01 0.12473486E+04</pdfrwt>
<pdfrwt beam="2">  1       -1 0.96343485E-01 0.12473486E+04</pdfrwt>
<totfact> 0.33340444E+01</totfact>
</mgrwt>
</event>
<event>
12    1  0.1496989E-007  0.1267088E+04  0.7818608E-02  0.9056080E-01
         -2   -1    0    0    0  501 -0.00000000000E+00  0.00000000000E+00  0.21143409736E+03  0.21143409736E+03  0.00000000000E+00 0. -1.
          2   -1    0    0  501    0  0.00000000000E+00 -0.00000000000E+00 -0.18983598916E+04  0.18983598916E+04  0.00000000000E+00 0.  1.
         23    2    1    2    0    0  0.17509120094E+03 -0.21011346056E+03 -0.74068863604E+03  0.79464648155E+03  0.89659244455E+02 0.  0.
        254    2    1    2    0    0 -0.17509120094E+03  0.21011346056E+03 -0.94623715822E+03  0.13151475074E+04  0.87146061974E+03 0.  0.
        -24    2    4    4    0    0  0.29488362403E+03 -0.97521181994E+02 -0.20431742877E+03  0.38048986446E+03  0.80995015906E+02 0.  0.
         24    2    4    4    0    0 -0.46997482496E+03  0.30763464256E+03 -0.74191972944E+03  0.93465764296E+03  0.87319042681E+02 0.  0.
         11    1    3    3    0    0  0.15555263194E+03 -0.19123497736E+03 -0.71836104316E+03  0.75948010257E+03  0.00000000000E+00 0.  1.
        -11    1    3    3    0    0  0.19538568997E+02 -0.18878483199E+02 -0.22327592883E+02  0.35166378976E+02  0.00000000000E+00 0. -1.
          2    1    6    6  502    0 -0.16787796145E+03  0.11439127992E+03 -0.33946770548E+03  0.39560927432E+03  0.00000000000E+00 0. -1.
          3    1    5    5  503    0  0.79168431030E+02 -0.56745563967E+01 -0.18933553616E+02  0.81598532551E+02  0.00000000000E+00 0. -1.
         -4    1    5    5    0  503  0.21571519300E+03 -0.91846625597E+02 -0.18538387516E+03  0.29889133191E+03  0.00000000000E+00 0.  1.
         -1    1    6    6    0  502 -0.30209686352E+03  0.19324336264E+03 -0.40245202396E+03  0.53904836864E+03  0.00000000000E+00 0.  1.
<mgrwt>
<rscale>  0 0.12670880E+04</rscale>
<asrwt>0</asrwt>
<pdfrwt beam="1">  1        2 0.29205536E+00 0.12670880E+04</pdfrwt>
<pdfrwt beam="2">  1       -2 0.32528323E-01 0.12670880E+04</pdfrwt>
<totfact> 0.65868575E+01</totfact>
</mgrwt>
</event>
<event>
12    1  0.1673085E-007  0.2401471E+04  0.7818608E-02  0.8438953E-01
          1   -1    0    0  501    0  0.00000000000E+00  0.00000000000E+00  0.10300941270E+04  0.10300941270E+04  0.00000000000E+00 0. -1.
         -1   -1    0    0    0  501 -0.00000000000E+00 -0.00000000000E+00 -0.13996444277E+04  0.13996444277E+04  0.00000000000E+00 0.  1.
         23    2    1    2    0    0 -0.27014290770E+03 -0.53390335713E+02 -0.11641678788E+04  0.11990056360E+04  0.80622245129E+02 0.  0.
        254    2    1    2    0    0  0.27014290770E+03  0.53390335713E+02  0.79461757807E+03  0.12307329187E+04  0.89858705942E+03 0.  0.
        -24    2    4    4    0    0  0.27934583545E+03 -0.37562062886E+03  0.56190101416E+03  0.73559001238E+03  0.78961788216E+02 0.  0.
         24    2    4    4    0    0 -0.92029277424E+01  0.42901096457E+03  0.23271656391E+03  0.49514290635E+03  0.82911983416E+02 0.  0.
         11    1    3    3    0    0 -0.25469482941E+03 -0.49656589374E+02 -0.96742433965E+03  0.10016212288E+04  0.00000000000E+00 0.  1.
        -11    1    3    3    0    0 -0.15448078298E+02 -0.37337463395E+01 -0.19674353919E+03  0.19738440718E+03  0.00000000000E+00 0. -1.
          2    1    6    6  502    0 -0.62880532026E+01  0.38938349873E+03  0.17971657526E+03  0.42890219878E+03  0.00000000000E+00 0. -1.
          3    1    5    5  503    0  0.21540790285E+03 -0.28195531147E+03  0.47406025760E+03  0.59214228873E+03  0.00000000000E+00 0. -1.
         -4    1    5    5    0  503  0.63937932598E+02 -0.93665317387E+02  0.87840756567E+02  0.14344772365E+03  0.00000000000E+00 0.  1.
         -1    1    6    6    0  502 -0.29148745399E+01  0.39627465836E+02  0.52999988653E+02  0.66240707570E+02  0.00000000000E+00 0.  1.
<mgrwt>
<rscale>  0 0.24014708E+04</rscale>
<asrwt>0</asrwt>
<pdfrwt beam="1">  1        1 0.15847602E+00 0.24014708E+04</pdfrwt>
<pdfrwt beam="2">  1       -1 0.21532991E+00 0.24014708E+04</pdfrwt>
<totfact> 0.15196751E+00</totfact>
</mgrwt>
</event>
<event>
12    1  0.1496989E-007  0.2433236E+04  0.7818608E-02  0.8427164E-01
         -2   -1    0    0    0  501 -0.00000000000E+00  0.00000000000E+00  0.11761201714E+04  0.11761201714E+04  0.00000000000E+00 0.  1.
          2   -1    0    0  501    0  0.00000000000E+00 -0.00000000000E+00 -0.12585104993E+04  0.12585104993E+04  0.00000000000E+00 0. -1.
         23    2    1    2    0    0  0.23318051640E+03  0.20720226106E+03 -0.10356484876E+04  0.10847704517E+04  0.82784134529E+02 0.  0.
        254    2    1    2    0    0 -0.23318051640E+03 -0.20720226106E+03  0.95325815963E+03  0.13498602189E+04  0.90339114537E+03 0.  0.
        -24    2    4    4    0    0 -0.24710212245E+03 -0.13680316175E+03  0.11171986538E+04  0.11548724979E+04  0.76309176497E+02 0.  0.
         24    2    4    4    0    0  0.13921606050E+02 -0.70399099303E+02 -0.16394049413E+03  0.19498772105E+03  0.77420161766E+02 0.  0.
         13    1    3    3    0    0  0.22191100089E+03  0.17121303047E+03 -0.96240730400E+03  0.10023902498E+04  0.00000000000E+00 0. -1.
        -13    1    3    3    0    0  0.11269515510E+02  0.35989230587E+02 -0.73241183554E+02  0.82380201909E+02  0.00000000000E+00 0.  1.
          2    1    6    6  502    0  0.10831250743E+01 -0.84792974974E+02 -0.11938816280E+03  0.14643959567E+03  0.00000000000E+00 0. -1.
          3    1    5    5  503    0 -0.24010100619E+03 -0.14541765112E+03  0.10882177120E+04  0.11238383225E+04  0.00000000000E+00 0. -1.
         -4    1    5    5    0  503 -0.70011162521E+01  0.86144893643E+01  0.28980941797E+02  0.31034175408E+02  0.00000000000E+00 0.  1.
         -1    1    6    6    0  502  0.12838480975E+02  0.14393875671E+02 -0.44552331331E+02  0.48548125377E+02  0.00000000000E+00 0.  1.
<mgrwt>
<rscale>  0 0.24332362E+04</rscale>
<asrwt>0</asrwt>
<pdfrwt beam="1">  1        2 0.19361700E+00 0.24332362E+04</pdfrwt>
<pdfrwt beam="2">  1       -2 0.18094157E+00 0.24332362E+04</pdfrwt>
<totfact> 0.28010243E+00</totfact>
</mgrwt>
</event>
<event>
12    1  0.1496989E-007  0.1688125E+04  0.7818608E-02  0.8768166E-01
         -2   -1    0    0    0  501 -0.00000000000E+00  0.00000000000E+00  0.24575601892E+03  0.24575601892E+03  0.00000000000E+00 0.  1.
          2   -1    0    0  501    0  0.00000000000E+00 -0.00000000000E+00 -0.28989798869E+04  0.28989798869E+04  0.00000000000E+00 0. -1.
         23    2    1    2    0    0 -0.46180332809E+03 -0.51317958253E+02 -0.21347363710E+03  0.51913027303E+03  0.89606919203E+02 0.  0.
        254    2    1    2    0    0  0.46180332809E+03  0.51317958253E+02 -0.24397502309E+04  0.26256056328E+04  0.85177925733E+03 0.  0.
        -24    2    4    4    0    0  0.12299047078E+03 -0.13098074777E+03 -0.48610703692E+02  0.20241146656E+03  0.79528542631E+02 0.  0.
         24    2    4    4    0    0  0.33881285731E+03  0.18229870602E+03 -0.23911395272E+04  0.24231941663E+04  0.79339512852E+02 0.  0.
         13    1    3    3    0    0 -0.42119241973E+03 -0.43124455962E+02 -0.22008088223E+03  0.47717750142E+03  0.00000000000E+00 0.  1.
        -13    1    3    3    0    0 -0.40610908361E+02 -0.81935022905E+01  0.66072451319E+01  0.41952771612E+02  0.00000000000E+00 0. -1.
          4    1    6    6  502    0  0.25055293132E+03  0.15518337522E+03 -0.16248259762E+04  0.16513382768E+04  0.00000000000E+00 0. -1.
          3    1    5    5  503    0  0.67971251750E+02 -0.12204274187E+03 -0.44094198875E+02  0.14648829401E+03  0.00000000000E+00 0. -1.
         -4    1    5    5    0  503  0.55019219031E+02 -0.89380058962E+01 -0.45165048178E+01  0.55923172549E+02  0.00000000000E+00 0.  1.
         -3    1    6    6    0  502  0.88259925993E+02  0.27115330804E+02 -0.76631355096E+03  0.77185588946E+03  0.00000000000E+00 0.  1.
<mgrwt>
<rscale>  0 0.16881253E+04</rscale>
<asrwt>0</asrwt>
<pdfrwt beam="1">  1        2 0.44599689E+00 0.16881253E+04</pdfrwt>
<pdfrwt beam="2">  1       -2 0.37808620E-01 0.16881253E+04</pdfrwt>
<totfact> 0.12702764E+01</totfact>
</mgrwt>
</event>
<event>
12    1  0.1496989E-007  0.1646258E+04  0.7818608E-02  0.8792624E-01
          1   -1    0    0  501    0  0.00000000000E+00  0.00000000000E+00  0.50971384970E+03  0.50971384970E+03  0.00000000000E+00 0. -1.
         -1   -1    0    0    0  501 -0.00000000000E+00 -0.00000000000E+00 -0.13292575595E+04  0.13292575595E+04  0.00000000000E+00 0.  1.
         23    2    1    2    0    0  0.55806467712E+03  0.11144431051E+03 -0.41388185291E+03  0.70959929600E+03  0.91525704180E+02 0.  0.
        254    2    1    2    0    0 -0.55806467712E+03 -0.11144431051E+03 -0.40566185688E+03  0.11293721132E+04  0.88716616802E+03 0.  0.
        -24    2    4    4    0    0 -0.46171761265E+03  0.30984796906E+03 -0.49145254746E+02  0.56386409669E+03  0.79614984219E+02 0.  0.
         24    2    4    4    0    0 -0.96347064469E+02 -0.42129227957E+03 -0.35651660213E+03  0.56550801648E+03  0.76975888755E+02 0.  0.
         11    1    3    3    0    0  0.39437502803E+03  0.73976878578E+02 -0.23847286247E+03  0.46676926573E+03  0.00000000000E+00 0.  1.
        -11    1    3    3    0    0  0.16368964909E+03  0.37467431936E+02 -0.17540899043E+03  0.24283003027E+03  0.00000000000E+00 0. -1.
          2    1    6    6  502    0 -0.14156798486E+02 -0.80392787553E+02 -0.10947776175E+03  0.13656059297E+03  0.00000000000E+00 0. -1.
          3    1    5    5  503    0 -0.34336145165E+02  0.52752806349E+02 -0.71519227256E+01  0.63348081590E+02  0.00000000000E+00 0. -1.
         -2    1    5    5    0  503 -0.42738146749E+03  0.25709516271E+03 -0.41993332021E+02  0.50051601510E+03  0.00000000000E+00 0.  1.
         -1    1    6    6    0  502 -0.82190265983E+02 -0.34089949202E+03 -0.24703884038E+03  0.42894742351E+03  0.00000000000E+00 0.  1.
<mgrwt>
<rscale>  0 0.16462576E+04</rscale>
<asrwt>0</asrwt>
<pdfrwt beam="1">  1        1 0.78417516E-01 0.16462576E+04</pdfrwt>
<pdfrwt beam="2">  1       -1 0.20450116E+00 0.16462576E+04</pdfrwt>
<totfact> 0.57803945E+00</totfact>
</mgrwt>
</event>
<event>
12    1  0.1496989E-007  0.1471246E+04  0.7818608E-02  0.8903803E-01
          3   -1    0    0  501    0  0.00000000000E+00  0.00000000000E+00  0.11812306324E+04  0.11812306324E+04  0.00000000000E+00 0. -1.
         -3   -1    0    0    0  501 -0.00000000000E+00 -0.00000000000E+00 -0.45811619817E+03  0.45811619817E+03  0.00000000000E+00 0.  1.
         23    2    1    2    0    0 -0.72860340045E+01  0.33592233141E+03  0.52932516798E+03  0.63355120027E+03  0.91132271375E+02 0.  0.
        254    2    1    2    0    0  0.72860340045E+01 -0.33592233141E+03  0.19378926626E+03  0.10057956303E+04  0.92799443490E+03 0.  0.
        -24    2    4    4    0    0  0.17009726172E+03 -0.57560984694E+03  0.31369501132E+03  0.68248800039E+03  0.84412891241E+02 0.  0.
         24    2    4    4    0    0 -0.16281122771E+03  0.23968751554E+03 -0.11990574506E+03  0.32330762992E+03  0.78694567118E+02 0.  0.
         13    1    3    3    0    0  0.14401515015E+02  0.93633525584E+01  0.52306514089E+02  0.55054949115E+02  0.00000000000E+00 0.  1.
        -13    1    3    3    0    0 -0.21687549019E+02  0.32655897885E+03  0.47701865389E+03  0.57849625116E+03  0.00000000000E+00 0. -1.
          4    1    6    6  502    0 -0.76553883219E+02  0.68276957286E+02 -0.12319476206E+02  0.10331509776E+03  0.00000000000E+00 0. -1.
          3    1    5    5  503    0  0.38633246774E+02 -0.82206002417E+02  0.79567955541E+02  0.12075352640E+03  0.00000000000E+00 0. -1.
         -4    1    5    5    0  503  0.13146401494E+03 -0.49340384452E+03  0.23412705578E+03  0.56173447399E+03  0.00000000000E+00 0.  1.
         -3    1    6    6    0  502 -0.86257344492E+02  0.17141055825E+03 -0.10758626885E+03  0.21999253216E+03  0.00000000000E+00 0.  1.
<mgrwt>
<rscale>  0 0.14712456E+04</rscale>
<asrwt>0</asrwt>
<pdfrwt beam="1">  1        3 0.18172779E+00 0.14712456E+04</pdfrwt>
<pdfrwt beam="2">  1       -3 0.70479415E-01 0.14712456E+04</pdfrwt>
<totfact> 0.94320792E-01</totfact>
</mgrwt>
</event>
<event>
12    1  0.1496989E-007  0.1741429E+04  0.7818608E-02  0.8738082E-01
          2   -1    0    0  501    0  0.00000000000E+00  0.00000000000E+00  0.13058595600E+04  0.13058595600E+04  0.00000000000E+00 0. -1.
         -2   -1    0    0    0  501 -0.00000000000E+00 -0.00000000000E+00 -0.58057059971E+03  0.58057059971E+03  0.00000000000E+00 0.  1.
         23    2    1    2    0    0 -0.51141482600E+03 -0.30233463163E+03  0.36837197843E+03  0.70495301502E+03  0.91156377488E+02 0.  0.
        254    2    1    2    0    0  0.51141482600E+03  0.30233463163E+03  0.35691698186E+03  0.11814771447E+04  0.95684228468E+03 0.  0.
        -24    2    4    4    0    0  0.53934633677E+03  0.28680495545E+03 -0.17620224242E+03  0.64133546521E+03  0.84335017919E+02 0.  0.
         24    2    4    4    0    0 -0.27931510766E+02  0.15529676179E+02  0.53311922427E+03  0.54014167948E+03  0.80719182894E+02 0.  0.
         13    1    3    3    0    0 -0.29821188653E+03 -0.16424047972E+03  0.26186353985E+03  0.42950876353E+03  0.00000000000E+00 0. -1.
        -13    1    3    3    0    0 -0.21320293947E+03 -0.13809415191E+03  0.10650843859E+03  0.27544425149E+03  0.00000000000E+00 0.  1.
          4    1    6    6  502    0 -0.14181143424E+02 -0.94994985995E+01  0.47576511230E+03  0.47607119991E+03  0.00000000000E+00 0. -1.
          1    1    5    5  503    0  0.14953414427E+03  0.11838779395E+03 -0.73945781421E+02  0.20455832579E+03  0.00000000000E+00 0. -1.
         -2    1    5    5    0  503  0.38981219249E+03  0.16841716150E+03 -0.10225646100E+03  0.43677713942E+03  0.00000000000E+00 0.  1.
         -3    1    6    6    0  502 -0.13750367342E+02  0.25029174779E+02  0.57354111973E+02  0.64070479570E+02  0.00000000000E+00 0.  1.
<mgrwt>
<rscale>  0 0.17414289E+04</rscale>
<asrwt>0</asrwt>
<pdfrwt beam="1">  1        2 0.20090147E+00 0.17414289E+04</pdfrwt>
<pdfrwt beam="2">  1       -2 0.89318554E-01 0.17414289E+04</pdfrwt>
<totfact> 0.16733051E+01</totfact>
</mgrwt>
</event>
<event>
12    1  0.1496989E-007  0.3098526E+04  0.7818608E-02  0.8216142E-01
         -2   -1    0    0    0  501 -0.00000000000E+00  0.00000000000E+00  0.81362118434E+03  0.81362118434E+03  0.00000000000E+00 0.  1.
          2   -1    0    0  501    0  0.00000000000E+00 -0.00000000000E+00 -0.29500414088E+04  0.29500414088E+04  0.00000000000E+00 0. -1.
         23    2    1    2    0    0  0.58029850187E+02  0.13954278542E+04 -0.12960998516E+04  0.19076383873E+04  0.92860280081E+02 0.  0.
        254    2    1    2    0    0 -0.58029850187E+02 -0.13954278542E+04 -0.84032037290E+03  0.18560242058E+04  0.88775062017E+03 0.  0.
        -24    2    4    4    0    0  0.35832607928E+03 -0.42031339956E+03 -0.47152114433E+03  0.73061744682E+03  0.80054550860E+02 0.  0.
         24    2    4    4    0    0 -0.41635592946E+03 -0.97511445469E+03 -0.36879922857E+03  0.11254067590E+04  0.79542708571E+02 0.  0.
         13    1    3    3    0    0  0.29892723359E+02  0.11662089137E+04 -0.11202012475E+04  0.16173396799E+04  0.00000000000E+00 0. -1.
        -13    1    3    3    0    0  0.28137126828E+02  0.22921894057E+03 -0.17589860409E+03  0.29029870745E+03  0.00000000000E+00 0.  1.
          2    1    6    6  502    0 -0.86770420207E+02 -0.13315800159E+03 -0.48177779955E+02  0.16607605996E+03  0.00000000000E+00 0. -1.
          3    1    5    5  503    0  0.62260528204E+02 -0.38896121604E+02 -0.43212959506E+02  0.85185923235E+02  0.00000000000E+00 0. -1.
         -4    1    5    5    0  503  0.29606555107E+03 -0.38141727795E+03 -0.42830818482E+03  0.64543152359E+03  0.00000000000E+00 0.  1.
         -3    1    6    6    0  502 -0.32958550926E+03 -0.84195645310E+03 -0.32062144862E+03  0.95933069905E+03  0.00000000000E+00 0.  1.
<mgrwt>
<rscale>  0 0.30985262E+04</rscale>
<asrwt>0</asrwt>
<pdfrwt beam="1">  1        2 0.45385252E+00 0.30985262E+04</pdfrwt>
<pdfrwt beam="2">  1       -2 0.12517249E+00 0.30985262E+04</pdfrwt>
<totfact> 0.75857666E-01</totfact>
</mgrwt>
</event>
<event>
12    1  0.1496989E-007  0.1622863E+04  0.7818608E-02  0.8806624E-01
          1   -1    0    0  501    0  0.00000000000E+00  0.00000000000E+00  0.80365244746E+03  0.80365244746E+03  0.00000000000E+00 0. -1.
         -1   -1    0    0    0  501 -0.00000000000E+00 -0.00000000000E+00 -0.81928618596E+03  0.81928618596E+03  0.00000000000E+00 0.  1.
         23    2    1    2    0    0  0.72587336266E+01 -0.55682422011E+03 -0.24169000084E+02  0.56462661559E+03  0.90073154426E+02 0.  0.
        254    2    1    2    0    0 -0.72587336266E+01  0.55682422011E+03  0.85352615810E+01  0.10583120178E+04  0.89991420428E+03 0.  0.
        -24    2    4    4    0    0 -0.19746108347E+03  0.44283804706E+03  0.37714778227E+03  0.61947744115E+03  0.80096410723E+02 0.  0.
         24    2    4    4    0    0  0.19020234984E+03  0.11398617305E+03 -0.36861252069E+03  0.43883457668E+03  0.86780261291E+02 0.  0.
         13    1    3    3    0    0 -0.88817528997E+01 -0.38049202216E+02  0.19685859579E+02  0.43751118742E+02  0.00000000000E+00 0. -1.
        -13    1    3    3    0    0  0.16140486526E+02 -0.51877501790E+03 -0.43854859663E+02  0.52087549685E+03  0.00000000000E+00 0.  1.
          4    1    6    6  502    0  0.89511297824E+02  0.16512710630E+02 -0.95885211858E+02  0.13220785114E+03  0.00000000000E+00 0. -1.
          1    1    5    5  503    0 -0.77583883301E+02  0.21587447208E+03  0.13262992425E+03  0.26497498646E+03  0.00000000000E+00 0. -1.
         -2    1    5    5    0  503 -0.11987720017E+03  0.22696357498E+03  0.24451785802E+03  0.35450245469E+03  0.00000000000E+00 0.  1.
         -3    1    6    6    0  502  0.10069105202E+03  0.97473462418E+02 -0.27272730883E+03  0.30662672554E+03  0.00000000000E+00 0.  1.
<mgrwt>
<rscale>  0 0.16228633E+04</rscale>
<asrwt>0</asrwt>
<pdfrwt beam="1">  1        1 0.12363884E+00 0.16228633E+04</pdfrwt>
<pdfrwt beam="2">  1       -1 0.12604403E+00 0.16228633E+04</pdfrwt>
<totfact> 0.11524416E+01</totfact>
</mgrwt>
</event>
<event>
12    1  0.1496989E-007  0.2855297E+04  0.7818608E-02  0.8286304E-01
          2   -1    0    0  501    0  0.00000000000E+00  0.00000000000E+00  0.25847522542E+04  0.25847522542E+04  0.00000000000E+00 0.  1.
         -2   -1    0    0    0  501 -0.00000000000E+00 -0.00000000000E+00 -0.78853989252E+03  0.78853989252E+03  0.00000000000E+00 0. -1.
         23    2    1    2    0    0  0.15688641324E+03 -0.36934269594E+03 -0.63241799000E+03  0.75442518184E+03  0.90429349227E+02 0.  0.
        254    2    1    2    0    0 -0.15688641324E+03  0.36934269594E+03  0.24286303516E+04  0.26188669648E+04  0.89397506726E+03 0.  0.
        -24    2    4    4    0    0 -0.19823127531E+03 -0.23488064977E+03  0.12676439976E+04  0.13069105394E+04  0.81420483476E+02 0.  0.
         24    2    4    4    0    0  0.41344862070E+02  0.60422334571E+03  0.11609863540E+04  0.13119564254E+04  0.80901785579E+02 0.  0.
         11    1    3    3    0    0  0.26499733076E+02 -0.10223324091E+02 -0.32303512373E+02  0.43014754680E+02  0.00000000000E+00 0.  1.
        -11    1    3    3    0    0  0.13038668017E+03 -0.35911937185E+03 -0.60011447763E+03  0.71141042715E+03  0.00000000000E+00 0. -1.
          2    1    6    6  502    0  0.22055187632E+02  0.55655213817E+03  0.10927110209E+04  0.12264803663E+04  0.00000000000E+00 0. -1.
          3    1    5    5  503    0 -0.13378694822E+03 -0.12681304639E+03  0.88891976335E+03  0.90783194586E+03  0.00000000000E+00 0. -1.
         -4    1    5    5    0  503 -0.64444327087E+02 -0.10806760338E+03  0.37872423427E+03  0.39907859353E+03  0.00000000000E+00 0.  1.
         -1    1    6    6    0  502  0.19289674438E+02  0.47671207538E+02  0.68275333149E+02  0.85476059131E+02  0.00000000000E+00 0.  1.
<mgrwt>
<rscale>  0 0.28552970E+04</rscale>
<asrwt>0</asrwt>
<pdfrwt beam="1">  1        2 0.39765419E+00 0.28552970E+04</pdfrwt>
<pdfrwt beam="2">  1       -2 0.12131383E+00 0.28552970E+04</pdfrwt>
<totfact> 0.13903170E+00</totfact>
</mgrwt>
</event>
<event>
12    1  0.1496989E-007  0.2244851E+04  0.7818608E-02  0.8499989E-01
          2   -1    0    0  501    0  0.00000000000E+00  0.00000000000E+00  0.27954060114E+04  0.27954060114E+04  0.00000000000E+00 0.  1.
         -2   -1    0    0    0  501 -0.00000000000E+00 -0.00000000000E+00 -0.45068192671E+03  0.45068192671E+03  0.00000000000E+00 0. -1.
         23    2    1    2    0    0  0.24715236503E+03  0.79792807077E+03  0.16115133819E+04  0.18179929259E+04  0.10173200459E+03 0.  0.
        254    2    1    2    0    0 -0.24715236503E+03 -0.79792807077E+03  0.73321070284E+03  0.14280950123E+04  0.89670727205E+03 0.  0.
        -24    2    4    4    0    0 -0.50314290357E+01 -0.32001400133E+02 -0.18593345016E+03  0.20483986580E+03  0.79616065249E+02 0.  0.
         24    2    4    4    0    0 -0.24212093599E+03 -0.76592667064E+03  0.91914415300E+03  0.12232551465E+04  0.79126272605E+02 0.  0.
         13    1    3    3    0    0  0.12514886918E+03  0.51324286546E+03  0.10940583713E+04  0.12149255937E+04  0.00000000000E+00 0.  1.
        -13    1    3    3    0    0  0.12200349585E+03  0.28468520531E+03  0.51745501055E+03  0.60306733212E+03  0.00000000000E+00 0. -1.
          4    1    6    6  502    0 -0.70400817895E+01 -0.26132127559E+02  0.57298740100E+02  0.63368734084E+02  0.00000000000E+00 0. -1.
          1    1    5    5  503    0  0.76015121996E+01 -0.19937406095E+02 -0.35606478891E+01  0.21632414634E+02  0.00000000000E+00 0. -1.
         -2    1    5    5    0  503 -0.12632941235E+02 -0.12063994038E+02 -0.18237280227E+03  0.18320745117E+03  0.00000000000E+00 0.  1.
         -3    1    6    6    0  502 -0.23508085420E+03 -0.73979454308E+03  0.86184541290E+03  0.11598864124E+04  0.00000000000E+00 0.  1.
<mgrwt>
<rscale>  0 0.22448510E+04</rscale>
<asrwt>0</asrwt>
<pdfrwt beam="1">  1        2 0.43006245E+00 0.22448510E+04</pdfrwt>
<pdfrwt beam="2">  1       -2 0.69335683E-01 0.22448510E+04</pdfrwt>
<totfact> 0.40247897E+00</totfact>
</mgrwt>
</event>
<event>
12    1  0.1496989E-007  0.3432140E+04  0.7818608E-02  0.8130063E-01
         -2   -1    0    0    0  501 -0.00000000000E+00  0.00000000000E+00  0.96792007014E+03  0.96792007014E+03  0.00000000000E+00 0. -1.
          2   -1    0    0  501    0  0.00000000000E+00 -0.00000000000E+00 -0.30425001549E+04  0.30425001549E+04  0.00000000000E+00 0.  1.
         23    2    1    2    0    0 -0.47177150210E+03 -0.12567702658E+04 -0.19830821802E+04  0.23974500219E+04  0.11450686884E+03 0.  0.
        254    2    1    2    0    0  0.47177150210E+03  0.12567702658E+04 -0.91497904580E+02  0.16129702032E+04  0.88952861594E+03 0.  0.
        -24    2    4    4    0    0  0.83145640818E+02  0.11644762554E+04 -0.20907369646E+03  0.11887094791E+04  0.80001676228E+02 0.  0.
         24    2    4    4    0    0  0.38862586128E+03  0.92294010385E+02  0.11757579188E+03  0.42426072405E+03  0.81393185963E+02 0.  0.
         13    1    3    3    0    0 -0.79215379008E+02 -0.29617630243E+03 -0.52157680801E+03  0.60501061565E+03  0.00000000000E+00 0. -1.
        -13    1    3    3    0    0 -0.39255612309E+03 -0.96059396335E+03 -0.14615053722E+04  0.17924394063E+04  0.00000000000E+00 0.  1.
          4    1    6    6  502    0  0.13361066946E+03  0.16841856647E+02  0.30405700288E+01  0.13470227985E+03  0.00000000000E+00 0. -1.
          3    1    5    5  503    0  0.70756047392E+02  0.46246507652E+03 -0.72533730368E+02  0.47343585340E+03  0.00000000000E+00 0. -1.
         -4    1    5    5    0  503  0.12389593426E+02  0.70201117887E+03 -0.13653996610E+03  0.71527362571E+03  0.00000000000E+00 0.  1.
         -3    1    6    6    0  502  0.25501519182E+03  0.75452153739E+02  0.11453522186E+03  0.28955844420E+03  0.00000000000E+00 0.  1.
<mgrwt>
<rscale>  0 0.34321404E+04</rscale>
<asrwt>0</asrwt>
<pdfrwt beam="1">  1        2 0.46807694E+00 0.34321404E+04</pdfrwt>
<pdfrwt beam="2">  1       -2 0.14891078E+00 0.34321404E+04</pdfrwt>
<totfact> 0.41286274E-01</totfact>
</mgrwt>
</event>
<event>
12    1  0.1496989E-007  0.1790782E+04  0.7818608E-02  0.8711217E-01
         -1   -1    0    0    0  501 -0.00000000000E+00  0.00000000000E+00  0.85456604787E+03  0.85456604787E+03  0.00000000000E+00 0.  1.
          1   -1    0    0  501    0  0.00000000000E+00 -0.00000000000E+00 -0.93816593684E+03  0.93816593684E+03  0.00000000000E+00 0. -1.
         23    2    1    2    0    0 -0.57932680228E+02  0.33351090801E+03 -0.62272675019E+03  0.71463403498E+03  0.91255012725E+02 0.  0.
        254    2    1    2    0    0  0.57932680228E+02 -0.33351090801E+03  0.53912686122E+03  0.10780979497E+04  0.87008717697E+03 0.  0.
        -24    2    4    4    0    0 -0.38845928648E+02 -0.95376824886E+02 -0.22954646342E+03  0.26378797993E+03  0.79289183304E+02 0.  0.
         24    2    4    4    0    0  0.96778608876E+02 -0.23813408312E+03  0.76867332464E+03  0.81430996981E+03  0.78537292023E+02 0.  0.
         13    1    3    3    0    0 -0.10948892787E+02  0.27525900848E+03 -0.50101440311E+03  0.57175417107E+03  0.00000000000E+00 0. -1.
        -13    1    3    3    0    0 -0.46983787441E+02  0.58251899528E+02 -0.12171234708E+03  0.14287986391E+03  0.00000000000E+00 0.  1.
          4    1    6    6  502    0  0.47190290203E+02 -0.12501304101E+03  0.51662072373E+03  0.53362173503E+03  0.00000000000E+00 0. -1.
          3    1    5    5  503    0  0.11183326333E+02 -0.54319789116E+02 -0.57113348517E+02  0.79609301318E+02  0.00000000000E+00 0. -1.
         -4    1    5    5    0  503 -0.50029254982E+02 -0.41057035770E+02 -0.17243311490E+03  0.18417867861E+03  0.00000000000E+00 0.  1.
         -3    1    6    6    0  502  0.49588318673E+02 -0.11312104211E+03  0.25205260091E+03  0.28068823478E+03  0.00000000000E+00 0.  1.
<mgrwt>
<rscale>  0 0.17907817E+04</rscale>
<asrwt>0</asrwt>
<pdfrwt beam="1">  1        1 0.14433322E+00 0.17907817E+04</pdfrwt>
<pdfrwt beam="2">  1       -1 0.13147170E+00 0.17907817E+04</pdfrwt>
<totfact> 0.78865943E+00</totfact>
</mgrwt>
</event>
<event>
12    1  0.1496989E-007  0.1496799E+04  0.7818608E-02  0.8886584E-01
         -2   -1    0    0    0  501 -0.00000000000E+00  0.00000000000E+00  0.27380102849E+03  0.27380102849E+03  0.00000000000E+00 0.  1.
          2   -1    0    0  501    0  0.00000000000E+00 -0.00000000000E+00 -0.20456533834E+04  0.20456533834E+04  0.00000000000E+00 0. -1.
         23    2    1    2    0    0  0.25281555139E+03  0.16811797176E+03 -0.11252096267E+02  0.31655658359E+03  0.88893787688E+02 0.  0.
        254    2    1    2    0    0 -0.25281555139E+03 -0.16811797176E+03 -0.17606002586E+04  0.20028978283E+04  0.90537676383E+03 0.  0.
        -24    2    4    4    0    0  0.23244213676E+03  0.15195670270E+03 -0.24959744753E+03  0.38193068458E+03  0.80324190475E+02 0.  0.
         24    2    4    4    0    0 -0.48525768815E+03 -0.32007467446E+03 -0.15110028111E+04  0.16209671437E+04  0.80511891796E+02 0.  0.
         11    1    3    3    0    0  0.18709034713E+03  0.16519656396E+03 -0.19023902269E+02  0.25030903218E+03  0.00000000000E+00 0. -1.
        -11    1    3    3    0    0  0.65725204259E+02  0.29214077927E+01  0.77718060019E+01  0.66247551403E+02  0.00000000000E+00 0.  1.
          4    1    6    6  502    0 -0.47899939489E+03 -0.32501788796E+03 -0.14886055371E+04  0.15971923782E+04  0.00000000000E+00 0. -1.
          1    1    5    5  503    0  0.92344860216E+02  0.99906769604E+02 -0.89125332019E+02  0.16264150955E+03  0.00000000000E+00 0. -1.
         -2    1    5    5    0  503  0.14009727655E+03  0.52049933098E+02 -0.16047211551E+03  0.21928917503E+03  0.00000000000E+00 0.  1.
         -3    1    6    6    0  502 -0.62582932573E+01  0.49432134986E+01 -0.22397274019E+02  0.23774765565E+02  0.00000000000E+00 0.  1.
<mgrwt>
<rscale>  0 0.14967993E+04</rscale>
<asrwt>0</asrwt>
<pdfrwt beam="1">  1        2 0.31471591E+00 0.14967993E+04</pdfrwt>
<pdfrwt beam="2">  1       -2 0.42123234E-01 0.14967993E+04</pdfrwt>
<totfact> 0.32544161E+01</totfact>
</mgrwt>
</event>
<event>
12    1  0.1496989E-007  0.2642535E+04  0.7818608E-02  0.8353895E-01
         -1   -1    0    0    0  501 -0.00000000000E+00  0.00000000000E+00  0.99901960995E+03  0.99901960995E+03  0.00000000000E+00 0.  1.
          1   -1    0    0  501    0  0.00000000000E+00 -0.00000000000E+00 -0.17474609159E+04  0.17474609159E+04  0.00000000000E+00 0. -1.
         23    2    1    2    0    0  0.11630525164E+04 -0.43596329550E+02 -0.28498814335E+03  0.12026123888E+04  0.10230601150E+03 0.  0.
        254    2    1    2    0    0 -0.11630525164E+04  0.43596329550E+02 -0.46345316255E+03  0.15438681370E+04  0.90230160955E+03 0.  0.
        -24    2    4    4    0    0 -0.12605520002E+02  0.62189263364E+02  0.18932427400E+03  0.21863070653E+03  0.89046625405E+02 0.  0.
         24    2    4    4    0    0 -0.11504469964E+04 -0.18592933814E+02 -0.65277743655E+03  0.13252374305E+04  0.79132020381E+02 0.  0.
         11    1    3    3    0    0  0.11368560812E+04 -0.54284901073E+02 -0.28837817140E+03  0.11741169318E+04  0.00000000000E+00 0.  1.
        -11    1    3    3    0    0  0.26196435233E+02  0.10688571523E+02  0.33900280506E+01  0.28495457011E+02  0.00000000000E+00 0. -1.
          4    1    6    6  502    0 -0.41993227851E+03 -0.36414795985E+02 -0.26651387982E+03  0.49869710651E+03  0.00000000000E+00 0. -1.
          1    1    5    5  503    0 -0.38825663103E+02  0.53326292356E+02  0.17591579341E+03  0.18787626764E+03  0.00000000000E+00 0. -1.
         -2    1    5    5    0  503  0.26220143101E+02  0.88629710084E+01  0.13408480599E+02  0.30754438888E+02  0.00000000000E+00 0.  1.
         -3    1    6    6    0  502 -0.73051471791E+03  0.17821862171E+02 -0.38626355673E+03  0.82654032395E+03  0.00000000000E+00 0.  1.
<mgrwt>
<rscale>  0 0.26425349E+04</rscale>
<asrwt>0</asrwt>
<pdfrwt beam="1">  1        1 0.26884014E+00 0.26425349E+04</pdfrwt>
<pdfrwt beam="2">  1       -1 0.15369532E+00 0.26425349E+04</pdfrwt>
<totfact> 0.12677447E+00</totfact>
</mgrwt>
</event>
<event>
12    1  0.1496989E-007  0.1485356E+04  0.7818608E-02  0.8894250E-01
         -1   -1    0    0    0  501 -0.00000000000E+00  0.00000000000E+00  0.12671529625E+04  0.12671529625E+04  0.00000000000E+00 0.  1.
          1   -1    0    0  501    0  0.00000000000E+00 -0.00000000000E+00 -0.43528307908E+03  0.43528307908E+03  0.00000000000E+00 0. -1.
         23    2    1    2    0    0  0.38092267317E+03 -0.42112648926E+02  0.56835145554E+03  0.69162637707E+03  0.91913602426E+02 0.  0.
        254    2    1    2    0    0 -0.38092267317E+03  0.42112648926E+02  0.26351842785E+03  0.10108096645E+04  0.89745120082E+03 0.  0.
        -24    2    4    4    0    0 -0.32780124047E+03 -0.40654799319E+02 -0.28728403943E+03  0.44541703287E+03  0.82205522310E+02 0.  0.
         24    2    4    4    0    0 -0.53121432701E+02  0.82767448245E+02  0.55080246728E+03  0.56539263161E+03  0.81321170826E+02 0.  0.
         11    1    3    3    0    0  0.36338397405E+03 -0.37427773703E+02  0.48992455451E+03  0.61112586262E+03  0.00000000000E+00 0.  1.
        -11    1    3    3    0    0  0.17538699113E+02 -0.46848752226E+01  0.78426901028E+02  0.80500514454E+02  0.00000000000E+00 0. -1.
          2    1    6    6  502    0 -0.49611641305E+02  0.90164481936E+02  0.36016599856E+03  0.37458042564E+03  0.00000000000E+00 0. -1.
          3    1    5    5  503    0 -0.32038231920E+02 -0.30028640025E+02 -0.45743939046E+02  0.63408796596E+02  0.00000000000E+00 0. -1.
         -4    1    5    5    0  503 -0.29576300855E+03 -0.10626159294E+02 -0.24154010038E+03  0.38200823627E+03  0.00000000000E+00 0.  1.
         -1    1    6    6    0  502 -0.35097913967E+01 -0.73970336910E+01  0.19063646872E+03  0.19081220598E+03  0.00000000000E+00 0.  1.
<mgrwt>
<rscale>  0 0.14853555E+04</rscale>
<asrwt>0</asrwt>
<pdfrwt beam="1">  1        1 0.66966628E-01 0.14853555E+04</pdfrwt>
<pdfrwt beam="2">  1       -1 0.19494661E+00 0.14853555E+04</pdfrwt>
<totfact> 0.84622071E+00</totfact>
</mgrwt>
</event>
<event>
12    1  0.1496989E-007  0.2389815E+04  0.7818608E-02  0.8443326E-01
          2   -1    0    0  501    0  0.00000000000E+00  0.00000000000E+00  0.23886860270E+04  0.23886860270E+04  0.00000000000E+00 0. -1.
         -2   -1    0    0    0  501 -0.00000000000E+00 -0.00000000000E+00 -0.59773634513E+03  0.59773634513E+03  0.00000000000E+00 0.  1.
         23    2    1    2    0    0 -0.97711088139E+02 -0.50126157312E+03 -0.34345927996E+03  0.62208061148E+03  0.90605677278E+02 0.  0.
        254    2    1    2    0    0  0.97711088139E+02  0.50126157312E+03  0.21344089618E+04  0.23643417607E+04  0.87954517984E+03 0.  0.
        -24    2    4    4    0    0  0.32912812708E+03  0.54314950641E+03  0.19575263441E+04  0.20595527427E+04  0.80693258069E+02 0.  0.
         24    2    4    4    0    0 -0.23141703894E+03 -0.41887933295E+02  0.17688261774E+03  0.30478901793E+03  0.79375311803E+02 0.  0.
         11    1    3    3    0    0 -0.54443289124E+02 -0.23334453683E+03 -0.21456195144E+03  0.32163733553E+03  0.00000000000E+00 0. -1.
        -11    1    3    3    0    0 -0.43267799016E+02 -0.26791703628E+03 -0.12889732852E+03  0.30044327595E+03  0.00000000000E+00 0.  1.
          2    1    6    6  502    0 -0.15545129265E+03  0.84988388623E+01  0.12675021183E+03  0.20075594848E+03  0.00000000000E+00 0. -1.
          3    1    5    5  503    0  0.27747829533E+03  0.39453843666E+03  0.15110101475E+04  0.15861293920E+04  0.00000000000E+00 0. -1.
         -4    1    5    5    0  503  0.51649831747E+02  0.14861106975E+03  0.44651619657E+03  0.47342335068E+03  0.00000000000E+00 0.  1.
         -1    1    6    6    0  502 -0.75965746289E+02 -0.50386772158E+02  0.50132405909E+02  0.10403306945E+03  0.00000000000E+00 0.  1.
<mgrwt>
<rscale>  0 0.23898154E+04</rscale>
<asrwt>0</asrwt>
<pdfrwt beam="1">  1        2 0.36749015E+00 0.23898154E+04</pdfrwt>
<pdfrwt beam="2">  1       -2 0.91959439E-01 0.23898154E+04</pdfrwt>
<totfact> 0.36507961E+00</totfact>
</mgrwt>
</event>
<event>
12    1  0.1496989E-007  0.2723507E+04  0.7818608E-02  0.8327418E-01
          1   -1    0    0  501    0  0.00000000000E+00  0.00000000000E+00  0.36834969991E+04  0.36834969991E+04  0.00000000000E+00 0. -1.
         -1   -1    0    0    0  501 -0.00000000000E+00 -0.00000000000E+00 -0.50342724264E+03  0.50342724264E+03  0.00000000000E+00 0.  1.
         23    2    1    2    0    0 -0.75778563200E+03 -0.94394702507E+03  0.14957357513E+04  0.19264757379E+04  0.93852441926E+02 0.  0.
        254    2    1    2    0    0  0.75778563200E+03  0.94394702507E+03  0.16843340052E+04  0.22604485038E+04  0.89853845065E+03 0.  0.
        -24    2    4    4    0    0  0.64633057765E+03  0.18698995789E+03  0.11099086266E+04  0.13003320071E+04  0.79105685721E+02 0.  0.
         24    2    4    4    0    0  0.11145505435E+03  0.75695706718E+03  0.57442537858E+03  0.96011649668E+03  0.80330199371E+02 0.  0.
         11    1    3    3    0    0 -0.10305785186E+02 -0.37866372411E+02  0.55788440790E+02  0.68208661426E+02  0.00000000000E+00 0.  1.
        -11    1    3    3    0    0 -0.74747984681E+03 -0.90608065266E+03  0.14399473105E+04  0.18582670765E+04  0.00000000000E+00 0. -1.
          2    1    6    6  502    0  0.10501235009E+03  0.47588487889E+03  0.34244320376E+03  0.59561846801E+03  0.00000000000E+00 0. -1.
          3    1    5    5  503    0  0.51481153265E+03  0.17258428117E+03  0.84867141714E+03  0.10075015745E+04  0.00000000000E+00 0. -1.
         -2    1    5    5    0  503  0.13151904500E+03  0.14405676725E+02  0.26123720943E+03  0.29283043269E+03  0.00000000000E+00 0.  1.
         -1    1    6    6    0  502  0.64427042676E+01  0.28107218829E+03  0.23198217482E+03  0.36449802867E+03  0.00000000000E+00 0.  1.
<mgrwt>
<rscale>  0 0.27235071E+04</rscale>
<asrwt>0</asrwt>
<pdfrwt beam="1">  1        1 0.56669183E+00 0.27235071E+04</pdfrwt>
<pdfrwt beam="2">  1       -1 0.77450347E-01 0.27235071E+04</pdfrwt>
<totfact> 0.25921060E-01</totfact>
</mgrwt>
</event>
<event>
12    1  0.1496989E-007  0.1924650E+04  0.7818608E-02  0.8642683E-01
         -2   -1    0    0    0  501 -0.00000000000E+00  0.00000000000E+00  0.77237703957E+03  0.77237703957E+03  0.00000000000E+00 0.  1.
          2   -1    0    0  501    0  0.00000000000E+00 -0.00000000000E+00 -0.11989864791E+04  0.11989864791E+04  0.00000000000E+00 0. -1.
         23    2    1    2    0    0 -0.61605178382E+03  0.24260871136E+03  0.18148484174E+03  0.69280937401E+03  0.93109042318E+02 0.  0.
        254    2    1    2    0    0  0.61605178382E+03 -0.24260871136E+03 -0.60809428123E+03  0.12785541446E+04  0.90914424525E+03 0.  0.
        -24    2    4    4    0    0  0.69491395624E+03  0.84522243136E+02 -0.61165718613E+03  0.93289067836E+03  0.78173449876E+02 0.  0.
         24    2    4    4    0    0 -0.78862172413E+02 -0.32713095449E+03  0.35629048983E+01  0.34566346626E+03  0.78972362202E+02 0.  0.
         13    1    3    3    0    0 -0.40138849704E+03  0.15144486393E+03  0.71381382088E+02  0.43490639691E+03  0.00000000000E+00 0. -1.
        -13    1    3    3    0    0 -0.21466328678E+03  0.91163847425E+02  0.11010345965E+03  0.25790297710E+03  0.00000000000E+00 0.  1.
          2    1    6    6  502    0 -0.84074539252E+02 -0.18461810623E+03  0.75296721836E+01  0.20300017060E+03  0.00000000000E+00 0. -1.
          3    1    5    5  503    0  0.66254394024E+03  0.88944221471E+02 -0.56142276760E+03  0.87296682139E+03  0.00000000000E+00 0. -1.
         -4    1    5    5    0  503  0.32370016001E+02 -0.44219783356E+01 -0.50234418530E+02  0.59923856963E+02  0.00000000000E+00 0.  1.
         -1    1    6    6    0  502  0.52123668384E+01 -0.14251284826E+03 -0.39667672852E+01  0.14266329566E+03  0.00000000000E+00 0.  1.
<mgrwt>
<rscale>  0 0.19246502E+04</rscale>
<asrwt>0</asrwt>
<pdfrwt beam="1">  1        2 0.18445946E+00 0.19246502E+04</pdfrwt>
<pdfrwt beam="2">  1       -2 0.11882724E+00 0.19246502E+04</pdfrwt>
<totfact> 0.96482947E+00</totfact>
</mgrwt>
</event>
<event>
12    1  0.1496989E-007  0.2332408E+04  0.7818608E-02  0.8465252E-01
         -1   -1    0    0    0  501 -0.00000000000E+00  0.00000000000E+00  0.11315235685E+04  0.11315235685E+04  0.00000000000E+00 0.  1.
          1   -1    0    0  501    0  0.00000000000E+00 -0.00000000000E+00 -0.12019469508E+04  0.12019469508E+04  0.00000000000E+00 0. -1.
         23    2    1    2    0    0  0.68726377635E+03 -0.64047644250E+03 -0.33550229450E+03  0.10019792361E+04  0.94122411314E+02 0.  0.
        254    2    1    2    0    0 -0.68726377635E+03  0.64047644250E+03  0.26507891220E+03  0.13314912833E+04  0.90557199387E+03 0.  0.
        -24    2    4    4    0    0  0.21498582029E+03  0.15384441207E+03  0.71043725356E+02  0.28518913223E+03  0.79991400646E+02 0.  0.
         24    2    4    4    0    0 -0.90224959664E+03  0.48663203043E+03  0.19403518684E+03  0.10463021510E+04  0.78952326629E+02 0.  0.
         13    1    3    3    0    0  0.36178999215E+02 -0.36874018388E+02  0.31427632218E+01  0.51754131980E+02  0.00000000000E+00 0.  1.
        -13    1    3    3    0    0  0.65108477713E+03 -0.60360242411E+03 -0.33864505773E+03  0.95022510413E+03  0.00000000000E+00 0. -1.
          4    1    6    6  502    0 -0.88326923209E+03  0.46377559090E+03  0.19532282707E+03  0.10165644799E+04  0.00000000000E+00 0. -1.
          1    1    5    5  503    0  0.11174945135E+03  0.48736671488E+02  0.64002280040E+02  0.13769348160E+03  0.00000000000E+00 0. -1.
         -2    1    5    5    0  503  0.10323636894E+03  0.10510774058E+03  0.70414453160E+01  0.14749565063E+03  0.00000000000E+00 0.  1.
         -3    1    6    6    0  502 -0.18980364553E+02  0.22856439536E+02 -0.12876402289E+01  0.29737671129E+02  0.00000000000E+00 0.  1.
<mgrwt>
<rscale>  0 0.23324076E+04</rscale>
<asrwt>0</asrwt>
<pdfrwt beam="1">  1        1 0.18491491E+00 0.23324076E+04</pdfrwt>
<pdfrwt beam="2">  1       -1 0.17408055E+00 0.23324076E+04</pdfrwt>
<totfact> 0.22053315E+00</totfact>
</mgrwt>
</event>
<event>
12    1  0.1496989E-007  0.1044205E+04  0.7818608E-02  0.9261348E-01
         -2   -1    0    0    0  501 -0.00000000000E+00  0.00000000000E+00  0.13611733638E+03  0.13611733638E+03  0.00000000000E+00 0.  1.
          2   -1    0    0  501    0  0.00000000000E+00 -0.00000000000E+00 -0.20026177083E+04  0.20026177083E+04  0.00000000000E+00 0. -1.
         23    2    1    2    0    0  0.22330154334E+02  0.86904863623E+02 -0.20605019900E+03  0.24247667825E+03  0.91033861127E+02 0.  0.
        254    2    1    2    0    0 -0.22330154334E+02 -0.86904863623E+02 -0.16604501729E+04  0.18962583664E+04  0.91139998047E+03 0.  0.
        -24    2    4    4    0    0 -0.35600355046E+02 -0.39521387591E+03 -0.31479233016E+03  0.51324264416E+03  0.82839650310E+02 0.  0.
         24    2    4    4    0    0  0.13270200712E+02  0.30830901229E+03 -0.13456578427E+04  0.13830157223E+04  0.81895744677E+02 0.  0.
         13    1    3    3    0    0 -0.19333246042E+02 -0.21222190794E+01 -0.81625718006E+02  0.83910881633E+02  0.00000000000E+00 0. -1.
        -13    1    3    3    0    0  0.41663400376E+02  0.89027082702E+02 -0.12442448100E+03  0.15856579662E+03  0.00000000000E+00 0.  1.
          2    1    6    6  502    0  0.10736846866E+02  0.66884371078E+01 -0.21565118156E+02  0.25001387814E+02  0.00000000000E+00 0. -1.
          1    1    5    5  503    0 -0.42282013854E+02 -0.17192923365E+03 -0.17927269834E+03  0.25196454205E+03  0.00000000000E+00 0. -1.
         -2    1    5    5    0  503  0.66816588073E+01 -0.22328464226E+03 -0.13551963182E+03  0.26127810211E+03  0.00000000000E+00 0.  1.
         -1    1    6    6    0  502  0.25333538461E+01  0.30162057518E+03 -0.13240927246E+04  0.13580143344E+04  0.00000000000E+00 0.  1.
<mgrwt>
<rscale>  0 0.10442049E+04</rscale>
<asrwt>0</asrwt>
<pdfrwt beam="1">  1        2 0.30809502E+00 0.10442049E+04</pdfrwt>
<pdfrwt beam="2">  1       -2 0.20941130E-01 0.10442049E+04</pdfrwt>
<totfact> 0.13110077E+02</totfact>
</mgrwt>
</event>
<event>
12    1  0.1496989E-007  0.1472096E+04  0.7818608E-02  0.8903224E-01
          2   -1    0    0  501    0  0.00000000000E+00  0.00000000000E+00  0.21146060637E+04  0.21146060637E+04  0.00000000000E+00 0. -1.
         -2   -1    0    0    0  501 -0.00000000000E+00 -0.00000000000E+00 -0.25620217158E+03  0.25620217158E+03  0.00000000000E+00 0.  1.
         23    2    1    2    0    0 -0.40358910731E+03  0.12763809500E+02  0.22240881321E+03  0.46973147375E+03  0.90193652026E+02 0.  0.
        254    2    1    2    0    0  0.40358910731E+03 -0.12763809500E+02  0.16359950789E+04  0.19010767615E+04  0.88009424077E+03 0.  0.
        -24    2    4    4    0    0  0.17642566922E+03  0.36760973844E+03  0.12156185661E+04  0.12850707570E+04  0.86112807043E+02 0.  0.
         24    2    4    4    0    0  0.22716343808E+03 -0.38037354794E+03  0.42037651280E+03  0.61600600458E+03  0.80372393234E+02 0.  0.
         11    1    3    3    0    0 -0.32102090713E+03 -0.26712326250E+02  0.16907782668E+03  0.36380665561E+03  0.00000000000E+00 0.  1.
        -11    1    3    3    0    0 -0.82568200179E+02  0.39476135750E+02  0.53330986525E+02  0.10592481814E+03  0.00000000000E+00 0. -1.
          2    1    6    6  502    0  0.53090827191E+02 -0.37484492596E+02  0.48829676152E+02  0.81289977181E+02  0.00000000000E+00 0. -1.
          3    1    5    5  503    0  0.41845983090E+01  0.61894612755E+02  0.12785361937E+03  0.14210911982E+03  0.00000000000E+00 0. -1.
         -4    1    5    5    0  503  0.17224107092E+03  0.30571512568E+03  0.10877649468E+04  0.11429616371E+04  0.00000000000E+00 0.  1.
         -1    1    6    6    0  502  0.17407261089E+03 -0.34288905534E+03  0.37154683665E+03  0.53471602740E+03  0.00000000000E+00 0.  1.
<mgrwt>
<rscale>  0 0.14720960E+04</rscale>
<asrwt>0</asrwt>
<pdfrwt beam="1">  1        2 0.32532400E+00 0.14720960E+04</pdfrwt>
<pdfrwt beam="2">  1       -2 0.39415720E-01 0.14720960E+04</pdfrwt>
<totfact> 0.34012829E+01</totfact>
</mgrwt>
</event>
<event>
12    1  0.1496989E-007  0.1379956E+04  0.7818608E-02  0.8968456E-01
         -1   -1    0    0    0  501 -0.00000000000E+00  0.00000000000E+00  0.46304585289E+03  0.46304585289E+03  0.00000000000E+00 0.  1.
          1   -1    0    0  501    0  0.00000000000E+00 -0.00000000000E+00 -0.10281268520E+04  0.10281268520E+04  0.00000000000E+00 0. -1.
         23    2    1    2    0    0  0.91757858892E+01  0.20657259251E+02 -0.58729413013E+03  0.59474382784E+03  0.91076385861E+02 0.  0.
        254    2    1    2    0    0 -0.91757858892E+01 -0.20657259251E+02  0.22213130971E+02  0.89642887710E+03  0.89586851217E+03 0.  0.
        -24    2    4    4    0    0 -0.15142056121E+03 -0.30393754148E+03 -0.28319275867E+03  0.44918398913E+03  0.79132180861E+02 0.  0.
         24    2    4    4    0    0  0.14224477533E+03  0.28328028223E+03  0.30540588964E+03  0.44724488797E+03  0.79208193888E+02 0.  0.
         13    1    3    3    0    0 -0.39258906547E+01  0.32526595953E+02 -0.71522497942E+02  0.78669306426E+02  0.00000000000E+00 0.  1.
        -13    1    3    3    0    0  0.13101676544E+02 -0.11869336702E+02 -0.51577163219E+03  0.51607452141E+03  0.00000000000E+00 0. -1.
          4    1    6    6  502    0  0.63257099570E+02  0.15963450113E+03  0.11414412633E+03  0.20618806021E+03  0.00000000000E+00 0. -1.
          1    1    5    5  503    0 -0.15451141988E+03 -0.30012160588E+03 -0.28691638542E+03  0.44302118393E+03  0.00000000000E+00 0. -1.
         -2    1    5    5    0  503  0.30908586606E+01 -0.38159355977E+01  0.37236267498E+01  0.61628051987E+01  0.00000000000E+00 0.  1.
         -3    1    6    6    0  502  0.78987675755E+02  0.12364578110E+03  0.19126176331E+03  0.24105682776E+03  0.00000000000E+00 0.  1.
<mgrwt>
<rscale>  0 0.13799563E+04</rscale>
<asrwt>0</asrwt>
<pdfrwt beam="1">  1        1 0.15817336E+00 0.13799563E+04</pdfrwt>
<pdfrwt beam="2">  1       -1 0.71237825E-01 0.13799563E+04</pdfrwt>
<totfact> 0.27964026E+01</totfact>
</mgrwt>
</event>
<event>
12    1  0.1496989E-007  0.2484683E+04  0.7818608E-02  0.8408463E-01
          2   -1    0    0  501    0  0.00000000000E+00  0.00000000000E+00  0.19169122046E+04  0.19169122046E+04  0.00000000000E+00 0. -1.
         -2   -1    0    0    0  501 -0.00000000000E+00 -0.00000000000E+00 -0.80515527748E+03  0.80515527748E+03  0.00000000000E+00 0.  1.
         23    2    1    2    0    0 -0.85700577489E+02 -0.61164879772E+02 -0.68727989977E+03  0.70150177829E+03  0.93087876850E+02 0.  0.
        254    2    1    2    0    0  0.85700577489E+02  0.61164879772E+02  0.17990368269E+04  0.20205657038E+04  0.91381974551E+03 0.  0.
        -24    2    4    4    0    0 -0.22009935088E+03  0.34081218876E+03  0.46904966113E+03  0.62521393419E+03  0.79298213294E+02 0.  0.
         24    2    4    4    0    0  0.30579992837E+03 -0.27964730899E+03  0.13299871658E+04  0.13953517696E+04  0.80152892594E+02 0.  0.
         13    1    3    3    0    0 -0.45475667125E+02 -0.83093401220E+02 -0.46186310224E+03  0.47147648386E+03  0.00000000000E+00 0.  1.
        -13    1    3    3    0    0 -0.40224910364E+02  0.21928521447E+02 -0.22541679753E+03  0.23002529443E+03  0.00000000000E+00 0. -1.
          2    1    6    6  502    0  0.94557742796E+02 -0.12804587069E+03  0.42820365879E+03  0.45683179084E+03  0.00000000000E+00 0. -1.
          3    1    5    5  503    0 -0.14528957838E+03  0.27370372272E+03  0.38490282848E+03  0.49413862103E+03  0.00000000000E+00 0. -1.
         -4    1    5    5    0  503 -0.74809772499E+02  0.67108466043E+02  0.84146832645E+02  0.13107531316E+03  0.00000000000E+00 0.  1.
         -1    1    6    6    0  502  0.21124218558E+03 -0.15160143830E+03  0.90178350701E+03  0.93851997878E+03  0.00000000000E+00 0.  1.
<mgrwt>
<rscale>  0 0.24846827E+04</rscale>
<asrwt>0</asrwt>
<pdfrwt beam="1">  1        2 0.29490957E+00 0.24846827E+04</pdfrwt>
<pdfrwt beam="2">  1       -2 0.12387004E+00 0.24846827E+04</pdfrwt>
<totfact> 0.32552881E+00</totfact>
</mgrwt>
</event>
<event>
12    1  0.1496989E-007  0.1210248E+04  0.7818608E-02  0.9103934E-01
         -1   -1    0    0    0  501 -0.00000000000E+00  0.00000000000E+00  0.23565157506E+03  0.23565157506E+03  0.00000000000E+00 0.  1.
          1   -1    0    0  501    0  0.00000000000E+00 -0.00000000000E+00 -0.15538827706E+04  0.15538827706E+04  0.00000000000E+00 0. -1.
         23    2    1    2    0    0  0.66833949424E+02 -0.12650538569E+03 -0.63673235756E+03  0.65900176677E+03  0.91568793975E+02 0.  0.
        254    2    1    2    0    0 -0.66833949424E+02  0.12650538569E+03 -0.68149883801E+03  0.11305325789E+04  0.89061375264E+03 0.  0.
        -24    2    4    4    0    0  0.29619316417E+03 -0.69845344406E+02 -0.63410829006E+03  0.70791125884E+03  0.80226331308E+02 0.  0.
         24    2    4    4    0    0 -0.36302711359E+03  0.19635073010E+03 -0.47390547955E+02  0.42262132009E+03  0.77592665564E+02 0.  0.
         13    1    3    3    0    0  0.64666451379E+02 -0.13948827699E+03 -0.61162286862E+03  0.63065145903E+03  0.00000000000E+00 0. -1.
        -13    1    3    3    0    0  0.21674980451E+01  0.12982891294E+02 -0.25109488939E+02  0.28350307739E+02  0.00000000000E+00 0.  1.
          4    1    6    6  502    0 -0.15953592602E+03  0.12968150096E+03 -0.16262209468E+02  0.20623642462E+03  0.00000000000E+00 0. -1.
          1    1    5    5  503    0  0.69703798580E+02 -0.53032786642E+02 -0.17320963729E+03  0.19409449875E+03  0.00000000000E+00 0. -1.
         -2    1    5    5    0  503  0.22648936559E+03 -0.16812557764E+02 -0.46089865276E+03  0.51381676008E+03  0.00000000000E+00 0.  1.
         -3    1    6    6    0  502 -0.20349118757E+03  0.66669229137E+02 -0.31128338487E+02  0.21638489547E+03  0.00000000000E+00 0.  1.
<mgrwt>
<rscale>  0 0.12102478E+04</rscale>
<asrwt>0</asrwt>
<pdfrwt beam="1">  1        1 0.23905889E+00 0.12102478E+04</pdfrwt>
<pdfrwt beam="2">  1       -1 0.36254088E-01 0.12102478E+04</pdfrwt>
<totfact> 0.43239754E+01</totfact>
</mgrwt>
</event>
<event>
12    1  0.2070675E-007  0.1681541E+04  0.7818608E-02  0.8771963E-01
         -1   -1    0    0    0  501 -0.00000000000E+00  0.00000000000E+00  0.45908453047E+03  0.45908453047E+03  0.00000000000E+00 0.  1.
          1   -1    0    0  501    0  0.00000000000E+00 -0.00000000000E+00 -0.15397933808E+04  0.15397933808E+04  0.00000000000E+00 0. -1.
         23    2    1    2    0    0 -0.53504170199E+03  0.25412126366E+03 -0.29142051399E+03  0.66644027947E+03  0.91484920162E+02 0.  0.
        254    2    1    2    0    0  0.53504170199E+03 -0.25412126366E+03 -0.78928833638E+03  0.13324376318E+04  0.89530258867E+03 0.  0.
        -24    2    4    4    0    0  0.70459518127E+03 -0.25123316072E+03 -0.30352710836E+03  0.81128271627E+03  0.80488941472E+02 0.  0.
         24    2    4    4    0    0 -0.16955347928E+03 -0.28881029359E+01 -0.48576122803E+03  0.52115491556E+03  0.82956325181E+02 0.  0.
         11    1    3    3    0    0 -0.24798216856E+03  0.10856088048E+03 -0.18323941771E+03  0.32689035608E+03  0.00000000000E+00 0. -1.
        -11    1    3    3    0    0 -0.28705953343E+03  0.14556038317E+03 -0.10818109628E+03  0.33954992339E+03  0.00000000000E+00 0.  1.
          4    1    6    6  502    0 -0.52503350602E+01 -0.25555994800E+01  0.22265612132E+01  0.62493745113E+01  0.00000000000E+00 0. -1.
          3    1    5    5  503    0  0.64898699327E+02 -0.61120812846E+01 -0.44350448402E+02  0.78842634313E+02  0.00000000000E+00 0. -1.
         -4    1    5    5    0  503  0.63969648194E+03 -0.24512107944E+03 -0.25917665995E+03  0.73244008196E+03  0.00000000000E+00 0.  1.
         -3    1    6    6    0  502 -0.16430314422E+03 -0.33250345591E+00 -0.48798778924E+03  0.51490554105E+03  0.00000000000E+00 0.  1.
<mgrwt>
<rscale>  0 0.16815413E+04</rscale>
<asrwt>0</asrwt>
<pdfrwt beam="1">  1        1 0.23689129E+00 0.16815413E+04</pdfrwt>
<pdfrwt beam="2">  1       -1 0.70628390E-01 0.16815413E+04</pdfrwt>
<totfact> 0.11852128E+01</totfact>
</mgrwt>
</event>
<event>
12    1  0.1564199E-007  0.3290548E+04  0.7818608E-02  0.8165305E-01
         -1   -1    0    0    0  501 -0.00000000000E+00  0.00000000000E+00  0.14217153534E+04  0.14217153534E+04  0.00000000000E+00 0.  1.
          1   -1    0    0  501    0  0.00000000000E+00 -0.00000000000E+00 -0.19039860803E+04  0.19039860803E+04  0.00000000000E+00 0. -1.
         23    2    1    2    0    0 -0.12696244102E+04  0.23014754980E+03 -0.10341446377E+04  0.16562116679E+04  0.93101662969E+02 0.  0.
        254    2    1    2    0    0  0.12696244102E+04 -0.23014754980E+03  0.55187391069E+03  0.16694897658E+04  0.90427718498E+03 0.  0.
        -24    2    4    4    0    0  0.11723435825E+04  0.14095242557E+03  0.42716844858E+03  0.12582272279E+04  0.80036316075E+02 0.  0.
         24    2    4    4    0    0  0.97280827687E+02 -0.37109997537E+03  0.12470546211E+03  0.41126253792E+03  0.80041686994E+02 0.  0.
         11    1    3    3    0    0 -0.11520949976E+04  0.19249213648E+03 -0.96231962811E+03  0.15134183734E+04  0.00000000000E+00 0. -1.
        -11    1    3    3    0    0 -0.11752941254E+03  0.37655413316E+02 -0.71825009549E+02  0.14279329452E+03  0.00000000000E+00 0.  1.
          2    1    6    6  502    0  0.14982541971E+02 -0.16632911320E+02  0.25815110245E+02  0.34169434000E+02  0.00000000000E+00 0. -1.
          1    1    5    5  503    0  0.12205903200E+03  0.32324196622E+02  0.27469140629E+02  0.12922002425E+03  0.00000000000E+00 0. -1.
         -2    1    5    5    0  503  0.10502845505E+04  0.10862822895E+03  0.39969930795E+03  0.11290072036E+04  0.00000000000E+00 0.  1.
         -1    1    6    6    0  502  0.82298285716E+02 -0.35446706405E+03  0.98890351867E+02  0.37709310392E+03  0.00000000000E+00 0.  1.
<mgrwt>
<rscale>  0 0.32905478E+04</rscale>
<asrwt>0</asrwt>
<pdfrwt beam="1">  1        1 0.29292093E+00 0.32905478E+04</pdfrwt>
<pdfrwt beam="2">  1       -1 0.21872544E+00 0.32905478E+04</pdfrwt>
<totfact> 0.32268885E-01</totfact>
</mgrwt>
</event>
<event>
12    1  0.1496989E-007  0.1842734E+04  0.7818608E-02  0.8683898E-01
          1   -1    0    0  501    0  0.00000000000E+00  0.00000000000E+00  0.21647570204E+04  0.21647570204E+04  0.00000000000E+00 0. -1.
         -1   -1    0    0    0  501 -0.00000000000E+00 -0.00000000000E+00 -0.39215352545E+03  0.39215352545E+03  0.00000000000E+00 0.  1.
         23    2    1    2    0    0  0.11025605964E+02  0.36511499040E+03 -0.14967531150E+03  0.40277091965E+03  0.79944947547E+02 0.  0.
        254    2    1    2    0    0 -0.11025605964E+02 -0.36511499040E+03  0.19222788064E+04  0.21541396262E+04  0.90096126402E+03 0.  0.
        -24    2    4    4    0    0  0.37632759365E+03  0.40132347077E+02  0.98900623696E+03  0.10625538190E+04  0.87488390660E+02 0.  0.
         24    2    4    4    0    0 -0.38735319962E+03 -0.40524733748E+03  0.93327256947E+03  0.10915858072E+04  0.79334606220E+02 0.  0.
         13    1    3    3    0    0 -0.27770737234E+02  0.74032106606E+02 -0.18819979562E+02  0.81278276838E+02  0.00000000000E+00 0. -1.
        -13    1    3    3    0    0  0.38796343198E+02  0.29108288380E+03 -0.13085533193E+03  0.32149264281E+03  0.00000000000E+00 0.  1.
          2    1    6    6  502    0 -0.72152042430E+02 -0.11656300838E+03  0.19207140809E+03  0.23597516385E+03  0.00000000000E+00 0. -1.
          1    1    5    5  503    0  0.78735445960E+02  0.24353233590E+02  0.13638760372E+03  0.15935472659E+03  0.00000000000E+00 0. -1.
         -2    1    5    5    0  503  0.29759214769E+03  0.15779113487E+02  0.85261863324E+03  0.90319909241E+03  0.00000000000E+00 0.  1.
         -1    1    6    6    0  502 -0.31520115719E+03 -0.28868432910E+03  0.74120116138E+03  0.85561064334E+03  0.00000000000E+00 0.  1.
<mgrwt>
<rscale>  0 0.18427339E+04</rscale>
<asrwt>0</asrwt>
<pdfrwt beam="1">  1        1 0.33303954E+00 0.18427339E+04</pdfrwt>
<pdfrwt beam="2">  1       -1 0.60331313E-01 0.18427339E+04</pdfrwt>
<totfact> 0.60322449E+00</totfact>
</mgrwt>
</event>
<event>
12    1  0.1496989E-007  0.1050508E+04  0.7818608E-02  0.9254820E-01
         -2   -1    0    0    0  501 -0.00000000000E+00  0.00000000000E+00  0.20787889370E+03  0.20787889370E+03  0.00000000000E+00 0. -1.
          2   -1    0    0  501    0  0.00000000000E+00 -0.00000000000E+00 -0.13271758511E+04  0.13271758511E+04  0.00000000000E+00 0.  1.
         23    2    1    2    0    0 -0.10190807578E+03 -0.25742836188E+02 -0.19349176202E+03  0.23952590958E+03  0.94263725084E+02 0.  0.
        254    2    1    2    0    0  0.10190807578E+03  0.25742836188E+02 -0.92580519538E+03  0.12955288352E+04  0.90012874276E+03 0.  0.
        -24    2    4    4    0    0  0.43634672330E+03 -0.18121610502E+03 -0.34752175024E+03  0.59188302744E+03  0.79475855592E+02 0.  0.
         24    2    4    4    0    0 -0.33443864752E+03  0.20695894121E+03 -0.57828344514E+03  0.70364580778E+03  0.77617443755E+02 0.  0.
         13    1    3    3    0    0 -0.50968929361E+02 -0.49416706069E+02 -0.54144522848E+02  0.89283100043E+02  0.00000000000E+00 0. -1.
        -13    1    3    3    0    0 -0.50939146422E+02  0.23673869881E+02 -0.13934723917E+03  0.15024280953E+03  0.00000000000E+00 0.  1.
          4    1    6    6  502    0 -0.20500192721E+03  0.14267938522E+03 -0.30247493555E+03  0.39226812738E+03  0.00000000000E+00 0. -1.
          1    1    5    5  503    0  0.29506203163E+02 -0.33775959389E+02 -0.19638705286E+02  0.48960292105E+02  0.00000000000E+00 0. -1.
         -2    1    5    5    0  503  0.40684052014E+03 -0.14744014563E+03 -0.32788304495E+03  0.54292273533E+03  0.00000000000E+00 0.  1.
         -3    1    6    6    0  502 -0.12943672031E+03  0.64279555994E+02 -0.27580850960E+03  0.31137768040E+03  0.00000000000E+00 0.  1.
<mgrwt>
<rscale>  0 0.10505082E+04</rscale>
<asrwt>0</asrwt>
<pdfrwt beam="1">  1        2 0.20418090E+00 0.10505082E+04</pdfrwt>
<pdfrwt beam="2">  1       -2 0.31981369E-01 0.10505082E+04</pdfrwt>
<totfact> 0.14416440E+02</totfact>
</mgrwt>
</event>
<event>
12    1  0.1496989E-007  0.2614832E+04  0.7818608E-02  0.8363180E-01
         -2   -1    0    0    0  501 -0.00000000000E+00  0.00000000000E+00  0.47488281659E+03  0.47488281659E+03  0.00000000000E+00 0.  1.
          2   -1    0    0  501    0  0.00000000000E+00 -0.00000000000E+00 -0.35994926382E+04  0.35994926382E+04  0.00000000000E+00 0. -1.
         23    2    1    2    0    0 -0.87295128031E+02 -0.41092763713E+03  0.30172103791E+03  0.52475237876E+03  0.88586183798E+02 0.  0.
        254    2    1    2    0    0  0.87295128031E+02  0.41092763713E+03 -0.34263308595E+04  0.35496230760E+04  0.82680037531E+03 0.  0.
        -24    2    4    4    0    0 -0.29794605844E+03  0.42662871474E+03 -0.21687546548E+04  0.22317752982E+04  0.80872212500E+02 0.  0.
         24    2    4    4    0    0  0.38524118647E+03 -0.15701077608E+02 -0.12575762047E+04  0.13178477778E+04  0.81040479780E+02 0.  0.
         11    1    3    3    0    0  0.18291315393E+02 -0.48227270009E+02  0.36282798970E+02  0.63062534776E+02  0.00000000000E+00 0. -1.
        -11    1    3    3    0    0 -0.10558644342E+03 -0.36270036713E+03  0.26543823894E+03  0.46168984399E+03  0.00000000000E+00 0.  1.
          4    1    6    6  502    0  0.20051225248E+03  0.31531479603E+02 -0.62114149809E+03  0.65346473375E+03  0.00000000000E+00 0. -1.
          3    1    5    5  503    0 -0.16271588098E+03  0.17790990302E+03 -0.11046347207E+04  0.11306397559E+04  0.00000000000E+00 0. -1.
         -4    1    5    5    0  503 -0.13523017747E+03  0.24871881173E+03 -0.10641199342E+04  0.11011355423E+04  0.00000000000E+00 0.  1.
         -3    1    6    6    0  502  0.18472893399E+03 -0.47232557212E+02 -0.63643470656E+03  0.66438304406E+03  0.00000000000E+00 0.  1.
<mgrwt>
<rscale>  0 0.26148325E+04</rscale>
<asrwt>0</asrwt>
<pdfrwt beam="1">  1        2 0.55376809E+00 0.26148325E+04</pdfrwt>
<pdfrwt beam="2">  1       -2 0.73058895E-01 0.26148325E+04</pdfrwt>
<totfact> 0.10339515E+00</totfact>
</mgrwt>
</event>
<event>
12    1  0.1496989E-007  0.2262001E+04  0.7818608E-02  0.8493056E-01
          2   -1    0    0  501    0  0.00000000000E+00  0.00000000000E+00  0.76412725551E+03  0.76412725551E+03  0.00000000000E+00 0.  1.
         -2   -1    0    0    0  501 -0.00000000000E+00 -0.00000000000E+00 -0.16740168205E+04  0.16740168205E+04  0.00000000000E+00 0. -1.
         23    2    1    2    0    0  0.91972479923E+03 -0.23258128814E+03 -0.40286007064E+03  0.10347974231E+04  0.92313100466E+02 0.  0.
        254    2    1    2    0    0 -0.91972479923E+03  0.23258128814E+03 -0.50702949435E+03  0.14033466529E+04  0.90128528117E+03 0.  0.
        -24    2    4    4    0    0 -0.99795487810E+03 -0.19744470853E+02 -0.26401312255E+03  0.10354876035E+04  0.78916825019E+02 0.  0.
         24    2    4    4    0    0  0.78230078868E+02  0.25232575900E+03 -0.24301637180E+03  0.36785904937E+03  0.80467939875E+02 0.  0.
         11    1    3    3    0    0  0.54989358363E+03 -0.11509274488E+03 -0.28034570894E+03  0.62787180998E+03  0.00000000000E+00 0. -1.
        -11    1    3    3    0    0  0.36983121560E+03 -0.11748854326E+03 -0.12251436170E+03  0.40692561317E+03  0.00000000000E+00 0.  1.
          2    1    6    6  502    0  0.54908823568E+02  0.19259547176E+03 -0.22507385380E+03  0.30127435057E+03  0.00000000000E+00 0. -1.
          1    1    5    5  503    0 -0.46284028710E+03  0.95082769028E+01 -0.15823992479E+03  0.48923553887E+03  0.00000000000E+00 0. -1.
         -2    1    5    5    0  503 -0.53511459100E+03 -0.29252747756E+02 -0.10577319776E+03  0.54625206463E+03  0.00000000000E+00 0.  1.
         -1    1    6    6    0  502  0.23321255300E+02  0.59730287233E+02 -0.17942518002E+02  0.66584698797E+02  0.00000000000E+00 0.  1.
<mgrwt>
<rscale>  0 0.22620008E+04</rscale>
<asrwt>0</asrwt>
<pdfrwt beam="1">  1        2 0.11755804E+00 0.22620008E+04</pdfrwt>
<pdfrwt beam="2">  1       -2 0.25754105E+00 0.22620008E+04</pdfrwt>
<totfact> 0.19222682E+00</totfact>
</mgrwt>
</event>
<event>
12    1  0.1496989E-007  0.2365172E+04  0.7818608E-02  0.8452659E-01
          2   -1    0    0  501    0  0.00000000000E+00  0.00000000000E+00  0.19121946424E+04  0.19121946424E+04  0.00000000000E+00 0.  1.
         -2   -1    0    0    0  501 -0.00000000000E+00 -0.00000000000E+00 -0.73136340713E+03  0.73136340713E+03  0.00000000000E+00 0. -1.
         23    2    1    2    0    0 -0.10377872266E+03 -0.34452456462E+03  0.15474328945E+04  0.15913718624E+04  0.91916498232E+02 0.  0.
        254    2    1    2    0    0  0.10377872266E+03  0.34452456462E+03 -0.36660165922E+03  0.10521861871E+04  0.91827653618E+03 0.  0.
        -24    2    4    4    0    0 -0.74389800330E+02 -0.19402937318E+03 -0.42166503488E+03  0.47687663356E+03  0.80179061785E+02 0.  0.
         24    2    4    4    0    0  0.17816852299E+03  0.53855393780E+03  0.55063375657E+02  0.57530955354E+03  0.78515861811E+02 0.  0.
         11    1    3    3    0    0  0.11128132142E+02 -0.55111185702E+02  0.32950154890E+03  0.33426389102E+03  0.00000000000E+00 0. -1.
        -11    1    3    3    0    0 -0.11490685480E+03 -0.28941337891E+03  0.12179313456E+04  0.12571079714E+04  0.00000000000E+00 0.  1.
          2    1    6    6  502    0  0.14376120708E+03  0.39672236188E+03  0.73107303899E+02  0.42825295675E+03  0.00000000000E+00 0. -1.
          3    1    5    5  503    0 -0.29027336807E+02 -0.12602956668E+03 -0.32790234725E+03  0.35248544267E+03  0.00000000000E+00 0. -1.
         -4    1    5    5    0  503 -0.45362463524E+02 -0.67999806501E+02 -0.93762687624E+02  0.12439119089E+03  0.00000000000E+00 0.  1.
         -1    1    6    6    0  502  0.34407315913E+02  0.14183157591E+03 -0.18043928242E+02  0.14705659680E+03  0.00000000000E+00 0.  1.
<mgrwt>
<rscale>  0 0.23651716E+04</rscale>
<asrwt>0</asrwt>
<pdfrwt beam="1">  1        2 0.29418379E+00 0.23651716E+04</pdfrwt>
<pdfrwt beam="2">  1       -2 0.11251745E+00 0.23651716E+04</pdfrwt>
<totfact> 0.41926645E+00</totfact>
</mgrwt>
</event>
<event>
12    1  0.1496989E-007  0.1539302E+04  0.7818608E-02  0.8858730E-01
         -2   -1    0    0    0  501 -0.00000000000E+00  0.00000000000E+00  0.27856819970E+03  0.27856819970E+03  0.00000000000E+00 0.  1.
          2   -1    0    0  501    0  0.00000000000E+00 -0.00000000000E+00 -0.21264558199E+04  0.21264558199E+04  0.00000000000E+00 0. -1.
         23    2    1    2    0    0 -0.74583941108E+02 -0.31006557915E+03  0.46848555518E+02  0.33573725858E+03  0.93921733356E+02 0.  0.
        254    2    1    2    0    0  0.74583941108E+02  0.31006557915E+03 -0.18947361757E+04  0.20692867610E+04  0.76825718100E+03 0.  0.
        -24    2    4    4    0    0 -0.12283213330E+03  0.39282632756E+03 -0.48540746758E+03  0.64147317343E+03  0.80418692215E+02 0.  0.
         24    2    4    4    0    0  0.19741607441E+03 -0.82760748404E+02 -0.14093287081E+04  0.14278135876E+04  0.81374353686E+02 0.  0.
         11    1    3    3    0    0 -0.46225561924E+02 -0.43770570235E+02  0.19307794527E+02  0.66524103326E+02  0.00000000000E+00 0. -1.
        -11    1    3    3    0    0 -0.28358379184E+02 -0.26629500892E+03  0.27540760991E+02  0.26921315525E+03  0.00000000000E+00 0.  1.
          2    1    6    6  502    0  0.17024203120E+03 -0.88819610183E+02 -0.10504096560E+04  0.10678163314E+04  0.00000000000E+00 0. -1.
          3    1    5    5  503    0 -0.44266247515E+02  0.13348351093E+03 -0.22700095550E+03  0.26703329785E+03  0.00000000000E+00 0. -1.
         -4    1    5    5    0  503 -0.78565885784E+02  0.25934281663E+03 -0.25840651208E+03  0.37443987559E+03  0.00000000000E+00 0.  1.
         -1    1    6    6    0  502  0.27174043203E+02  0.60588617792E+01 -0.35891905217E+03  0.35999725616E+03  0.00000000000E+00 0.  1.
<mgrwt>
<rscale>  0 0.15393024E+04</rscale>
<asrwt>0</asrwt>
<pdfrwt beam="1">  1        2 0.32714707E+00 0.15393024E+04</pdfrwt>
<pdfrwt beam="2">  1       -2 0.42856644E-01 0.15393024E+04</pdfrwt>
<totfact> 0.28258056E+01</totfact>
</mgrwt>
</event>
<event>
12    1  0.1496989E-007  0.1571803E+04  0.7818608E-02  0.8838061E-01
          2   -1    0    0  501    0  0.00000000000E+00  0.00000000000E+00  0.24061147408E+04  0.24061147408E+04  0.00000000000E+00 0. -1.
         -2   -1    0    0    0  501 -0.00000000000E+00 -0.00000000000E+00 -0.25669631593E+03  0.25669631593E+03  0.00000000000E+00 0.  1.
         23    2    1    2    0    0  0.58790345550E+02 -0.39648739580E+03  0.12735035824E+04  0.13379917204E+04  0.88044930665E+02 0.  0.
        254    2    1    2    0    0 -0.58790345550E+02  0.39648739580E+03  0.87591484251E+03  0.13248193363E+04  0.90953884075E+03 0.  0.
        -24    2    4    4    0    0  0.56883865952E+02  0.28641516883E+01  0.89999891882E+03  0.90570480042E+03  0.84018772039E+02 0.  0.
         24    2    4    4    0    0 -0.11567421150E+03  0.39362324411E+03 -0.24084076308E+02  0.41911453592E+03  0.82202007110E+02 0.  0.
         13    1    3    3    0    0  0.21521322043E+02 -0.34985017263E+03  0.11012871394E+04  0.11557212786E+04  0.00000000000E+00 0. -1.
        -13    1    3    3    0    0  0.37269023507E+02 -0.46637223169E+02  0.17221644305E+03  0.18227044180E+03  0.00000000000E+00 0.  1.
          4    1    6    6  502    0 -0.32854286201E+02  0.26966591540E+02 -0.38018527368E+01  0.42673824123E+02  0.00000000000E+00 0. -1.
          3    1    5    5  503    0  0.37388393948E+02 -0.33189071084E+02  0.28578911494E+03  0.29012897935E+03  0.00000000000E+00 0. -1.
         -4    1    5    5    0  503  0.19495472004E+02  0.36053222772E+02  0.61420980388E+03  0.61557582107E+03  0.00000000000E+00 0.  1.
         -3    1    6    6    0  502 -0.82819925301E+02  0.36665665257E+03 -0.20282223571E+02  0.37644071179E+03  0.00000000000E+00 0.  1.
<mgrwt>
<rscale>  0 0.15718025E+04</rscale>
<asrwt>0</asrwt>
<pdfrwt beam="1">  1        2 0.37017148E+00 0.15718025E+04</pdfrwt>
<pdfrwt beam="2">  1       -2 0.39491743E-01 0.15718025E+04</pdfrwt>
<totfact> 0.23022489E+01</totfact>
</mgrwt>
</event>
<event>
12    1  0.1496989E-007  0.1470191E+04  0.7818608E-02  0.8904521E-01
          2   -1    0    0  501    0  0.00000000000E+00  0.00000000000E+00  0.12495410256E+04  0.12495410256E+04  0.00000000000E+00 0. -1.
         -2   -1    0    0    0  501 -0.00000000000E+00 -0.00000000000E+00 -0.43245107276E+03  0.43245107276E+03  0.00000000000E+00 0.  1.
         23    2    1    2    0    0 -0.97320830561E+02 -0.41204822760E+03  0.79119492116E+02  0.44025979458E+03  0.91179530406E+02 0.  0.
        254    2    1    2    0    0  0.97320830561E+02  0.41204822760E+03  0.73797046074E+03  0.12417323038E+04  0.90445764270E+03 0.  0.
        -24    2    4    4    0    0 -0.38689313485E+03  0.71989577497E+02  0.30624575641E+03  0.50501392265E+03  0.79898696386E+02 0.  0.
         24    2    4    4    0    0  0.48421396541E+03  0.34005865010E+03  0.43172470432E+03  0.73671838114E+03  0.79149876703E+02 0.  0.
         13    1    3    3    0    0 -0.79362559234E+02 -0.18569811520E+03  0.67398333190E+02  0.21289608055E+03  0.00000000000E+00 0. -1.
        -13    1    3    3    0    0 -0.17958271327E+02 -0.22635011240E+03  0.11721158926E+02  0.22736371403E+03  0.00000000000E+00 0.  1.
          2    1    6    6  502    0  0.20571074459E+03  0.16676074111E+03  0.23619593349E+03  0.35484443663E+03  0.00000000000E+00 0. -1.
          1    1    5    5  503    0 -0.13062455279E+02 -0.12576972593E+02  0.16841914198E+02  0.24747889836E+02  0.00000000000E+00 0. -1.
         -2    1    5    5    0  503 -0.37383067957E+03  0.84566550090E+02  0.28940384221E+03  0.48026603281E+03  0.00000000000E+00 0.  1.
         -1    1    6    6    0  502  0.27850322082E+03  0.17329790899E+03  0.19552877084E+03  0.38187394451E+03  0.00000000000E+00 0.  1.
<mgrwt>
<rscale>  0 0.14701909E+04</rscale>
<asrwt>0</asrwt>
<pdfrwt beam="1">  1        2 0.19223708E+00 0.14701909E+04</pdfrwt>
<pdfrwt beam="2">  1       -2 0.66530935E-01 0.14701909E+04</pdfrwt>
<totfact> 0.35583540E+01</totfact>
</mgrwt>
</event>
<event>
12    1  0.1496989E-007  0.1590188E+04  0.7818608E-02  0.8826598E-01
          1   -1    0    0  501    0  0.00000000000E+00  0.00000000000E+00  0.72875621168E+03  0.72875621168E+03  0.00000000000E+00 0.  1.
         -1   -1    0    0    0  501 -0.00000000000E+00 -0.00000000000E+00 -0.86747092784E+03  0.86747092784E+03  0.00000000000E+00 0. -1.
         23    2    1    2    0    0 -0.59960718168E+02 -0.32810639664E+03  0.36592030760E+03  0.50345676240E+03  0.91224694346E+02 0.  0.
        254    2    1    2    0    0  0.59960718168E+02  0.32810639664E+03 -0.50463502376E+03  0.10927703771E+04  0.91007774099E+03 0.  0.
        -24    2    4    4    0    0 -0.15878540520E+03  0.57075283616E+03 -0.17712139406E+03  0.62334332208E+03  0.78824514385E+02 0.  0.
         24    2    4    4    0    0  0.21874612337E+03 -0.24264643952E+03 -0.32751362970E+03  0.46942705503E+03  0.79808653996E+02 0.  0.
         11    1    3    3    0    0 -0.12415505170E+02 -0.27165904856E+03  0.28445302472E+03  0.39353056642E+03  0.00000000000E+00 0.  1.
        -11    1    3    3    0    0 -0.47545212997E+02 -0.56447348075E+02  0.81467282885E+02  0.10992619599E+03  0.00000000000E+00 0. -1.
          2    1    6    6  502    0  0.15063392262E+02 -0.62775089436E+02 -0.61823238879E+02  0.89385292446E+02  0.00000000000E+00 0. -1.
          3    1    5    5  503    0 -0.27708913927E+01  0.12441674364E+03 -0.46052660400E+02  0.13269533325E+03  0.00000000000E+00 0. -1.
         -4    1    5    5    0  503 -0.15601451381E+03  0.44633609252E+03 -0.13106873366E+03  0.49064798883E+03  0.00000000000E+00 0.  1.
         -1    1    6    6    0  502  0.20368273110E+03 -0.17987135008E+03 -0.26569039082E+03  0.38004176258E+03  0.00000000000E+00 0.  1.
<mgrwt>
<rscale>  0 0.15901885E+04</rscale>
<asrwt>0</asrwt>
<pdfrwt beam="1">  1        1 0.11211634E+00 0.15901885E+04</pdfrwt>
<pdfrwt beam="2">  1       -1 0.13345707E+00 0.15901885E+04</pdfrwt>
<totfact> 0.11670355E+01</totfact>
</mgrwt>
</event>
<event>
12    1  0.1496989E-007  0.1140195E+04  0.7818608E-02  0.9166877E-01
          2   -1    0    0  501    0  0.00000000000E+00  0.00000000000E+00  0.29403281384E+03  0.29403281384E+03  0.00000000000E+00 0.  1.
         -2   -1    0    0    0  501 -0.00000000000E+00 -0.00000000000E+00 -0.11053577219E+04  0.11053577219E+04  0.00000000000E+00 0. -1.
         23    2    1    2    0    0  0.44133407447E+02  0.10087976623E+03 -0.36547273453E+03  0.39249231460E+03  0.91407945221E+02 0.  0.
        254    2    1    2    0    0 -0.44133407447E+02 -0.10087976623E+03 -0.44585217357E+03  0.10068982212E+04  0.89606661708E+03 0.  0.
        -24    2    4    4    0    0  0.37999385579E+03 -0.15945934020E+03 -0.58605672234E+02  0.42399356370E+03  0.80705053293E+02 0.  0.
         24    2    4    4    0    0 -0.42412726324E+03  0.58579573970E+02 -0.38724650134E+03  0.58290465748E+03  0.80637987363E+02 0.  0.
         13    1    3    3    0    0 -0.26969626925E+02  0.19736006939E+02 -0.11533609371E+03  0.12008032835E+03  0.00000000000E+00 0.  1.
        -13    1    3    3    0    0  0.71103034372E+02  0.81143759289E+02 -0.25013664082E+03  0.27241198624E+03  0.00000000000E+00 0. -1.
          2    1    6    6  502    0 -0.35391596517E+03  0.36743060829E+02 -0.27953514191E+03  0.45248918051E+03  0.00000000000E+00 0. -1.
          1    1    5    5  503    0  0.32287423353E+03 -0.16167144308E+03 -0.37385318476E+02  0.36301940475E+03  0.00000000000E+00 0. -1.
         -2    1    5    5    0  503  0.57119622261E+02  0.22121028858E+01 -0.21220353758E+02  0.60974158953E+02  0.00000000000E+00 0.  1.
         -1    1    6    6    0  502 -0.70211298071E+02  0.21836513140E+02 -0.10771135943E+03  0.13041547697E+03  0.00000000000E+00 0.  1.
<mgrwt>
<rscale>  0 0.11401955E+04</rscale>
<asrwt>0</asrwt>
<pdfrwt beam="1">  1        2 0.45235818E-01 0.11401955E+04</pdfrwt>
<pdfrwt beam="2">  1       -2 0.17005503E+00 0.11401955E+04</pdfrwt>
<totfact> 0.23654602E+01</totfact>
</mgrwt>
</event>
<event>
12    1  0.1496989E-007  0.2185655E+04  0.7818608E-02  0.8524423E-01
         -1   -1    0    0    0  501 -0.00000000000E+00  0.00000000000E+00  0.96711498677E+03  0.96711498677E+03  0.00000000000E+00 0.  1.
          1   -1    0    0  501    0  0.00000000000E+00 -0.00000000000E+00 -0.12348804811E+04  0.12348804811E+04  0.00000000000E+00 0. -1.
         23    2    1    2    0    0  0.34880770527E+03  0.56891648506E+03 -0.72672153508E+03  0.99074267200E+03  0.90078134643E+02 0.  0.
        254    2    1    2    0    0 -0.34880770527E+03 -0.56891648506E+03  0.45895604074E+03  0.12112527959E+04  0.90064416169E+03 0.  0.
        -24    2    4    4    0    0 -0.32561078517E+03 -0.34257104362E+02 -0.17327634288E+03  0.37907868371E+03  0.80498601359E+02 0.  0.
         24    2    4    4    0    0 -0.23196920092E+02 -0.53465938070E+03  0.63223238362E+03  0.83217411218E+03  0.79982595651E+02 0.  0.
         11    1    3    3    0    0  0.30924894842E+01  0.47461856680E+02 -0.57302300227E+02  0.74469758574E+02  0.00000000000E+00 0.  1.
        -11    1    3    3    0    0  0.34571521578E+03  0.52145462838E+03 -0.66941923485E+03  0.91627291342E+03  0.00000000000E+00 0. -1.
          2    1    6    6  502    0 -0.40008528297E+02 -0.16306761568E+03  0.17119670923E+03  0.23979166556E+03  0.00000000000E+00 0. -1.
          1    1    5    5  503    0 -0.55917107038E+02 -0.19257148694E+02 -0.18640414289E+01  0.59169546946E+02  0.00000000000E+00 0. -1.
         -2    1    5    5    0  503 -0.26969367814E+03 -0.14999955668E+02 -0.17141230145E+03  0.31990913677E+03  0.00000000000E+00 0.  1.
         -1    1    6    6    0  502  0.16811608205E+02 -0.37159176502E+03  0.46103567439E+03  0.59238244661E+03  0.00000000000E+00 0.  1.
<mgrwt>
<rscale>  0 0.21856545E+04</rscale>
<asrwt>0</asrwt>
<pdfrwt beam="1">  1        1 0.18998161E+00 0.21856545E+04</pdfrwt>
<pdfrwt beam="2">  1       -1 0.14878692E+00 0.21856545E+04</pdfrwt>
<totfact> 0.32810796E+00</totfact>
</mgrwt>
</event>
<event>
12    1  0.1496989E-007  0.2808656E+04  0.7818608E-02  0.8300586E-01
          2   -1    0    0  501    0  0.00000000000E+00  0.00000000000E+00  0.18049912157E+04  0.18049912157E+04  0.00000000000E+00 0. -1.
         -2   -1    0    0    0  501 -0.00000000000E+00 -0.00000000000E+00 -0.10926017642E+04  0.10926017642E+04  0.00000000000E+00 0.  1.
         23    2    1    2    0    0 -0.13642109000E+02 -0.74617999161E+03  0.13656738730E+04  0.15589989268E+04  0.91879483069E+02 0.  0.
        254    2    1    2    0    0  0.13642109000E+02  0.74617999161E+03 -0.65328442152E+03  0.13385940531E+04  0.89893426705E+03 0.  0.
        -24    2    4    4    0    0 -0.13975142270E+03 -0.85904722470E+02  0.95131932065E+02  0.20602902734E+03  0.80546844257E+02 0.  0.
         24    2    4    4    0    0  0.15339353170E+03  0.83208471408E+03 -0.74841635358E+03  0.11325650257E+04  0.81743208954E+02 0.  0.
         11    1    3    3    0    0 -0.45352496354E+02 -0.60698721629E+03  0.11279848979E+04  0.12817333028E+04  0.00000000000E+00 0. -1.
        -11    1    3    3    0    0  0.31710387354E+02 -0.13919277532E+03  0.23768897508E+03  0.27726562398E+03  0.00000000000E+00 0.  1.
          4    1    6    6  502    0  0.10674862949E+03  0.54638029742E+03 -0.54240138498E+03  0.77725540315E+03  0.00000000000E+00 0. -1.
          1    1    5    5  503    0 -0.11343477374E+03 -0.27643589445E+02  0.75950968401E+02  0.13928447700E+03  0.00000000000E+00 0. -1.
         -2    1    5    5    0  503 -0.26316648959E+02 -0.58261133025E+02  0.19180963664E+02  0.66744550346E+02  0.00000000000E+00 0.  1.
         -3    1    6    6    0  502  0.46644902209E+02  0.28570441666E+03 -0.20601496860E+03  0.35530962257E+03  0.00000000000E+00 0.  1.
<mgrwt>
<rscale>  0 0.28086556E+04</rscale>
<asrwt>0</asrwt>
<pdfrwt beam="1">  1        2 0.27769096E+00 0.28086556E+04</pdfrwt>
<pdfrwt beam="2">  1       -2 0.16809258E+00 0.28086556E+04</pdfrwt>
<totfact> 0.16398759E+00</totfact>
</mgrwt>
</event>
<event>
12    1  0.1496989E-007  0.2194754E+04  0.7818608E-02  0.8520615E-01
         -2   -1    0    0    0  501 -0.00000000000E+00  0.00000000000E+00  0.10774416121E+04  0.10774416121E+04  0.00000000000E+00 0.  1.
          2   -1    0    0  501    0  0.00000000000E+00 -0.00000000000E+00 -0.11176811744E+04  0.11176811744E+04  0.00000000000E+00 0. -1.
         23    2    1    2    0    0  0.35771185852E+03  0.11067430962E+02  0.83314919131E+03  0.91144882369E+03  0.92309920698E+02 0.  0.
        254    2    1    2    0    0 -0.35771185852E+03 -0.11067430962E+02 -0.87338875359E+03  0.12836739628E+04  0.87001762408E+03 0.  0.
        -24    2    4    4    0    0  0.11932637925E+03  0.89639382872E+01  0.11424321651E+03  0.18370750811E+03  0.79861123482E+02 0.  0.
         24    2    4    4    0    0 -0.47703823778E+03 -0.20031369250E+02 -0.98763197010E+03  0.10999664547E+04  0.80886074820E+02 0.  0.
         13    1    3    3    0    0  0.14812139951E+03 -0.37568591251E+02  0.30453174349E+03  0.34072119223E+03  0.00000000000E+00 0. -1.
        -13    1    3    3    0    0  0.20959045901E+03  0.48636022214E+02  0.52861744783E+03  0.57072763146E+03  0.00000000000E+00 0.  1.
          2    1    6    6  502    0 -0.33363402817E+02 -0.21869130991E+02 -0.98862632805E+02  0.10660767188E+03  0.00000000000E+00 0. -1.
          1    1    5    5  503    0 -0.40283732433E+00 -0.14754235833E+02 -0.23113420726E+01  0.14939613620E+02  0.00000000000E+00 0. -1.
         -2    1    5    5    0  503  0.11972921658E+03  0.23718174120E+02  0.11655455858E+03  0.16876789449E+03  0.00000000000E+00 0.  1.
         -1    1    6    6    0  502 -0.44367483496E+03  0.18377617410E+01 -0.88876933730E+03  0.99335878285E+03  0.00000000000E+00 0.  1.
<mgrwt>
<rscale>  0 0.21947539E+04</rscale>
<asrwt>0</asrwt>
<pdfrwt beam="1">  1        2 0.17195095E+00 0.21947539E+04</pdfrwt>
<pdfrwt beam="2">  1       -2 0.16576025E+00 0.21947539E+04</pdfrwt>
<totfact> 0.44412410E+00</totfact>
</mgrwt>
</event>
<event>
12    1  0.1496989E-007  0.1621932E+04  0.7818608E-02  0.8807187E-01
         -1   -1    0    0    0  501 -0.00000000000E+00  0.00000000000E+00  0.31405080876E+03  0.31405080876E+03  0.00000000000E+00 0.  1.
          1   -1    0    0  501    0  0.00000000000E+00 -0.00000000000E+00 -0.20941378272E+04  0.20941378272E+04  0.00000000000E+00 0. -1.
         23    2    1    2    0    0 -0.26302332074E+03 -0.11830638690E+03 -0.13220458772E+04  0.13565837117E+04  0.96625033943E+02 0.  0.
        254    2    1    2    0    0  0.26302332074E+03  0.11830638690E+03 -0.45804114127E+03  0.10516049242E+04  0.90160610085E+03 0.  0.
        -24    2    4    4    0    0  0.38580321047E+03 -0.29914834875E+03 -0.17001763275E+03  0.52267656970E+03  0.77142396279E+02 0.  0.
         24    2    4    4    0    0 -0.12277988973E+03  0.41745473565E+03 -0.28802350853E+03  0.52892835451E+03  0.86396209998E+02 0.  0.
         11    1    3    3    0    0 -0.10683377744E+03 -0.16872950454E+02 -0.33199185172E+03  0.34916578021E+03  0.00000000000E+00 0.  1.
        -11    1    3    3    0    0 -0.15618954330E+03 -0.10143343645E+03 -0.99005402545E+03  0.10074179315E+04  0.00000000000E+00 0. -1.
          4    1    6    6  502    0 -0.30632690705E+01  0.14921735919E+03 -0.11061126620E+03  0.18576882438E+03  0.00000000000E+00 0. -1.
          1    1    5    5  503    0  0.97045542581E+02 -0.61930062603E+02 -0.81087716439E+01  0.11540763478E+03  0.00000000000E+00 0. -1.
         -2    1    5    5    0  503  0.28875766789E+03 -0.23721828615E+03 -0.16190886110E+03  0.40726893492E+03  0.00000000000E+00 0.  1.
         -3    1    6    6    0  502 -0.11971662066E+03  0.26823737646E+03 -0.17741224233E+03  0.34315953013E+03  0.00000000000E+00 0.  1.
<mgrwt>
<rscale>  0 0.16219318E+04</rscale>
<asrwt>0</asrwt>
<pdfrwt beam="1">  1        1 0.32217506E+00 0.16219318E+04</pdfrwt>
<pdfrwt beam="2">  1       -1 0.48315508E-01 0.16219318E+04</pdfrwt>
<totfact> 0.10559650E+01</totfact>
</mgrwt>
</event>
<event>
12    1  0.1496989E-007  0.1388847E+04  0.7818608E-02  0.8961932E-01
         -2   -1    0    0    0  501 -0.00000000000E+00  0.00000000000E+00  0.43760027570E+03  0.43760027570E+03  0.00000000000E+00 0.  1.
          2   -1    0    0  501    0  0.00000000000E+00 -0.00000000000E+00 -0.11019731051E+04  0.11019731051E+04  0.00000000000E+00 0. -1.
         23    2    1    2    0    0 -0.25875712459E+03  0.12522146935E+03  0.10461822407E+03  0.31958132329E+03  0.92474772113E+02 0.  0.
        254    2    1    2    0    0  0.25875712459E+03 -0.12522146935E+03 -0.76899105352E+03  0.12199920575E+04  0.90243986735E+03 0.  0.
        -24    2    4    4    0    0 -0.14867059024E+03  0.21922031493E+03  0.56063494687E+01  0.27586797518E+03  0.76884443801E+02 0.  0.
         24    2    4    4    0    0  0.40742771482E+03 -0.34444178428E+03 -0.77459740298E+03  0.94412408237E+03  0.82046697875E+02 0.  0.
         13    1    3    3    0    0 -0.62026553044E+02  0.47071500622E+02  0.70744639958E+02  0.10520372397E+03  0.00000000000E+00 0.  1.
        -13    1    3    3    0    0 -0.19673057154E+03  0.78149968728E+02  0.33873584114E+02  0.21437759932E+03  0.00000000000E+00 0. -1.
          4    1    6    6  502    0  0.42518162484E+02 -0.23075547885E+02 -0.11422334440E+03  0.12404534436E+03  0.00000000000E+00 0. -1.
          1    1    5    5  503    0  0.89739087421E+01  0.67464214842E+01 -0.33372309109E+00  0.11231946049E+02  0.00000000000E+00 0. -1.
         -2    1    5    5    0  503 -0.15764449898E+03  0.21247389344E+03  0.59400725597E+01  0.26463602913E+03  0.00000000000E+00 0.  1.
         -3    1    6    6    0  502  0.36490955234E+03 -0.32136623639E+03 -0.66037405858E+03  0.82007873801E+03  0.00000000000E+00 0.  1.
<mgrwt>
<rscale>  0 0.13888466E+04</rscale>
<asrwt>0</asrwt>
<pdfrwt beam="1">  1        2 0.16953432E+00 0.13888466E+04</pdfrwt>
<pdfrwt beam="2">  1       -2 0.67323120E-01 0.13888466E+04</pdfrwt>
<totfact> 0.42830518E+01</totfact>
</mgrwt>
</event>
<event>
12    1  0.1496989E-007  0.1206267E+04  0.7818608E-02  0.9107389E-01
          2   -1    0    0  501    0  0.00000000000E+00  0.00000000000E+00  0.54769307685E+03  0.54769307685E+03  0.00000000000E+00 0.  1.
         -2   -1    0    0    0  501 -0.00000000000E+00 -0.00000000000E+00 -0.66418555854E+03  0.66418555854E+03  0.00000000000E+00 0. -1.
         23    2    1    2    0    0  0.16508859510E+03 -0.17094364765E+03  0.61460102019E+02  0.26190207814E+03  0.91320203080E+02 0.  0.
        254    2    1    2    0    0 -0.16508859510E+03  0.17094364765E+03 -0.17795258371E+03  0.94997655724E+03  0.90239257663E+03 0.  0.
        -24    2    4    4    0    0  0.12417356396E+03 -0.30147048325E+03 -0.19780009763E+03  0.39004671674E+03  0.81902602847E+02 0.  0.
         24    2    4    4    0    0 -0.28926215906E+03  0.47241413091E+03  0.19847513921E+02  0.55992984051E+03  0.79245155926E+02 0.  0.
         13    1    3    3    0    0  0.92682821011E+02 -0.78217379750E+02 -0.14079790217E+02  0.12209137684E+03  0.00000000000E+00 0. -1.
        -13    1    3    3    0    0  0.72405774090E+02 -0.92726267903E+02  0.75539892236E+02  0.13981070131E+03  0.00000000000E+00 0.  1.
          4    1    6    6  502    0 -0.13190441693E+03  0.15458187162E+03 -0.13837521295E+02  0.20368065013E+03  0.00000000000E+00 0. -1.
          3    1    5    5  503    0  0.24724669380E+02 -0.11849348282E+02 -0.41401705770E+01  0.27728276958E+02  0.00000000000E+00 0. -1.
         -4    1    5    5    0  503  0.99448894580E+02 -0.28962113497E+03 -0.19365992706E+03  0.36231843978E+03  0.00000000000E+00 0.  1.
         -3    1    6    6    0  502 -0.15735774213E+03  0.31783225928E+03  0.33685035216E+02  0.35624919038E+03  0.00000000000E+00 0.  1.
<mgrwt>
<rscale>  0 0.12062667E+04</rscale>
<asrwt>0</asrwt>
<pdfrwt beam="1">  1        2 0.84260474E-01 0.12062667E+04</pdfrwt>
<pdfrwt beam="2">  1       -2 0.10218239E+00 0.12062667E+04</pdfrwt>
<totfact> 0.42824062E+01</totfact>
</mgrwt>
</event>
<event>
12    1  0.1496989E-007  0.3212960E+04  0.7818608E-02  0.8185403E-01
          2   -1    0    0  501    0  0.00000000000E+00  0.00000000000E+00  0.16421715252E+04  0.16421715252E+04  0.00000000000E+00 0. -1.
         -2   -1    0    0    0  501 -0.00000000000E+00 -0.00000000000E+00 -0.15715637280E+04  0.15715637280E+04  0.00000000000E+00 0.  1.
         23    2    1    2    0    0 -0.80845041579E+03 -0.65138034611E+03 -0.10174828349E+04  0.14567238323E+04  0.94258018468E+02 0.  0.
        254    2    1    2    0    0  0.80845041579E+03  0.65138034611E+03  0.10880906321E+04  0.17570114210E+04  0.90843793379E+03 0.  0.
        -24    2    4    4    0    0  0.36440336617E+03  0.29487437996E+03  0.10820241647E+04  0.11819623024E+04  0.80733376725E+02 0.  0.
         24    2    4    4    0    0  0.44404704961E+03  0.35650596615E+03  0.60664674202E+01  0.57504911852E+03  0.79814788807E+02 0.  0.
         11    1    3    3    0    0 -0.58635083065E+02 -0.20008946701E+02 -0.68985740441E+02  0.92722506968E+02  0.00000000000E+00 0. -1.
        -11    1    3    3    0    0 -0.74981533272E+03 -0.63137139941E+03 -0.94849709450E+03  0.13640013253E+04  0.00000000000E+00 0.  1.
          4    1    6    6  502    0 -0.17397649445E+01  0.31017997678E+01 -0.49149799749E+01  0.60667101476E+01  0.00000000000E+00 0. -1.
          3    1    5    5  503    0  0.76619049348E+02  0.23834183835E+02  0.17364010103E+03  0.19128364208E+03  0.00000000000E+00 0. -1.
         -4    1    5    5    0  503  0.28778431683E+03  0.27104019612E+03  0.90838406370E+03  0.99067866036E+03  0.00000000000E+00 0.  1.
         -3    1    6    6    0  502  0.44578681456E+03  0.35340416639E+03  0.10981447395E+02  0.56898240837E+03  0.00000000000E+00 0.  1.
<mgrwt>
<rscale>  0 0.32129595E+04</rscale>
<asrwt>0</asrwt>
<pdfrwt beam="1">  1        2 0.25264177E+00 0.32129595E+04</pdfrwt>
<pdfrwt beam="2">  1       -2 0.24177903E+00 0.32129595E+04</pdfrwt>
<totfact> 0.64170240E-01</totfact>
</mgrwt>
</event>
<event>
12    1  0.1496989E-007  0.1495769E+04  0.7818608E-02  0.8887271E-01
          1   -1    0    0  501    0  0.00000000000E+00  0.00000000000E+00  0.21860535180E+03  0.21860535180E+03  0.00000000000E+00 0. -1.
         -1   -1    0    0    0  501 -0.00000000000E+00 -0.00000000000E+00 -0.25586349479E+04  0.25586349479E+04  0.00000000000E+00 0.  1.
         23    2    1    2    0    0  0.22826292801E+03  0.20118260322E+03 -0.14082390237E+04  0.14436771606E+04  0.92131384260E+02 0.  0.
        254    2    1    2    0    0 -0.22826292801E+03 -0.20118260322E+03 -0.93179057236E+03  0.13335631391E+04  0.90420051485E+03 0.  0.
        -24    2    4    4    0    0 -0.45089290013E+03 -0.39543260722E+03 -0.79393058863E+03  0.99823512268E+03  0.80475004562E+02 0.  0.
         24    2    4    4    0    0  0.22262997212E+03  0.19425000400E+03 -0.13785998373E+03  0.33532801641E+03  0.78373049786E+02 0.  0.
         11    1    3    3    0    0  0.14699350242E+03  0.72846476798E+02 -0.65106224805E+03  0.67141324814E+03  0.00000000000E+00 0. -1.
        -11    1    3    3    0    0  0.81269425592E+02  0.12833612642E+03 -0.75717677566E+03  0.77226391246E+03  0.00000000000E+00 0.  1.
          2    1    6    6  502    0  0.65076083968E+02  0.22169371724E+02 -0.53931870443E+02  0.87378626659E+02  0.00000000000E+00 0. -1.
          1    1    5    5  503    0 -0.80111657694E+02 -0.10170747676E+03 -0.21064703078E+03  0.24725383739E+03  0.00000000000E+00 0. -1.
         -2    1    5    5    0  503 -0.37078124243E+03 -0.29372513046E+03 -0.58328355784E+03  0.75098128529E+03  0.00000000000E+00 0.  1.
         -1    1    6    6    0  502  0.15755388815E+03  0.17208063228E+03 -0.83928113290E+02  0.24794938975E+03  0.00000000000E+00 0.  1.
<mgrwt>
<rscale>  0 0.14957691E+04</rscale>
<asrwt>0</asrwt>
<pdfrwt beam="1">  1        1 0.33631592E-01 0.14957691E+04</pdfrwt>
<pdfrwt beam="2">  1       -1 0.39363615E+00 0.14957691E+04</pdfrwt>
<totfact> 0.10204354E+00</totfact>
</mgrwt>
</event>
<event>
12    1  0.1496989E-007  0.1870144E+04  0.7818608E-02  0.8669862E-01
          1   -1    0    0  501    0  0.00000000000E+00  0.00000000000E+00  0.13490569810E+04  0.13490569810E+04  0.00000000000E+00 0. -1.
         -1   -1    0    0    0  501 -0.00000000000E+00 -0.00000000000E+00 -0.64812659979E+03  0.64812659979E+03  0.00000000000E+00 0.  1.
         23    2    1    2    0    0  0.13197348014E+03  0.54146699248E+03 -0.18934023948E+03  0.59594409677E+03  0.93253079271E+02 0.  0.
        254    2    1    2    0    0 -0.13197348014E+03 -0.54146699248E+03  0.89027062072E+03  0.14012394840E+04  0.92751647432E+03 0.  0.
        -24    2    4    4    0    0 -0.91569624256E+02  0.18480456952E+03  0.55254567837E+03  0.59532826352E+03  0.81063491514E+02 0.  0.
         24    2    4    4    0    0 -0.40403855883E+02 -0.72627156199E+03  0.33772494235E+03  0.80591122053E+03  0.79573270355E+02 0.  0.
         11    1    3    3    0    0  0.76346394633E+00  0.10023770287E+01 -0.12181010875E+02  0.12246005995E+02  0.00000000000E+00 0. -1.
        -11    1    3    3    0    0  0.13121001619E+03  0.54046461545E+03 -0.17715922860E+03  0.58369809078E+03  0.00000000000E+00 0.  1.
          2    1    6    6  502    0 -0.60224301264E+02 -0.61997488237E+03  0.30017134456E+03  0.69144678561E+03  0.00000000000E+00 0. -1.
          1    1    5    5  503    0 -0.10227919541E+03  0.12950944391E+03  0.39916157589E+03  0.43193019522E+03  0.00000000000E+00 0. -1.
         -4    1    5    5    0  503  0.10709571149E+02  0.55295125612E+02  0.15338410248E+03  0.16339806830E+03  0.00000000000E+00 0.  1.
         -1    1    6    6    0  502  0.19820445382E+02 -0.10629667963E+03  0.37553597781E+02  0.11446443492E+03  0.00000000000E+00 0.  1.
<mgrwt>
<rscale>  0 0.18701441E+04</rscale>
<asrwt>0</asrwt>
<pdfrwt beam="1">  1        1 0.20754723E+00 0.18701441E+04</pdfrwt>
<pdfrwt beam="2">  1       -1 0.99711785E-01 0.18701441E+04</pdfrwt>
<totfact> 0.75114660E+00</totfact>
</mgrwt>
</event>
<event>
12    1  0.1496989E-007  0.1708290E+04  0.7818608E-02  0.8756650E-01
         -1   -1    0    0    0  501 -0.00000000000E+00  0.00000000000E+00  0.18491119811E+04  0.18491119811E+04  0.00000000000E+00 0.  1.
          1   -1    0    0  501    0  0.00000000000E+00 -0.00000000000E+00 -0.39454821187E+03  0.39454821187E+03  0.00000000000E+00 0. -1.
         23    2    1    2    0    0  0.58511511552E+03 -0.15391423179E+03  0.40519193477E+03  0.73390741075E+03  0.91598550143E+02 0.  0.
        254    2    1    2    0    0 -0.58511511552E+03  0.15391423179E+03  0.10493718344E+04  0.15097527822E+04  0.90117863230E+03 0.  0.
        -24    2    4    4    0    0 -0.44222464275E+03  0.16444000092E+03  0.32438653962E+02  0.47965642055E+03  0.80092864537E+02 0.  0.
         24    2    4    4    0    0 -0.14289047278E+03 -0.10525769137E+02  0.10169331805E+04  0.10300963617E+04  0.80105815720E+02 0.  0.
         13    1    3    3    0    0  0.34836783165E+03 -0.83498915977E+02  0.29220556617E+03  0.46229461169E+03  0.00000000000E+00 0.  1.
        -13    1    3    3    0    0  0.23674728388E+03 -0.70415315809E+02  0.11298636860E+03  0.27161279906E+03  0.00000000000E+00 0. -1.
          4    1    6    6  502    0 -0.89860674095E+01 -0.26113439995E+02  0.23633419989E+03  0.23794225180E+03  0.00000000000E+00 0. -1.
          1    1    5    5  503    0 -0.25790195888E+03  0.61025949069E+02  0.40768750975E+02  0.26814115296E+03  0.00000000000E+00 0. -1.
         -2    1    5    5    0  503 -0.18432268386E+03  0.10341405185E+03 -0.83300970123E+01  0.21151526759E+03  0.00000000000E+00 0.  1.
         -3    1    6    6    0  502 -0.13390440537E+03  0.15587670859E+02  0.78059898059E+03  0.79215410986E+03  0.00000000000E+00 0.  1.
<mgrwt>
<rscale>  0 0.17082902E+04</rscale>
<asrwt>0</asrwt>
<pdfrwt beam="1">  1        1 0.60699726E-01 0.17082902E+04</pdfrwt>
<pdfrwt beam="2">  1       -1 0.28447876E+00 0.17082902E+04</pdfrwt>
<totfact> 0.24216485E+00</totfact>
</mgrwt>
</event>
<event>
12    1  0.1496989E-007  0.1854911E+04  0.7818608E-02  0.8677631E-01
          2   -1    0    0  501    0  0.00000000000E+00  0.00000000000E+00  0.15455204235E+04  0.15455204235E+04  0.00000000000E+00 0. -1.
         -2   -1    0    0    0  501 -0.00000000000E+00 -0.00000000000E+00 -0.55655949776E+03  0.55655949776E+03  0.00000000000E+00 0.  1.
         23    2    1    2    0    0  0.23727343624E+03 -0.59935260730E+03  0.67779381518E+03  0.93988294679E+03  0.91941646483E+02 0.  0.
        254    2    1    2    0    0 -0.23727343624E+03  0.59935260730E+03  0.31116711055E+03  0.11621969745E+04  0.91561706260E+03 0.  0.
        -24    2    4    4    0    0 -0.69346356956E+02 -0.21668770784E+03  0.20864428516E+03  0.31894542968E+03  0.80195195822E+02 0.  0.
         24    2    4    4    0    0 -0.16792707928E+03  0.81604031514E+03  0.10252282539E+03  0.84325154478E+03  0.80255455603E+02 0.  0.
         11    1    3    3    0    0  0.21768018682E+03 -0.48528165387E+03  0.51674574931E+03  0.74155857270E+03  0.00000000000E+00 0. -1.
        -11    1    3    3    0    0  0.19593249418E+02 -0.11407095343E+03  0.16104806587E+03  0.19832437409E+03  0.00000000000E+00 0.  1.
          2    1    6    6  502    0 -0.60721210354E+02  0.49061856511E+03  0.58702870039E+02  0.49783498146E+03  0.00000000000E+00 0. -1.
          1    1    5    5  503    0 -0.64440007510E+02 -0.18692791708E+03  0.13514120505E+03  0.23949468898E+03  0.00000000000E+00 0. -1.
         -2    1    5    5    0  503 -0.49063494464E+01 -0.29759790762E+02  0.73503080112E+02  0.79450740695E+02  0.00000000000E+00 0.  1.
         -3    1    6    6    0  502 -0.10720586893E+03  0.32542175003E+03  0.43819955352E+02  0.34541656332E+03  0.00000000000E+00 0.  1.
<mgrwt>
<rscale>  0 0.18549114E+04</rscale>
<asrwt>0</asrwt>
<pdfrwt beam="1">  1        2 0.23777237E+00 0.18549114E+04</pdfrwt>
<pdfrwt beam="2">  1       -2 0.85624539E-01 0.18549114E+04</pdfrwt>
<totfact> 0.13326867E+01</totfact>
</mgrwt>
</event>
<event>
12    1  0.1496989E-007  0.2354183E+04  0.7818608E-02  0.8456859E-01
          2   -1    0    0  501    0  0.00000000000E+00  0.00000000000E+00  0.12124570119E+04  0.12124570119E+04  0.00000000000E+00 0.  1.
         -2   -1    0    0    0  501 -0.00000000000E+00 -0.00000000000E+00 -0.11427575385E+04  0.11427575385E+04  0.00000000000E+00 0. -1.
         23    2    1    2    0    0  0.86303905199E+03  0.43279670956E+03  0.30253137759E+03  0.10160358456E+04  0.93027996335E+02 0.  0.
        254    2    1    2    0    0 -0.86303905199E+03 -0.43279670956E+03 -0.23283190421E+03  0.13391787048E+04  0.89835377821E+03 0.  0.
        -24    2    4    4    0    0 -0.74235135373E+02 -0.45782569879E+03 -0.27503786961E+03  0.54471113838E+03  0.77130854730E+02 0.  0.
         24    2    4    4    0    0 -0.78880391662E+03  0.25028989237E+02  0.42205965400E+02  0.79446756647E+03  0.80989514614E+02 0.  0.
         11    1    3    3    0    0  0.67908403145E+03  0.37494584269E+03  0.22027097014E+03  0.80638626415E+03  0.00000000000E+00 0. -1.
        -11    1    3    3    0    0  0.18395502054E+03  0.57850866870E+02  0.82260407446E+02  0.20964958148E+03  0.00000000000E+00 0.  1.
          2    1    6    6  502    0 -0.66340912795E+03  0.38944488460E+02  0.59113272784E+02  0.66717518183E+03  0.00000000000E+00 0. -1.
          1    1    5    5  503    0 -0.30991334884E+02 -0.36815288098E+03 -0.23195188001E+03  0.43623237071E+03  0.00000000000E+00 0. -1.
         -2    1    5    5    0  503 -0.43243800489E+02 -0.89672817815E+02 -0.43085989602E+02  0.10847876767E+03  0.00000000000E+00 0.  1.
         -1    1    6    6    0  502 -0.12539478867E+03 -0.13915499224E+02 -0.16907307385E+02  0.12729238464E+03  0.00000000000E+00 0.  1.
<mgrwt>
<rscale>  0 0.23541830E+04</rscale>
<asrwt>0</asrwt>
<pdfrwt beam="1">  1        2 0.18653185E+00 0.23541830E+04</pdfrwt>
<pdfrwt beam="2">  1       -2 0.17580885E+00 0.23541830E+04</pdfrwt>
<totfact> 0.32591491E+00</totfact>
</mgrwt>
</event>
<event>
12    1  0.1496989E-007  0.2155578E+04  0.7818608E-02  0.8537148E-01
         -2   -1    0    0    0  501 -0.00000000000E+00  0.00000000000E+00  0.67171363221E+03  0.67171363221E+03  0.00000000000E+00 0.  1.
          2   -1    0    0  501    0  0.00000000000E+00 -0.00000000000E+00 -0.17293521751E+04  0.17293521751E+04  0.00000000000E+00 0. -1.
         23    2    1    2    0    0 -0.53038416224E+03 -0.37539457360E+03  0.23036130409E+03  0.69544043900E+03  0.91337989512E+02 0.  0.
        254    2    1    2    0    0  0.53038416224E+03  0.37539457360E+03 -0.12879998470E+04  0.17056253683E+04  0.90993727575E+03 0.  0.
        -24    2    4    4    0    0 -0.71754836979E+02  0.82491069104E+02  0.95746978026E+02  0.16640533430E+03  0.81053799237E+02 0.  0.
         24    2    4    4    0    0  0.60213899922E+03  0.29290350450E+03 -0.13837468250E+04  0.15392200340E+04  0.77969225160E+02 0.  0.
         13    1    3    3    0    0 -0.14202249418E+03 -0.15116537736E+03  0.62831962783E+02  0.21672382360E+03  0.00000000000E+00 0. -1.
        -13    1    3    3    0    0 -0.38836166806E+03 -0.22422919624E+03  0.16752934131E+03  0.47871661541E+03  0.00000000000E+00 0.  1.
          4    1    6    6  502    0  0.16882323648E+03  0.11865107950E+03 -0.39145046485E+03  0.44250743527E+03  0.00000000000E+00 0. -1.
          1    1    5    5  503    0 -0.59622849650E+02  0.65663306600E+02  0.10994992949E+03  0.14126408259E+03  0.00000000000E+00 0. -1.
         -2    1    5    5    0  503 -0.12131987329E+02  0.16827762504E+02 -0.14202951464E+02  0.25141251714E+02  0.00000000000E+00 0.  1.
         -3    1    6    6    0  502  0.43331576274E+03  0.17425242499E+03 -0.99229636020E+03  0.10967125988E+04  0.00000000000E+00 0.  1.
<mgrwt>
<rscale>  0 0.21555783E+04</rscale>
<asrwt>0</asrwt>
<pdfrwt beam="1">  1        2 0.26605418E+00 0.21555783E+04</pdfrwt>
<pdfrwt beam="2">  1       -2 0.10334056E+00 0.21555783E+04</pdfrwt>
<totfact> 0.66175934E+00</totfact>
</mgrwt>
</event>
<event>
12    1  0.1496989E-007  0.2259635E+04  0.7818608E-02  0.8494008E-01
         -2   -1    0    0    0  501 -0.00000000000E+00  0.00000000000E+00  0.40454122460E+03  0.40454122460E+03  0.00000000000E+00 0.  1.
          2   -1    0    0  501    0  0.00000000000E+00 -0.00000000000E+00 -0.31553968069E+04  0.31553968069E+04  0.00000000000E+00 0. -1.
         23    2    1    2    0    0 -0.45588303052E+03 -0.82548449248E+03 -0.13280569617E+04  0.16312601777E+04  0.89557182131E+02 0.  0.
        254    2    1    2    0    0  0.45588303052E+03  0.82548449248E+03 -0.14227986206E+04  0.19286778538E+04  0.89787992753E+03 0.  0.
        -24    2    4    4    0    0  0.47537350041E+03  0.99886034920E+03 -0.11780740425E+04  0.16181452839E+04  0.82666487328E+02 0.  0.
         24    2    4    4    0    0 -0.19490469897E+02 -0.17337585672E+03 -0.24472457810E+03  0.31053256993E+03  0.78110765907E+02 0.  0.
         11    1    3    3    0    0 -0.19092065334E+02 -0.65807569441E+02 -0.68738420965E+02  0.97057270058E+02  0.00000000000E+00 0. -1.
        -11    1    3    3    0    0 -0.43679096518E+03 -0.75967692304E+03 -0.12593185407E+04  0.15342029076E+04  0.00000000000E+00 0.  1.
          4    1    6    6  502    0 -0.91549187328E+01 -0.17896362186E+03 -0.22593656138E+03  0.28837323083E+03  0.00000000000E+00 0. -1.
          3    1    5    5  503    0  0.28267554095E+03  0.58260610403E+03 -0.63006575047E+03  0.90350328378E+03  0.00000000000E+00 0. -1.
         -4    1    5    5    0  503  0.19269795947E+03  0.41625424517E+03 -0.54800829199E+03  0.71464200009E+03  0.00000000000E+00 0.  1.
         -3    1    6    6    0  502 -0.10335551164E+02  0.55877651479E+01 -0.18788016721E+02  0.22159339104E+02  0.00000000000E+00 0.  1.
<mgrwt>
<rscale>  0 0.22596354E+04</rscale>
<asrwt>0</asrwt>
<pdfrwt beam="1">  1        2 0.48544569E+00 0.22596354E+04</pdfrwt>
<pdfrwt beam="2">  1       -2 0.62237108E-01 0.22596354E+04</pdfrwt>
<totfact> 0.30258724E+00</totfact>
</mgrwt>
</event>
<event>
12    1  0.1496989E-007  0.2079094E+04  0.7818608E-02  0.8570509E-01
         -1   -1    0    0    0  501 -0.00000000000E+00  0.00000000000E+00  0.91916313741E+03  0.91916313741E+03  0.00000000000E+00 0.  1.
          1   -1    0    0  501    0  0.00000000000E+00 -0.00000000000E+00 -0.11756971177E+04  0.11756971177E+04  0.00000000000E+00 0. -1.
         23    2    1    2    0    0  0.79812226607E+01 -0.66449927140E+03  0.41371671304E+03  0.78838974626E+03  0.93669054423E+02 0.  0.
        254    2    1    2    0    0 -0.79812226607E+01  0.66449927140E+03 -0.67025069329E+03  0.13064705088E+04  0.90333062437E+03 0.  0.
        -24    2    4    4    0    0  0.27542922683E+03  0.42114095537E+03 -0.76057629248E+03  0.91542993582E+03  0.79465133451E+02 0.  0.
         24    2    4    4    0    0 -0.28341044949E+03  0.24335831602E+03  0.90325599188E+02  0.39104057299E+03  0.72175224226E+02 0.  0.
         11    1    3    3    0    0 -0.24468732165E+02 -0.19658041730E+03  0.16303839946E+03  0.25656207634E+03  0.00000000000E+00 0. -1.
        -11    1    3    3    0    0  0.32449954826E+02 -0.46791885410E+03  0.25067831358E+03  0.53182766992E+03  0.00000000000E+00 0.  1.
          2    1    6    6  502    0 -0.20924178150E+03  0.13525565653E+03  0.52925148925E+02  0.25471020226E+03  0.00000000000E+00 0. -1.
          3    1    5    5  503    0  0.25114574954E+03  0.36967836565E+03 -0.62457635013E+03  0.76800514235E+03  0.00000000000E+00 0. -1.
         -4    1    5    5    0  503  0.24283477295E+02  0.51462589724E+02 -0.13599994235E+03  0.14742479347E+03  0.00000000000E+00 0.  1.
         -1    1    6    6    0  502 -0.74168667995E+02  0.10810265949E+03  0.37400450263E+02  0.13633037072E+03  0.00000000000E+00 0.  1.
<mgrwt>
<rscale>  0 0.20790935E+04</rscale>
<asrwt>0</asrwt>
<pdfrwt beam="1">  1        1 0.18087648E+00 0.20790935E+04</pdfrwt>
<pdfrwt beam="2">  1       -1 0.14140971E+00 0.20790935E+04</pdfrwt>
<totfact> 0.41886595E+00</totfact>
</mgrwt>
</event>
<event>
12    1  0.1496989E-007  0.1425606E+04  0.7818608E-02  0.8935489E-01
          1   -1    0    0  501    0  0.00000000000E+00  0.00000000000E+00  0.12937472201E+04  0.12937472201E+04  0.00000000000E+00 0. -1.
         -1   -1    0    0    0  501 -0.00000000000E+00 -0.00000000000E+00 -0.39272596416E+03  0.39272596416E+03  0.00000000000E+00 0.  1.
         23    2    1    2    0    0 -0.27068690017E+03  0.19809480699E+03 -0.30376556493E+02  0.34909130450E+03  0.91809875353E+02 0.  0.
        254    2    1    2    0    0  0.27068690017E+03 -0.19809480699E+03  0.93139781240E+03  0.13373818797E+04  0.89920823883E+03 0.  0.
        -24    2    4    4    0    0  0.17178967399E+03 -0.50660814323E+03  0.82536101037E+03  0.98710758839E+03  0.83648614679E+02 0.  0.
         24    2    4    4    0    0  0.98897226176E+02  0.30851333624E+03  0.10603680203E+03  0.35027429133E+03  0.80542757581E+02 0.  0.
         11    1    3    3    0    0 -0.18394904777E+03  0.11598990238E+03  0.22202547099E+02  0.21859520289E+03  0.00000000000E+00 0.  1.
        -11    1    3    3    0    0 -0.86737852397E+02  0.82104904611E+02 -0.52579103592E+02  0.13049610161E+03  0.00000000000E+00 0. -1.
          2    1    6    6  502    0  0.72166710636E+02  0.27909307109E+03  0.11353268068E+03  0.30982357244E+03  0.00000000000E+00 0. -1.
          3    1    5    5  503    0  0.10393902561E+03 -0.41244071157E+03  0.65340340373E+03  0.77964522034E+03  0.00000000000E+00 0. -1.
         -4    1    5    5    0  503  0.67850648390E+02 -0.94167431667E+02  0.17195760664E+03  0.20746236804E+03  0.00000000000E+00 0.  1.
         -1    1    6    6    0  502  0.26730515540E+02  0.29420265153E+02 -0.74958786460E+01  0.40450718898E+02  0.00000000000E+00 0.  1.
<mgrwt>
<rscale>  0 0.14256060E+04</rscale>
<asrwt>0</asrwt>
<pdfrwt beam="1">  1        1 0.19903803E+00 0.14256060E+04</pdfrwt>
<pdfrwt beam="2">  1       -1 0.60419380E-01 0.14256060E+04</pdfrwt>
<totfact> 0.24703986E+01</totfact>
</mgrwt>
</event>
<event>
12    1  0.1496989E-007  0.2436193E+04  0.7818608E-02  0.8426076E-01
         -1   -1    0    0    0  501 -0.00000000000E+00  0.00000000000E+00  0.52645128070E+03  0.52645128070E+03  0.00000000000E+00 0.  1.
          1   -1    0    0  501    0  0.00000000000E+00 -0.00000000000E+00 -0.28184164282E+04  0.28184164282E+04  0.00000000000E+00 0. -1.
         23    2    1    2    0    0  0.52967929834E+03  0.85443822221E+03 -0.14099024840E+04  0.17345084748E+04  0.10034839253E+03 0.  0.
        254    2    1    2    0    0 -0.52967929834E+03 -0.85443822221E+03 -0.88206266345E+03  0.16103592341E+04  0.89699358190E+03 0.  0.
        -24    2    4    4    0    0 -0.53769875777E+03 -0.74959392709E+03 -0.10480538379E+04  0.13981744218E+04  0.73917906253E+02 0.  0.
         24    2    4    4    0    0  0.80194594356E+01 -0.10484429513E+03  0.16599117450E+03  0.21218481233E+03  0.80079252126E+02 0.  0.
         13    1    3    3    0    0  0.29745429696E+03  0.45471396015E+03 -0.84406698779E+03  0.10038390928E+04  0.00000000000E+00 0. -1.
        -13    1    3    3    0    0  0.23222500138E+03  0.39972426207E+03 -0.56583549623E+03  0.73066938197E+03  0.00000000000E+00 0.  1.
          2    1    6    6  502    0  0.42841312582E+02 -0.65897837588E+02  0.11408164586E+03  0.13853708884E+03  0.00000000000E+00 0. -1.
          3    1    5    5  503    0 -0.90961044556E+02 -0.11734762395E+03 -0.13054572806E+03  0.19770322099E+03  0.00000000000E+00 0. -1.
         -4    1    5    5    0  503 -0.44673771322E+03 -0.63224630313E+03 -0.91750810989E+03  0.12004712008E+04  0.00000000000E+00 0.  1.
         -1    1    6    6    0  502 -0.34821853147E+02 -0.38946457539E+02  0.51909528642E+02  0.73647723490E+02  0.00000000000E+00 0.  1.
<mgrwt>
<rscale>  0 0.24361929E+04</rscale>
<asrwt>0</asrwt>
<pdfrwt beam="1">  1        1 0.43360253E+00 0.24361929E+04</pdfrwt>
<pdfrwt beam="2">  1       -1 0.80992503E-01 0.24361929E+04</pdfrwt>
<totfact> 0.10973061E+00</totfact>
</mgrwt>
</event>
<event>
12    1  0.1496989E-007  0.2327414E+04  0.7818608E-02  0.8467190E-01
         -1   -1    0    0    0  501 -0.00000000000E+00  0.00000000000E+00  0.99385057082E+03  0.99385057082E+03  0.00000000000E+00 0.  1.
          1   -1    0    0  501    0  0.00000000000E+00 -0.00000000000E+00 -0.13625925685E+04  0.13625925685E+04  0.00000000000E+00 0. -1.
         23    2    1    2    0    0  0.23988296849E+03 -0.31709609943E+02 -0.11247069057E+04  0.11541577966E+04  0.92548677773E+02 0.  0.
        254    2    1    2    0    0 -0.23988296849E+03  0.31709609943E+02  0.75596490810E+03  0.12022853427E+04  0.90302700124E+03 0.  0.
        -24    2    4    4    0    0 -0.30453413338E+03 -0.21172895932E+03 -0.22552396094E+02  0.38015152932E+03  0.80227078158E+02 0.  0.
         24    2    4    4    0    0  0.64651164893E+02  0.24343856926E+03  0.77851730419E+03  0.82213381333E+03  0.79829217576E+02 0.  0.
         11    1    3    3    0    0  0.13990471420E+03 -0.61570324205E+02 -0.59892937686E+03  0.61812671220E+03  0.00000000000E+00 0. -1.
        -11    1    3    3    0    0  0.99978254283E+02  0.29860714262E+02 -0.52577752889E+03  0.53603108442E+03  0.00000000000E+00 0.  1.
          2    1    6    6  502    0  0.76566437920E+02  0.13953567664E+03  0.44531609976E+03  0.47290490923E+03  0.00000000000E+00 0. -1.
          3    1    5    5  503    0 -0.20889330269E+03 -0.17049969372E+03  0.13393098811E+02  0.26997394793E+03  0.00000000000E+00 0. -1.
         -4    1    5    5    0  503 -0.95640830693E+02 -0.41229265599E+02 -0.35945494905E+02  0.11017758139E+03  0.00000000000E+00 0.  1.
         -1    1    6    6    0  502 -0.11915273027E+02  0.10390289262E+03  0.33320120443E+03  0.34922890411E+03  0.00000000000E+00 0.  1.
<mgrwt>
<rscale>  0 0.23274135E+04</rscale>
<asrwt>0</asrwt>
<pdfrwt beam="1">  1        1 0.20962963E+00 0.23274135E+04</pdfrwt>
<pdfrwt beam="2">  1       -1 0.15290009E+00 0.23274135E+04</pdfrwt>
<totfact> 0.24387756E+00</totfact>
</mgrwt>
</event>
<event>
12    1  0.1496989E-007  0.1694460E+04  0.7818608E-02  0.8764530E-01
          1   -1    0    0  501    0  0.00000000000E+00  0.00000000000E+00  0.21012236029E+04  0.21012236029E+04  0.00000000000E+00 0. -1.
         -1   -1    0    0    0  501 -0.00000000000E+00 -0.00000000000E+00 -0.34160975005E+03  0.34160975005E+03  0.00000000000E+00 0.  1.
         23    2    1    2    0    0  0.41903304148E+02 -0.58512253072E+03  0.44785214546E+03  0.74426996780E+03  0.96135206454E+02 0.  0.
        254    2    1    2    0    0 -0.41903304148E+02  0.58512253072E+03  0.13117617074E+04  0.16985633852E+04  0.90569008693E+03 0.  0.
        -24    2    4    4    0    0  0.14749633094E+02  0.22756128793E+03 -0.82788372936E+02  0.25571565663E+03  0.80838672129E+02 0.  0.
         24    2    4    4    0    0 -0.56652937243E+02  0.35756124279E+03  0.13945500804E+04  0.14428477286E+04  0.77330741051E+02 0.  0.
         13    1    3    3    0    0  0.32082190694E+02 -0.52022305914E+03  0.35525109732E+03  0.63076512298E+03  0.00000000000E+00 0.  1.
        -13    1    3    3    0    0  0.98211134541E+01 -0.64899471581E+02  0.92601048140E+02  0.11350484482E+03  0.00000000000E+00 0. -1.
          2    1    6    6  502    0 -0.18768148366E+02  0.16580316584E+03  0.79199356729E+03  0.80938046914E+03  0.00000000000E+00 0. -1.
          1    1    5    5  503    0 -0.16329548430E+02  0.43333512841E+02  0.95951495283E+01  0.47291800362E+02  0.00000000000E+00 0. -1.
         -2    1    5    5    0  503  0.31079181525E+02  0.18422777509E+03 -0.92383522464E+02  0.20842385626E+03  0.00000000000E+00 0.  1.
         -1    1    6    6    0  502 -0.37884788877E+02  0.19175807696E+03  0.60255651308E+03  0.63346725942E+03  0.00000000000E+00 0.  1.
<mgrwt>
<rscale>  0 0.16944598E+04</rscale>
<asrwt>0</asrwt>
<pdfrwt beam="1">  1        1 0.32326516E+00 0.16944598E+04</pdfrwt>
<pdfrwt beam="2">  1       -1 0.52555347E-01 0.16944598E+04</pdfrwt>
<totfact> 0.88386766E+00</totfact>
</mgrwt>
</event>
<event>
12    1  0.1496989E-007  0.1955183E+04  0.7818608E-02  0.8627865E-01
          2   -1    0    0  501    0  0.00000000000E+00  0.00000000000E+00  0.75301367109E+03  0.75301367109E+03  0.00000000000E+00 0. -1.
         -2   -1    0    0    0  501 -0.00000000000E+00 -0.00000000000E+00 -0.12691472549E+04  0.12691472549E+04  0.00000000000E+00 0.  1.
         23    2    1    2    0    0 -0.18040447974E+03 -0.55963748635E+03  0.30726819572E+03  0.66931328790E+03  0.88468304074E+02 0.  0.
        254    2    1    2    0    0  0.18040447974E+03  0.55963748635E+03 -0.82340177956E+03  0.13528476381E+04  0.89803471478E+03 0.  0.
        -24    2    4    4    0    0  0.25550908135E+02  0.71078241423E+03 -0.29025645276E+03  0.77197264900E+03  0.76344437606E+02 0.  0.
         24    2    4    4    0    0  0.15485357161E+03 -0.15114492789E+03 -0.53314532681E+03  0.58087498912E+03  0.79670544255E+02 0.  0.
         11    1    3    3    0    0 -0.49397647146E+02 -0.67970435094E+02  0.26155163196E+02  0.88001137221E+02  0.00000000000E+00 0.  1.
        -11    1    3    3    0    0 -0.13100683260E+03 -0.49166705125E+03  0.28111303253E+03  0.58131215068E+03  0.00000000000E+00 0. -1.
          2    1    6    6  502    0  0.13130084852E+03 -0.12130008212E+03 -0.49796139336E+03  0.52907388144E+03  0.00000000000E+00 0. -1.
          3    1    5    5  503    0 -0.81601344851E+01  0.57878722291E+03 -0.22687323629E+03  0.62171754241E+03  0.00000000000E+00 0. -1.
         -4    1    5    5    0  503  0.33711042620E+02  0.13199519132E+03 -0.63383216472E+02  0.15025510659E+03  0.00000000000E+00 0.  1.
         -1    1    6    6    0  502  0.23552723089E+02 -0.29844845771E+02 -0.35183933442E+02  0.51801107675E+02  0.00000000000E+00 0.  1.
<mgrwt>
<rscale>  0 0.19551831E+04</rscale>
<asrwt>0</asrwt>
<pdfrwt beam="1">  1        2 0.11584826E+00 0.19551831E+04</pdfrwt>
<pdfrwt beam="2">  1       -2 0.19525342E+00 0.19551831E+04</pdfrwt>
<totfact> 0.49698229E+00</totfact>
</mgrwt>
</event>
<event>
12    1  0.1496989E-007  0.1682818E+04  0.7818608E-02  0.8771225E-01
          2   -1    0    0  501    0  0.00000000000E+00  0.00000000000E+00  0.20547040568E+04  0.20547040568E+04  0.00000000000E+00 0. -1.
         -2   -1    0    0    0  501 -0.00000000000E+00 -0.00000000000E+00 -0.34456016310E+03  0.34456016310E+03  0.00000000000E+00 0.  1.
         23    2    1    2    0    0  0.45121453564E+03 -0.38174420149E+03  0.72168556865E+03  0.93694823840E+03  0.87856410748E+02 0.  0.
        254    2    1    2    0    0 -0.45121453564E+03  0.38174420149E+03  0.98845832508E+03  0.14623159815E+04  0.90110763889E+03 0.  0.
        -24    2    4    4    0    0 -0.70485482854E+03  0.30930077461E+03  0.56995816930E+03  0.96113606598E+03  0.80267827264E+02 0.  0.
         24    2    4    4    0    0  0.25364029290E+03  0.72443426879E+02  0.41850015577E+03  0.50117991554E+03  0.80358441240E+02 0.  0.
         13    1    3    3    0    0  0.27340015072E+03 -0.27788554991E+03  0.50590741700E+03  0.63867858570E+03  0.00000000000E+00 0. -1.
        -13    1    3    3    0    0  0.17781438492E+03 -0.10385865158E+03  0.21577815165E+03  0.29826965270E+03  0.00000000000E+00 0.  1.
          4    1    6    6  502    0  0.15121989786E+03  0.66652662858E+02  0.31347527057E+03  0.35436814224E+03  0.00000000000E+00 0. -1.
          1    1    5    5  503    0 -0.33416573493E+03  0.16699514506E+03  0.32047737571E+03  0.49219900977E+03  0.00000000000E+00 0. -1.
         -2    1    5    5    0  503 -0.37068909360E+03  0.14230562955E+03  0.24948079359E+03  0.46893705621E+03  0.00000000000E+00 0.  1.
         -3    1    6    6    0  502  0.10242039504E+03  0.57907640209E+01  0.10502488520E+03  0.14681177329E+03  0.00000000000E+00 0.  1.
<mgrwt>
<rscale>  0 0.16828181E+04</rscale>
<asrwt>0</asrwt>
<pdfrwt beam="1">  1        2 0.31610831E+00 0.16828181E+04</pdfrwt>
<pdfrwt beam="2">  1       -2 0.53009257E-01 0.16828181E+04</pdfrwt>
<totfact> 0.19920776E+01</totfact>
</mgrwt>
</event>
<event>
12    1  0.1496989E-007  0.2178373E+04  0.7818608E-02  0.8527484E-01
          1   -1    0    0  501    0  0.00000000000E+00  0.00000000000E+00  0.35318008395E+04  0.35318008395E+04  0.00000000000E+00 0. -1.
         -1   -1    0    0    0  501 -0.00000000000E+00 -0.00000000000E+00 -0.33589853096E+03  0.33589853096E+03  0.00000000000E+00 0.  1.
         23    2    1    2    0    0 -0.88232382537E+03 -0.50496214508E+02  0.99121200533E+03  0.13311134899E+04  0.91195850172E+02 0.  0.
        254    2    1    2    0    0  0.88232382537E+03  0.50496214508E+02  0.22046903032E+04  0.25365858805E+04  0.89026029662E+03 0.  0.
        -24    2    4    4    0    0  0.97902603804E+03 -0.11396261357E+03  0.20572622908E+04  0.22826916584E+04  0.82907260049E+02 0.  0.
         24    2    4    4    0    0 -0.96702212672E+02  0.16445882808E+03  0.14742801242E+03  0.25389422213E+03  0.79556477521E+02 0.  0.
         11    1    3    3    0    0 -0.29481723820E+03 -0.44613692627E+02  0.38416981556E+03  0.48630652133E+03  0.00000000000E+00 0. -1.
        -11    1    3    3    0    0 -0.58750658717E+03 -0.58825218811E+01  0.60704218977E+03  0.84480696860E+03  0.00000000000E+00 0.  1.
          2    1    6    6  502    0  0.96145615975E+01  0.37782987828E+02  0.44223943644E+02  0.58955501485E+02  0.00000000000E+00 0. -1.
          1    1    5    5  503    0  0.66164539264E+02 -0.29185155993E+02  0.14747892060E+03  0.16425453299E+03  0.00000000000E+00 0. -1.
         -2    1    5    5    0  503  0.91286149878E+03 -0.84777457581E+02  0.19097833702E+04  0.21184371254E+04  0.00000000000E+00 0.  1.
         -1    1    6    6    0  502 -0.10631677427E+03  0.12667584025E+03  0.10320406878E+03  0.19493872065E+03  0.00000000000E+00 0.  1.
<mgrwt>
<rscale>  0 0.21783725E+04</rscale>
<asrwt>0</asrwt>
<pdfrwt beam="1">  1        1 0.54335395E+00 0.21783725E+04</pdfrwt>
<pdfrwt beam="2">  1       -1 0.51676699E-01 0.21783725E+04</pdfrwt>
<totfact> 0.81424312E-01</totfact>
</mgrwt>
</event>
<event>
12    1  0.1496989E-007  0.1125066E+04  0.7818608E-02  0.9181099E-01
         -1   -1    0    0    0  501 -0.00000000000E+00  0.00000000000E+00  0.42931727068E+03  0.42931727068E+03  0.00000000000E+00 0.  1.
          1   -1    0    0  501    0  0.00000000000E+00 -0.00000000000E+00 -0.73708570778E+03  0.73708570778E+03  0.00000000000E+00 0. -1.
         23    2    1    2    0    0  0.12924011795E+03 -0.13577147503E+03 -0.19943549777E+02  0.22068618869E+03  0.11475080471E+03 0.  0.
        254    2    1    2    0    0 -0.12924011795E+03  0.13577147503E+03 -0.28782488733E+03  0.94571678977E+03  0.88113573255E+03 0.  0.
        -24    2    4    4    0    0 -0.67568801137E+02  0.44688406511E+03  0.66137007660E+02  0.46384228479E+03  0.80651415576E+02 0.  0.
         24    2    4    4    0    0 -0.61671316808E+02 -0.31111259008E+03 -0.35396189499E+03  0.48187450499E+03  0.79496040326E+02 0.  0.
         11    1    3    3    0    0 -0.21505884231E+02 -0.12125143518E+02  0.11190004805E+00  0.24688756217E+02  0.00000000000E+00 0.  1.
        -11    1    3    3    0    0  0.15074600218E+03 -0.12364633151E+03 -0.20055449825E+02  0.19599743247E+03  0.00000000000E+00 0. -1.
          2    1    6    6  502    0 -0.68384869543E+02 -0.30976474207E+03 -0.35356626638E+03  0.47501556873E+03  0.00000000000E+00 0. -1.
          3    1    5    5  503    0 -0.44323045465E+02  0.41413491126E+03  0.73715009415E+02  0.42297300114E+03  0.00000000000E+00 0. -1.
         -2    1    5    5    0  503 -0.23245755672E+02  0.32749153856E+02 -0.75780017553E+01  0.40869283645E+02  0.00000000000E+00 0.  1.
         -1    1    6    6    0  502  0.67135527355E+01 -0.13478480127E+01 -0.39562860793E+00  0.68589362581E+01  0.00000000000E+00 0.  1.
<mgrwt>
<rscale>  0 0.11250664E+04</rscale>
<asrwt>0</asrwt>
<pdfrwt beam="1">  1        1 0.11339780E+00 0.11250664E+04</pdfrwt>
<pdfrwt beam="2">  1       -1 0.66048812E-01 0.11250664E+04</pdfrwt>
<totfact> 0.58176210E+01</totfact>
</mgrwt>
</event>
<event>
12    1  0.1496989E-007  0.2283625E+04  0.7818608E-02  0.8484406E-01
         -1   -1    0    0    0  501 -0.00000000000E+00  0.00000000000E+00  0.19874633524E+04  0.19874633524E+04  0.00000000000E+00 0.  1.
          1   -1    0    0  501    0  0.00000000000E+00 -0.00000000000E+00 -0.65597959995E+03  0.65597959995E+03  0.00000000000E+00 0. -1.
         23    2    1    2    0    0  0.64060723774E+03 -0.51387069478E+03 -0.34224312672E+02  0.82732621465E+03  0.94109711843E+02 0.  0.
        254    2    1    2    0    0 -0.64060723774E+03  0.51387069478E+03  0.13657080651E+04  0.18161167377E+04  0.87102282510E+03 0.  0.
        -24    2    4    4    0    0 -0.22624429007E+03  0.22618310387E+03  0.12495907404E+04  0.12923946321E+04  0.80384023284E+02 0.  0.
         24    2    4    4    0    0 -0.41436294767E+03  0.28768759091E+03  0.11611732475E+03  0.52372210567E+03  0.79629193763E+02 0.  0.
         13    1    3    3    0    0  0.80203263081E+02 -0.50590230883E+02  0.24239203673E+02  0.97874786663E+02  0.00000000000E+00 0. -1.
        -13    1    3    3    0    0  0.56040397466E+03 -0.46328046390E+03 -0.58463516345E+02  0.72945142798E+03  0.00000000000E+00 0.  1.
          4    1    6    6  502    0 -0.38031158895E+03  0.24843117142E+03  0.12466073820E+03  0.47105758806E+03  0.00000000000E+00 0. -1.
          3    1    5    5  503    0 -0.14157498148E+03  0.18866250691E+03  0.94808853839E+03  0.97698971003E+03  0.00000000000E+00 0. -1.
         -4    1    5    5    0  503 -0.84669308597E+02  0.37520596959E+02  0.30150220201E+03  0.31540492202E+03  0.00000000000E+00 0.  1.
         -3    1    6    6    0  502 -0.34051358721E+02  0.39256419493E+02 -0.85434134500E+01  0.52664517614E+02  0.00000000000E+00 0.  1.
<mgrwt>
<rscale>  0 0.22836247E+04</rscale>
<asrwt>0</asrwt>
<pdfrwt beam="1">  1        1 0.10091994E+00 0.22836247E+04</pdfrwt>
<pdfrwt beam="2">  1       -1 0.30576359E+00 0.22836247E+04</pdfrwt>
<totfact> 0.82424719E-01</totfact>
</mgrwt>
</event>
<event>
12    1  0.1496989E-007  0.1546946E+04  0.7818608E-02  0.8853821E-01
          2   -1    0    0  501    0  0.00000000000E+00  0.00000000000E+00  0.74548577860E+03  0.74548577860E+03  0.00000000000E+00 0. -1.
         -2   -1    0    0    0  501 -0.00000000000E+00 -0.00000000000E+00 -0.80251041015E+03  0.80251041015E+03  0.00000000000E+00 0.  1.
         23    2    1    2    0    0  0.17409684294E+03 -0.29073501228E+03 -0.39263094945E+03  0.52631241639E+03  0.89493793610E+02 0.  0.
        254    2    1    2    0    0 -0.17409684294E+03  0.29073501228E+03  0.33560631790E+03  0.10216837724E+04  0.90353172165E+03 0.  0.
        -24    2    4    4    0    0  0.12096457509E+03 -0.11317785681E+03 -0.20827442679E+03  0.27821554459E+03  0.81141830752E+02 0.  0.
         24    2    4    4    0    0 -0.29506141803E+03  0.40391286909E+03  0.54388074469E+03  0.74346822778E+03  0.82048126464E+02 0.  0.
         13    1    3    3    0    0  0.15318417380E+03 -0.29177412359E+03 -0.37026155265E+03  0.49567241972E+03  0.00000000000E+00 0.  1.
        -13    1    3    3    0    0  0.20912669139E+02  0.10391113107E+01 -0.22369396797E+02  0.30639996669E+02  0.00000000000E+00 0. -1.
          2    1    6    6  502    0 -0.22098177523E+02  0.75918332680E+02  0.68000611811E+02  0.10428809085E+03  0.00000000000E+00 0. -1.
          3    1    5    5  503    0  0.34671081525E+02 -0.71539300035E+02 -0.52288073654E+02  0.95152498601E+02  0.00000000000E+00 0. -1.
         -4    1    5    5    0  503  0.86293493565E+02 -0.41638556775E+02 -0.15598635313E+03  0.18306304598E+03  0.00000000000E+00 0.  1.
         -1    1    6    6    0  502 -0.27296324051E+03  0.32799453641E+03  0.47588013287E+03  0.63918013693E+03  0.00000000000E+00 0.  1.
<mgrwt>
<rscale>  0 0.15469455E+04</rscale>
<asrwt>0</asrwt>
<pdfrwt beam="1">  1        2 0.11469012E+00 0.15469455E+04</pdfrwt>
<pdfrwt beam="2">  1       -2 0.12346314E+00 0.15469455E+04</pdfrwt>
<totfact> 0.17995101E+01</totfact>
</mgrwt>
</event>
<event>
12    1  0.1496989E-007  0.1666831E+04  0.7818608E-02  0.8780511E-01
         -1   -1    0    0    0  501 -0.00000000000E+00  0.00000000000E+00  0.53240196078E+03  0.53240196078E+03  0.00000000000E+00 0.  1.
          1   -1    0    0  501    0  0.00000000000E+00 -0.00000000000E+00 -0.13046181572E+04  0.13046181572E+04  0.00000000000E+00 0. -1.
         23    2    1    2    0    0  0.19783306782E+03 -0.28087069801E+03 -0.78792980188E+03  0.86454745655E+03  0.92642647853E+02 0.  0.
        254    2    1    2    0    0 -0.19783306782E+03  0.28087069801E+03  0.15713605511E+02  0.97247266138E+03  0.90963173209E+03 0.  0.
        -24    2    4    4    0    0  0.15356340401E+03 -0.41152493791E+02  0.34479601661E+03  0.38809864965E+03  0.80380482665E+02 0.  0.
         24    2    4    4    0    0 -0.35139647183E+03  0.32202319180E+03 -0.32908241110E+03  0.58437401173E+03  0.77584378723E+02 0.  0.
         13    1    3    3    0    0  0.22322000200E+02 -0.17485375975E+02 -0.22291955477E+02  0.36068564497E+02  0.00000000000E+00 0.  1.
        -13    1    3    3    0    0  0.17551106762E+03 -0.26338532203E+03 -0.76563784641E+03  0.82847889205E+03  0.00000000000E+00 0. -1.
          2    1    6    6  502    0 -0.27026533371E+03  0.22512684225E+03 -0.20429364056E+03  0.40676939079E+03  0.00000000000E+00 0. -1.
          1    1    5    5  503    0  0.14970016660E+03 -0.56578256247E+02  0.29224388234E+03  0.33319322581E+03  0.00000000000E+00 0. -1.
         -2    1    5    5    0  503  0.38632374080E+01  0.15425762457E+02  0.52552134273E+02  0.54905423842E+02  0.00000000000E+00 0.  1.
         -1    1    6    6    0  502 -0.81131138114E+02  0.96896349551E+02 -0.12478877054E+03  0.17760462094E+03  0.00000000000E+00 0.  1.
<mgrwt>
<rscale>  0 0.16668308E+04</rscale>
<asrwt>0</asrwt>
<pdfrwt beam="1">  1        1 0.20071048E+00 0.16668308E+04</pdfrwt>
<pdfrwt beam="2">  1       -1 0.81907995E-01 0.16668308E+04</pdfrwt>
<totfact> 0.12705790E+01</totfact>
</mgrwt>
</event>
<event>
12    1  0.1496989E-007  0.3075527E+04  0.7818608E-02  0.8222487E-01
         -1   -1    0    0    0  501 -0.00000000000E+00  0.00000000000E+00  0.66177417014E+03  0.66177417014E+03  0.00000000000E+00 0.  1.
          1   -1    0    0  501    0  0.00000000000E+00 -0.00000000000E+00 -0.35732972458E+04  0.35732972458E+04  0.00000000000E+00 0. -1.
         23    2    1    2    0    0 -0.11584955862E+04 -0.50073937797E+03 -0.21751841900E+04  0.25163084422E+04  0.86775387524E+02 0.  0.
        254    2    1    2    0    0  0.11584955862E+04  0.50073937797E+03 -0.73633888565E+03  0.17187629737E+04  0.90504102523E+03 0.  0.
        -24    2    4    4    0    0  0.39070908642E+03  0.18327435897E+03  0.18339891851E+03  0.47683971709E+03  0.86590251262E+02 0.  0.
         24    2    4    4    0    0  0.76778649982E+03  0.31746501900E+03 -0.91973780416E+03  0.12419232566E+04  0.78584982000E+02 0.  0.
         13    1    3    3    0    0 -0.82596727973E+02 -0.30618330446E+02 -0.11274991432E+03  0.14308125247E+03  0.00000000000E+00 0.  1.
        -13    1    3    3    0    0 -0.10758988583E+04 -0.47012104752E+03 -0.20624342757E+04  0.23732271898E+04  0.00000000000E+00 0. -1.
          2    1    6    6  502    0  0.22376343089E+03  0.10843930820E+03 -0.32532006078E+03  0.40946586978E+03  0.00000000000E+00 0. -1.
          3    1    5    5  503    0  0.11317147614E+02  0.55654971943E+01 -0.93280039945E+01  0.15686435148E+02  0.00000000000E+00 0. -1.
         -4    1    5    5    0  503  0.37939193881E+03  0.17770886178E+03  0.19272692250E+03  0.46115328194E+03  0.00000000000E+00 0.  1.
         -1    1    6    6    0  502  0.54402306893E+03  0.20902571079E+03 -0.59441774338E+03  0.83245738686E+03  0.00000000000E+00 0.  1.
<mgrwt>
<rscale>  0 0.30755265E+04</rscale>
<asrwt>0</asrwt>
<pdfrwt beam="1">  1        1 0.54973803E+00 0.30755265E+04</pdfrwt>
<pdfrwt beam="2">  1       -1 0.10181141E+00 0.30755265E+04</pdfrwt>
<totfact> 0.16882007E-01</totfact>
</mgrwt>
</event>
<event>
12    1  0.1496989E-007  0.2380108E+04  0.7818608E-02  0.8446989E-01
         -2   -1    0    0    0  501 -0.00000000000E+00  0.00000000000E+00  0.89969479387E+03  0.89969479387E+03  0.00000000000E+00 0.  1.
          2   -1    0    0  501    0  0.00000000000E+00 -0.00000000000E+00 -0.15741208119E+04  0.15741208119E+04  0.00000000000E+00 0. -1.
         23    2    1    2    0    0 -0.92373737142E+03 -0.36229895192E+03 -0.32133196299E+02  0.99696754128E+03  0.91435628479E+02 0.  0.
        254    2    1    2    0    0  0.92373737142E+03  0.36229895192E+03 -0.64229282169E+03  0.14768480644E+04  0.88543146249E+03 0.  0.
        -24    2    4    4    0    0  0.19661310484E+02  0.29922610196E+03 -0.45063491304E+03  0.54714113086E+03  0.79804542563E+02 0.  0.
         24    2    4    4    0    0  0.90407606093E+03  0.63072849960E+02 -0.19165790865E+03  0.92970693358E+03  0.79312798778E+02 0.  0.
         11    1    3    3    0    0 -0.82288261190E+03 -0.33716343525E+03 -0.39965073549E+01  0.88928676315E+03  0.00000000000E+00 0.  1.
        -11    1    3    3    0    0 -0.10085475951E+03 -0.25135516667E+02 -0.28136688944E+02  0.10768077813E+03  0.00000000000E+00 0. -1.
          2    1    6    6  502    0  0.56979459526E+03  0.13240210020E+01 -0.12146152730E+03  0.58259809169E+03  0.00000000000E+00 0. -1.
          1    1    5    5  503    0  0.47891367194E+02  0.18589659361E+03 -0.25313515747E+03  0.31769251568E+03  0.00000000000E+00 0. -1.
         -2    1    5    5    0  503 -0.28230056711E+02  0.11332950834E+03 -0.19749975556E+03  0.22944861519E+03  0.00000000000E+00 0.  1.
         -1    1    6    6    0  502  0.33428146567E+03  0.61748828958E+02 -0.70196381345E+02  0.34710884189E+03  0.00000000000E+00 0.  1.
<mgrwt>
<rscale>  0 0.23801078E+04</rscale>
<asrwt>0</asrwt>
<pdfrwt beam="1">  1        2 0.24217243E+00 0.23801078E+04</pdfrwt>
<pdfrwt beam="2">  1       -2 0.13841458E+00 0.23801078E+04</pdfrwt>
<totfact> 0.38427428E+00</totfact>
</mgrwt>
</event>
<event>
12    1  0.1496989E-007  0.1255270E+04  0.7818608E-02  0.9065808E-01
          1   -1    0    0  501    0  0.00000000000E+00  0.00000000000E+00  0.61183178010E+03  0.61183178010E+03  0.00000000000E+00 0. -1.
         -1   -1    0    0    0  501 -0.00000000000E+00 -0.00000000000E+00 -0.64384652640E+03  0.64384652640E+03  0.00000000000E+00 0.  1.
         23    2    1    2    0    0  0.61034768644E+02  0.29114250790E+03  0.59941563676E+02  0.31725641280E+03  0.92571256424E+02 0.  0.
        254    2    1    2    0    0 -0.61034768644E+02 -0.29114250790E+03 -0.91956309974E+02  0.93842189371E+03  0.88526294667E+03 0.  0.
        -24    2    4    4    0    0 -0.30162366521E+03 -0.20564454800E+03  0.28962241923E+03  0.47241381936E+03  0.77634756802E+02 0.  0.
         24    2    4    4    0    0  0.24058889657E+03 -0.85497959903E+02 -0.38157872920E+03  0.46600807435E+03  0.79801506719E+02 0.  0.
         11    1    3    3    0    0  0.17347094672E+01  0.18411788779E+03  0.79051271892E+01  0.18429567780E+03  0.00000000000E+00 0.  1.
        -11    1    3    3    0    0  0.59300059177E+02  0.10702462011E+03  0.52036436487E+02  0.13296073500E+03  0.00000000000E+00 0. -1.
          2    1    6    6  502    0 -0.50873986781E+01 -0.53549098675E+01 -0.21969535231E+02  0.23177945622E+02  0.00000000000E+00 0. -1.
          1    1    5    5  503    0 -0.14474369299E+03 -0.55162987350E+02  0.10413473017E+03  0.18664869102E+03  0.00000000000E+00 0. -1.
         -2    1    5    5    0  503 -0.15687997222E+03 -0.15048156065E+03  0.18548768906E+03  0.28576512834E+03  0.00000000000E+00 0.  1.
         -1    1    6    6    0  502  0.24567629525E+03 -0.80143050036E+02 -0.35960919397E+03  0.44283012872E+03  0.00000000000E+00 0.  1.
<mgrwt>
<rscale>  0 0.12552701E+04</rscale>
<asrwt>0</asrwt>
<pdfrwt beam="1">  1        1 0.94127966E-01 0.12552701E+04</pdfrwt>
<pdfrwt beam="2">  1       -1 0.99053312E-01 0.12552701E+04</pdfrwt>
<totfact> 0.31983397E+01</totfact>
</mgrwt>
</event>
<event>
12    1  0.1496989E-007  0.2906247E+04  0.7818608E-02  0.8271021E-01
          2   -1    0    0  501    0  0.00000000000E+00  0.00000000000E+00  0.18737884332E+04  0.18737884332E+04  0.00000000000E+00 0. -1.
         -2   -1    0    0    0  501 -0.00000000000E+00 -0.00000000000E+00 -0.11268976625E+04  0.11268976625E+04  0.00000000000E+00 0.  1.
         23    2    1    2    0    0 -0.19071327304E+03  0.12886060271E+04  0.48990801526E+03  0.13947597797E+04  0.92021378907E+02 0.  0.
        254    2    1    2    0    0  0.19071327304E+03 -0.12886060271E+04  0.25698275538E+03  0.16059263160E+04  0.90337265304E+03 0.  0.
        -24    2    4    4    0    0 -0.27109769964E+03 -0.88467191962E+03 -0.18801136765E+02  0.92880991050E+03  0.78714668177E+02 0.  0.
         24    2    4    4    0    0  0.46181097269E+03 -0.40393410743E+03  0.27578389215E+03  0.67711640546E+03  0.77445036859E+02 0.  0.
         11    1    3    3    0    0 -0.15306804331E+02  0.52914783629E+02  0.33266742122E+01  0.55184593381E+02  0.00000000000E+00 0.  1.
        -11    1    3    3    0    0 -0.17540646871E+03  0.12356912434E+04  0.48658134105E+03  0.13395751863E+04  0.00000000000E+00 0. -1.
          4    1    6    6  502    0  0.10616804809E+03 -0.52892117276E+02  0.48556397693E+02  0.12816768025E+03  0.00000000000E+00 0. -1.
          3    1    5    5  503    0 -0.98761905297E+02 -0.41961363259E+03  0.18247632723E+02  0.43146551507E+03  0.00000000000E+00 0. -1.
         -4    1    5    5    0  503 -0.17233579435E+03 -0.46505828703E+03 -0.37048769488E+02  0.49734439543E+03  0.00000000000E+00 0.  1.
         -1    1    6    6    0  502  0.35564292460E+03 -0.35104199015E+03  0.22722749446E+03  0.54894872520E+03  0.00000000000E+00 0.  1.
<mgrwt>
<rscale>  0 0.29062469E+04</rscale>
<asrwt>0</asrwt>
<pdfrwt beam="1">  1        2 0.28827514E+00 0.29062469E+04</pdfrwt>
<pdfrwt beam="2">  1       -2 0.17336887E+00 0.29062469E+04</pdfrwt>
<totfact> 0.13666852E+00</totfact>
</mgrwt>
</event>
<event>
12    1  0.1496989E-007  0.1170980E+04  0.7818608E-02  0.9138644E-01
         -2   -1    0    0    0  501 -0.00000000000E+00  0.00000000000E+00  0.38704798808E+03  0.38704798808E+03  0.00000000000E+00 0.  1.
          2   -1    0    0  501    0  0.00000000000E+00 -0.00000000000E+00 -0.88567501399E+03  0.88567501399E+03  0.00000000000E+00 0. -1.
         23    2    1    2    0    0  0.21130310893E+03  0.71310450522E+02 -0.12199722543E+03  0.27037180691E+03  0.92105411143E+02 0.  0.
        254    2    1    2    0    0 -0.21130310893E+03 -0.71310450522E+02 -0.37662980048E+03  0.10023511952E+04  0.90173373433E+03 0.  0.
        -24    2    4    4    0    0  0.93396651274E+02 -0.42931722805E+03 -0.12779226613E+03  0.46451846424E+03  0.80064496254E+02 0.  0.
         24    2    4    4    0    0 -0.30469976021E+03  0.35800677753E+03 -0.24883753435E+03  0.53783273093E+03  0.79580973402E+02 0.  0.
         11    1    3    3    0    0  0.18898003161E+03  0.92285952651E+02 -0.11116090025E+03  0.23788000157E+03  0.00000000000E+00 0. -1.
        -11    1    3    3    0    0  0.22323077327E+02 -0.20975502129E+02 -0.10836325176E+02  0.32491805340E+02  0.00000000000E+00 0.  1.
          4    1    6    6  502    0 -0.10878949212E+03  0.18351949341E+03 -0.93368084788E+02  0.23287798804E+03  0.00000000000E+00 0. -1.
          1    1    5    5  503    0 -0.79147030099E+01 -0.31214309092E+01 -0.19240259409E+01  0.87228281238E+01  0.00000000000E+00 0. -1.
         -2    1    5    5    0  503  0.10131135428E+03 -0.42619579714E+03 -0.12586824019E+03  0.45579563611E+03  0.00000000000E+00 0.  1.
         -3    1    6    6    0  502 -0.19591026809E+03  0.17448728412E+03 -0.15546944956E+03  0.30495474289E+03  0.00000000000E+00 0.  1.
<mgrwt>
<rscale>  0 0.11709803E+04</rscale>
<asrwt>0</asrwt>
<pdfrwt beam="1">  1        2 0.13625769E+00 0.11709803E+04</pdfrwt>
<pdfrwt beam="2">  1       -2 0.59545844E-01 0.11709803E+04</pdfrwt>
<totfact> 0.78039143E+01</totfact>
</mgrwt>
</event>
<event>
12    1  0.1496989E-007  0.1341169E+04  0.7818608E-02  0.8997540E-01
          2   -1    0    0  501    0  0.00000000000E+00  0.00000000000E+00  0.10121606750E+04  0.10121606750E+04  0.00000000000E+00 0. -1.
         -2   -1    0    0    0  501 -0.00000000000E+00 -0.00000000000E+00 -0.44428090092E+03  0.44428090092E+03  0.00000000000E+00 0.  1.
         23    2    1    2    0    0 -0.48136649892E+02 -0.26139916957E+03 -0.96764607056E+02  0.29881748900E+03  0.96342304503E+02 0.  0.
        254    2    1    2    0    0  0.48136649892E+02  0.26139916957E+03  0.66464438113E+03  0.11576240869E+04  0.90977728611E+03 0.  0.
        -24    2    4    4    0    0  0.34116310419E+03  0.43241086379E+03  0.23630652695E+03  0.60481518747E+03  0.81173995411E+02 0.  0.
         24    2    4    4    0    0 -0.29302645430E+03 -0.17101169422E+03  0.42833785419E+03  0.55280889944E+03  0.83754758028E+02 0.  0.
         13    1    3    3    0    0 -0.25793548652E+01 -0.44973125285E+02 -0.59344851348E+02  0.74505345116E+02  0.00000000000E+00 0. -1.
        -13    1    3    3    0    0 -0.45557295027E+02 -0.21642604429E+03 -0.37419755709E+02  0.22431214388E+03  0.00000000000E+00 0.  1.
          2    1    6    6  502    0 -0.22625202123E+03 -0.15168034981E+03  0.28926699039E+03  0.39733147039E+03  0.00000000000E+00 0. -1.
          1    1    5    5  503    0  0.17129439576E+03  0.28096015888E+03  0.14535363813E+03  0.35973331930E+03  0.00000000000E+00 0. -1.
         -2    1    5    5    0  503  0.16986870843E+03  0.15145070491E+03  0.90952888820E+02  0.24508186817E+03  0.00000000000E+00 0.  1.
         -1    1    6    6    0  502 -0.66774433069E+02 -0.19331344410E+02  0.13907086380E+03  0.15547742906E+03  0.00000000000E+00 0.  1.
<mgrwt>
<rscale>  0 0.13411691E+04</rscale>
<asrwt>0</asrwt>
<pdfrwt beam="1">  1        2 0.15571703E+00 0.13411691E+04</pdfrwt>
<pdfrwt beam="2">  1       -2 0.68350908E-01 0.13411691E+04</pdfrwt>
<totfact> 0.47358383E+01</totfact>
</mgrwt>
</event>
<event>
12    1  0.1496989E-007  0.1510618E+04  0.7818608E-02  0.8877423E-01
          2   -1    0    0  501    0  0.00000000000E+00  0.00000000000E+00  0.23329303528E+04  0.23329303528E+04  0.00000000000E+00 0. -1.
         -2   -1    0    0    0  501 -0.00000000000E+00 -0.00000000000E+00 -0.24453856584E+03  0.24453856584E+03  0.00000000000E+00 0.  1.
         23    2    1    2    0    0 -0.15545086888E+02  0.21224982081E+03  0.13708839708E+04  0.13900210204E+04  0.86855855250E+02 0.  0.
        254    2    1    2    0    0  0.15545086888E+02 -0.21224982081E+03  0.71750781616E+03  0.11874478982E+04  0.92191290729E+03 0.  0.
        -24    2    4    4    0    0 -0.27045931268E+03  0.25064441400E+03  0.17705058463E+03  0.41658447712E+03  0.78897750109E+02 0.  0.
         24    2    4    4    0    0  0.28600439957E+03 -0.46289423482E+03  0.54045723152E+03  0.77086342112E+03  0.77889702181E+02 0.  0.
         11    1    3    3    0    0 -0.29741981751E+02  0.21167407954E+03  0.13198116737E+04  0.13370091082E+04  0.00000000000E+00 0. -1.
        -11    1    3    3    0    0  0.14196894863E+02  0.57574127605E+00  0.51072297083E+02  0.53011912162E+02  0.00000000000E+00 0.  1.
          4    1    6    6  502    0  0.85591080399E+02 -0.94108454686E+02  0.15965451727E+03  0.20413671686E+03  0.00000000000E+00 0. -1.
          3    1    5    5  503    0 -0.30583561434E+02  0.69978769831E+02  0.28126458198E+02  0.81384765821E+02  0.00000000000E+00 0. -1.
         -4    1    5    5    0  503 -0.23987575125E+03  0.18066564417E+03  0.14892412644E+03  0.33519971130E+03  0.00000000000E+00 0.  1.
         -3    1    6    6    0  502  0.20041331917E+03 -0.36878578013E+03  0.38080271426E+03  0.56672670425E+03  0.00000000000E+00 0.  1.
<mgrwt>
<rscale>  0 0.15106177E+04</rscale>
<asrwt>0</asrwt>
<pdfrwt beam="1">  1        2 0.35891235E+00 0.15106177E+04</pdfrwt>
<pdfrwt beam="2">  1       -2 0.37621319E-01 0.15106177E+04</pdfrwt>
<totfact> 0.27989060E+01</totfact>
</mgrwt>
</event>
<event>
12    1  0.1496989E-007  0.2546636E+04  0.7818608E-02  0.8386557E-01
         -1   -1    0    0    0  501 -0.00000000000E+00  0.00000000000E+00  0.11470484845E+04  0.11470484845E+04  0.00000000000E+00 0.  1.
          1   -1    0    0  501    0  0.00000000000E+00 -0.00000000000E+00 -0.14134879512E+04  0.14134879512E+04  0.00000000000E+00 0. -1.
         23    2    1    2    0    0 -0.34860434883E+03 -0.31965328783E+03 -0.11315648413E+04  0.12289871900E+04  0.79166323574E+02 0.  0.
        254    2    1    2    0    0  0.34860434883E+03  0.31965328783E+03  0.86512537459E+03  0.13315492458E+04  0.89491802065E+03 0.  0.
        -24    2    4    4    0    0  0.32721661833E+03 -0.31369095670E+02 -0.55540254657E+02  0.34281369812E+03  0.79886020397E+02 0.  0.
         24    2    4    4    0    0  0.21387730494E+02  0.35102238350E+03  0.92066562925E+03  0.98873554764E+03  0.79363931082E+02 0.  0.
         13    1    3    3    0    0 -0.26838040506E+03 -0.27897868420E+03 -0.96367059295E+03  0.10385172891E+04  0.00000000000E+00 0. -1.
        -13    1    3    3    0    0 -0.80223943768E+02 -0.40674603633E+02 -0.16789424832E+03  0.19046990091E+03  0.00000000000E+00 0.  1.
          2    1    6    6  502    0  0.16438648325E+01  0.27943101923E+03  0.63867594034E+03  0.69713080091E+03  0.00000000000E+00 0. -1.
          1    1    5    5  503    0  0.20589486937E+03 -0.55749841361E+02 -0.49168736636E+02  0.21890250503E+03  0.00000000000E+00 0. -1.
         -2    1    5    5    0  503  0.12132174896E+03  0.24380745691E+02 -0.63715180207E+01  0.12391119309E+03  0.00000000000E+00 0.  1.
         -1    1    6    6    0  502  0.19743865662E+02  0.71591364268E+02  0.28198968890E+03  0.29160474673E+03  0.00000000000E+00 0.  1.
<mgrwt>
<rscale>  0 0.25466364E+04</rscale>
<asrwt>0</asrwt>
<pdfrwt beam="1">  1        1 0.21745969E+00 0.25466364E+04</pdfrwt>
<pdfrwt beam="2">  1       -1 0.17646900E+00 0.25466364E+04</pdfrwt>
<totfact> 0.14679948E+00</totfact>
</mgrwt>
</event>
<event>
12    1  0.1496989E-007  0.1571091E+04  0.7818608E-02  0.8838507E-01
          2   -1    0    0  501    0  0.00000000000E+00  0.00000000000E+00  0.12799316555E+04  0.12799316555E+04  0.00000000000E+00 0. -1.
         -2   -1    0    0    0  501 -0.00000000000E+00 -0.00000000000E+00 -0.48212083778E+03  0.48212083778E+03  0.00000000000E+00 0.  1.
         23    2    1    2    0    0  0.37724985609E+03  0.31596495145E+03  0.46290953309E+02  0.50274049316E+03  0.91944802135E+02 0.  0.
        254    2    1    2    0    0 -0.37724985609E+03 -0.31596495145E+03  0.75151986437E+03  0.12593120001E+04  0.88257198150E+03 0.  0.
        -24    2    4    4    0    0 -0.52743416289E+03  0.11553553423E+03  0.37978230137E+03  0.66502690935E+03  0.80566356999E+02 0.  0.
         24    2    4    4    0    0  0.15018430680E+03 -0.43150048568E+03  0.37173756300E+03  0.59428509072E+03  0.78980745464E+02 0.  0.
         11    1    3    3    0    0  0.34951508365E+03  0.31768484777E+03  0.48835723478E+02  0.47483616552E+03  0.00000000000E+00 0.  1.
        -11    1    3    3    0    0  0.27734772443E+02 -0.17198963182E+01 -0.25447701688E+01  0.27904327640E+02  0.00000000000E+00 0. -1.
          4    1    6    6  502    0  0.14164920041E+03 -0.30141749482E+03  0.27603719317E+03  0.43256621941E+03  0.00000000000E+00 0. -1.
          1    1    5    5  503    0 -0.50169580976E+03  0.90274438312E+02  0.35780865865E+03  0.62279627162E+03  0.00000000000E+00 0. -1.
         -2    1    5    5    0  503 -0.25738353133E+02  0.25261095921E+02  0.21973642721E+02  0.42230637736E+02  0.00000000000E+00 0.  1.
         -3    1    6    6    0  502  0.85351063877E+01 -0.13008299086E+03  0.95700369839E+02  0.16171887131E+03  0.00000000000E+00 0.  1.
<mgrwt>
<rscale>  0 0.15710910E+04</rscale>
<asrwt>0</asrwt>
<pdfrwt beam="1">  1        2 0.19691256E+00 0.15710910E+04</pdfrwt>
<pdfrwt beam="2">  1       -2 0.74172437E-01 0.15710910E+04</pdfrwt>
<totfact> 0.26715163E+01</totfact>
</mgrwt>
</event>
<event>
12    1  0.1496989E-007  0.2610251E+04  0.7818608E-02  0.8364728E-01
          2   -1    0    0  501    0  0.00000000000E+00  0.00000000000E+00  0.17871561830E+04  0.17871561830E+04  0.00000000000E+00 0. -1.
         -2   -1    0    0    0  501 -0.00000000000E+00 -0.00000000000E+00 -0.95310752613E+03  0.95310752613E+03  0.00000000000E+00 0.  1.
         23    2    1    2    0    0 -0.93244454770E+03  0.32187398502E+03  0.98369192762E+03  0.13960483974E+04  0.90805411085E+02 0.  0.
        254    2    1    2    0    0  0.93244454770E+03 -0.32187398502E+03 -0.14964327070E+03  0.13442153118E+04  0.90081407580E+03 0.  0.
        -24    2    4    4    0    0  0.74608642924E+02 -0.11658352482E+02  0.30500312201E+03  0.32192253617E+03  0.70034620522E+02 0.  0.
         24    2    4    4    0    0  0.85783590478E+03 -0.31021563254E+03 -0.45464639272E+03  0.10222927756E+04  0.79139108178E+02 0.  0.
         13    1    3    3    0    0 -0.56229506562E+02  0.34389775771E+02  0.92822825858E+02  0.11384415262E+03  0.00000000000E+00 0.  1.
        -13    1    3    3    0    0 -0.87621504114E+03  0.28748420925E+03  0.89086910176E+03  0.12822042448E+04  0.00000000000E+00 0. -1.
          2    1    6    6  502    0  0.73784494964E+03 -0.26378432644E+03 -0.42002563942E+03  0.88905504799E+03  0.00000000000E+00 0. -1.
          1    1    5    5  503    0  0.74900080591E+02 -0.28318813289E+02  0.19717268407E+03  0.21281222850E+03  0.00000000000E+00 0. -1.
         -2    1    5    5    0  503 -0.29143766704E+00  0.16660460808E+02  0.10783043795E+03  0.10911030766E+03  0.00000000000E+00 0.  1.
         -1    1    6    6    0  502  0.11999095514E+03 -0.46431306099E+02 -0.34620753296E+02  0.13323772762E+03  0.00000000000E+00 0.  1.
<mgrwt>
<rscale>  0 0.26102506E+04</rscale>
<asrwt>0</asrwt>
<pdfrwt beam="1">  1        2 0.27494710E+00 0.26102506E+04</pdfrwt>
<pdfrwt beam="2">  1       -2 0.14663193E+00 0.26102506E+04</pdfrwt>
<totfact> 0.24669284E+00</totfact>
</mgrwt>
</event>
<event>
12    1  0.1496989E-007  0.2158400E+04  0.7818608E-02  0.8535945E-01
          1   -1    0    0  501    0  0.00000000000E+00  0.00000000000E+00  0.25384490087E+04  0.25384490087E+04  0.00000000000E+00 0. -1.
         -1   -1    0    0    0  501 -0.00000000000E+00 -0.00000000000E+00 -0.45881275156E+03  0.45881275156E+03  0.00000000000E+00 0.  1.
         23    2    1    2    0    0 -0.14697199508E+03 -0.50624790414E+03 -0.13291827331E+03  0.55101006357E+03  0.89761433770E+02 0.  0.
        254    2    1    2    0    0  0.14697199508E+03  0.50624790414E+03  0.22125545305E+04  0.24462516967E+04  0.90047882016E+03 0.  0.
        -24    2    4    4    0    0 -0.56850149610E+02  0.50811848944E+03  0.21598327969E+04  0.22209685443E+04  0.80045146112E+02 0.  0.
         24    2    4    4    0    0  0.20382214469E+03 -0.18705852973E+01  0.52721733576E+02  0.22528315241E+03  0.80162034731E+02 0.  0.
         13    1    3    3    0    0 -0.30300804316E+02 -0.23918479309E+03 -0.85115464526E+02  0.25567977294E+03  0.00000000000E+00 0. -1.
        -13    1    3    3    0    0 -0.11667119076E+03 -0.26706311106E+03 -0.47802808782E+02  0.29533029064E+03  0.00000000000E+00 0.  1.
          4    1    6    6  502    0  0.80097847889E+02  0.36204842464E+02  0.35055672054E+02  0.94632742734E+02  0.00000000000E+00 0. -1.
          1    1    5    5  503    0 -0.32145923134E+02  0.36828596000E+03  0.14003886639E+04  0.14483633241E+04  0.00000000000E+00 0. -1.
         -2    1    5    5    0  503 -0.24704226476E+02  0.13983252944E+03  0.75944413301E+03  0.77260522018E+03  0.00000000000E+00 0.  1.
         -3    1    6    6    0  502  0.12372429680E+03 -0.38075427761E+02  0.17666061521E+02  0.13065040967E+03  0.00000000000E+00 0.  1.
<mgrwt>
<rscale>  0 0.21584001E+04</rscale>
<asrwt>0</asrwt>
<pdfrwt beam="1">  1        1 0.39053061E+00 0.21584001E+04</pdfrwt>
<pdfrwt beam="2">  1       -1 0.70586579E-01 0.21584001E+04</pdfrwt>
<totfact> 0.23643399E+00</totfact>
</mgrwt>
</event>
<event>
12    1  0.1496989E-007  0.1195442E+04  0.7818608E-02  0.9116856E-01
          2   -1    0    0  501    0  0.00000000000E+00  0.00000000000E+00  0.20021277078E+04  0.20021277078E+04  0.00000000000E+00 0.  1.
         -2   -1    0    0    0  501 -0.00000000000E+00 -0.00000000000E+00 -0.17844535434E+03  0.17844535434E+03  0.00000000000E+00 0. -1.
         23    2    1    2    0    0  0.60350578769E+02 -0.17344183281E+03  0.96841124310E+02  0.22684379131E+03  0.91409193020E+02 0.  0.
        254    2    1    2    0    0 -0.60350578769E+02  0.17344183281E+03  0.17268412291E+04  0.19537292708E+04  0.89518331716E+03 0.  0.
        -24    2    4    4    0    0  0.27044769163E+02 -0.44729275869E+02  0.17013233581E+04  0.17040518691E+04  0.80990592772E+02 0.  0.
         24    2    4    4    0    0 -0.87395347932E+02  0.21817110868E+03  0.25517871064E+02  0.24967740176E+03  0.80318514053E+02 0.  0.
         11    1    3    3    0    0  0.58014569176E+02 -0.90494368341E+02  0.95598597654E+02  0.14385413728E+03  0.00000000000E+00 0.  1.
        -11    1    3    3    0    0  0.23360095931E+01 -0.82947464474E+02  0.12425266557E+01  0.82989654030E+02  0.00000000000E+00 0. -1.
          4    1    6    6  502    0 -0.39515967746E+02  0.19635766038E+02  0.56574472786E+01  0.44486871372E+02  0.00000000000E+00 0. -1.
          3    1    5    5  503    0 -0.27405359877E+02 -0.40437716202E+01  0.40354171655E+03  0.40449143729E+03  0.00000000000E+00 0. -1.
         -4    1    5    5    0  503  0.54450129040E+02 -0.40685504248E+02  0.12977816415E+04  0.12995604318E+04  0.00000000000E+00 0.  1.
         -3    1    6    6    0  502 -0.47879380187E+02  0.19853534264E+03  0.19860423786E+02  0.20519053038E+03  0.00000000000E+00 0.  1.
<mgrwt>
<rscale>  0 0.11954420E+04</rscale>
<asrwt>0</asrwt>
<pdfrwt beam="1">  1        2 0.30801963E+00 0.11954420E+04</pdfrwt>
<pdfrwt beam="2">  1       -2 0.27453133E-01 0.11954420E+04</pdfrwt>
<totfact> 0.79617631E+01</totfact>
</mgrwt>
</event>
<event>
12    1  0.1496989E-007  0.1943213E+04  0.7818608E-02  0.8633641E-01
         -2   -1    0    0    0  501 -0.00000000000E+00  0.00000000000E+00  0.21884413971E+04  0.21884413971E+04  0.00000000000E+00 0. -1.
          2   -1    0    0  501    0  0.00000000000E+00 -0.00000000000E+00 -0.43136590444E+03  0.43136590444E+03  0.00000000000E+00 0.  1.
         23    2    1    2    0    0 -0.35220131182E+03  0.21091658703E+03 -0.16707400601E+03  0.45247313814E+03  0.91031019509E+02 0.  0.
        254    2    1    2    0    0  0.35220131182E+03 -0.21091658703E+03  0.19241494987E+04  0.21673341634E+04  0.90909543607E+03 0.  0.
        -24    2    4    4    0    0  0.54935620332E+03 -0.82378457684E+02  0.60587263859E+03  0.82586082158E+03  0.79912414597E+02 0.  0.
         24    2    4    4    0    0 -0.19715489150E+03 -0.12853812935E+03  0.13182768601E+04  0.13414733418E+04  0.79402424780E+02 0.  0.
         13    1    3    3    0    0 -0.29767194161E+03  0.20115807453E+03 -0.16902672387E+03  0.39704305705E+03  0.00000000000E+00 0.  1.
        -13    1    3    3    0    0 -0.54529370215E+02  0.97585125055E+01  0.19527178538E+01  0.55430081088E+02  0.00000000000E+00 0. -1.
          4    1    6    6  502    0 -0.17916032000E+03 -0.13142024164E+03  0.12792280320E+04  0.12983813222E+04  0.00000000000E+00 0. -1.
          1    1    5    5  503    0  0.24365441812E+03  0.18014084658E+01  0.28019122504E+03  0.37131905841E+03  0.00000000000E+00 0. -1.
         -2    1    5    5    0  503  0.30570178520E+03 -0.84179866150E+02  0.32568141354E+03  0.45454176317E+03  0.00000000000E+00 0.  1.
         -3    1    6    6    0  502 -0.17994571500E+02  0.28821122885E+01  0.39048828121E+02  0.43092019590E+02  0.00000000000E+00 0.  1.
<mgrwt>
<rscale>  0 0.19432128E+04</rscale>
<asrwt>0</asrwt>
<pdfrwt beam="1">  1        2 0.66363987E-01 0.19432128E+04</pdfrwt>
<pdfrwt beam="2">  1       -2 0.33668329E+00 0.19432128E+04</pdfrwt>
<totfact> 0.12878738E+00</totfact>
</mgrwt>
</event>
<event>
12    1  0.1496989E-007  0.2294781E+04  0.7818608E-02  0.8479982E-01
          2   -1    0    0  501    0  0.00000000000E+00  0.00000000000E+00  0.21431276934E+04  0.21431276934E+04  0.00000000000E+00 0. -1.
         -2   -1    0    0    0  501 -0.00000000000E+00 -0.00000000000E+00 -0.61429120100E+03  0.61429120100E+03  0.00000000000E+00 0.  1.
         23    2    1    2    0    0 -0.57952599110E+03 -0.14010920299E+03 -0.26923694898E+03  0.66026673444E+03  0.89345748568E+02 0.  0.
        254    2    1    2    0    0  0.57952599110E+03  0.14010920299E+03  0.17980734414E+04  0.20971521599E+04  0.89972113362E+03 0.  0.
        -24    2    4    4    0    0  0.42083225543E+03  0.19126190506E+03  0.18472819541E+04  0.19058917749E+04  0.79321726413E+02 0.  0.
         24    2    4    4    0    0  0.15869373567E+03 -0.51152702070E+02 -0.49208512698E+02  0.19126038504E+03  0.79741811451E+02 0.  0.
         11    1    3    3    0    0 -0.13688047007E+03 -0.71750033356E+02 -0.80193780245E+02  0.17411310336E+03  0.00000000000E+00 0. -1.
        -11    1    3    3    0    0 -0.44264552104E+03 -0.68359169638E+02 -0.18904316874E+03  0.48615363108E+03  0.00000000000E+00 0.  1.
          4    1    6    6  502    0  0.41935071478E+02 -0.39517041392E+02  0.12091681028E+02  0.58875763522E+02  0.00000000000E+00 0. -1.
          1    1    5    5  503    0  0.64051086516E+02  0.63089776652E+02  0.35655964481E+03  0.36771951527E+03  0.00000000000E+00 0. -1.
         -2    1    5    5    0  503  0.35678116891E+03  0.12817212841E+03  0.14907223093E+04  0.15381722596E+04  0.00000000000E+00 0.  1.
         -3    1    6    6    0  502  0.11675866420E+03 -0.11635660678E+02 -0.61300193726E+02  0.13238462152E+03  0.00000000000E+00 0.  1.
<mgrwt>
<rscale>  0 0.22947806E+04</rscale>
<asrwt>0</asrwt>
<pdfrwt beam="1">  1        2 0.32971195E+00 0.22947806E+04</pdfrwt>
<pdfrwt beam="2">  1       -2 0.94506340E-01 0.22947806E+04</pdfrwt>
<totfact> 0.47553996E+00</totfact>
</mgrwt>
</event>
<event>
12    1  0.1496989E-007  0.1259125E+04  0.7818608E-02  0.9062623E-01
         -1   -1    0    0    0  501 -0.00000000000E+00  0.00000000000E+00  0.22694218757E+03  0.22694218757E+03  0.00000000000E+00 0.  1.
          1   -1    0    0  501    0  0.00000000000E+00 -0.00000000000E+00 -0.17464742510E+04  0.17464742510E+04  0.00000000000E+00 0. -1.
         23    2    1    2    0    0  0.27331071272E+03 -0.91720116478E+02 -0.27762407235E+03  0.40901899241E+03  0.84321320831E+02 0.  0.
        254    2    1    2    0    0 -0.27331071272E+03  0.91720116478E+02 -0.12419079911E+04  0.15643974462E+04  0.90658291723E+03 0.  0.
        -24    2    4    4    0    0 -0.22622839409E+03 -0.36681443647E+03 -0.36415807814E+03  0.56977737372E+03  0.79391640838E+02 0.  0.
         24    2    4    4    0    0 -0.47082318628E+02  0.45853455295E+03 -0.87774991293E+03  0.99462007243E+03  0.79708831825E+02 0.  0.
         11    1    3    3    0    0  0.23662888417E+03 -0.67882460930E+02 -0.26861147720E+03  0.36435337656E+03  0.00000000000E+00 0. -1.
        -11    1    3    3    0    0  0.36681828542E+02 -0.23837655548E+02 -0.90125951477E+01  0.44665615842E+02  0.00000000000E+00 0.  1.
          2    1    6    6  502    0 -0.30323784261E+02  0.48607021668E+02 -0.11802005098E+03  0.13119034599E+03  0.00000000000E+00 0. -1.
          3    1    5    5  503    0 -0.46628639615E+02 -0.14733273550E+03 -0.12313266931E+03  0.19759255865E+03  0.00000000000E+00 0. -1.
         -4    1    5    5    0  503 -0.17959975447E+03 -0.21948170097E+03 -0.24102540883E+03  0.37218481507E+03  0.00000000000E+00 0.  1.
         -1    1    6    6    0  502 -0.16758534367E+02  0.40992753128E+03 -0.75972986194E+03  0.86342972644E+03  0.00000000000E+00 0.  1.
<mgrwt>
<rscale>  0 0.12591246E+04</rscale>
<asrwt>0</asrwt>
<pdfrwt beam="1">  1        1 0.26868836E+00 0.12591246E+04</pdfrwt>
<pdfrwt beam="2">  1       -1 0.34914181E-01 0.12591246E+04</pdfrwt>
<totfact> 0.34043871E+01</totfact>
</mgrwt>
</event>
<event>
12    1  0.1496989E-007  0.1840883E+04  0.7818608E-02  0.8684856E-01
          2   -1    0    0  501    0  0.00000000000E+00  0.00000000000E+00  0.16986815057E+04  0.16986815057E+04  0.00000000000E+00 0. -1.
         -2   -1    0    0    0  501 -0.00000000000E+00 -0.00000000000E+00 -0.49874702648E+03  0.49874702648E+03  0.00000000000E+00 0.  1.
         23    2    1    2    0    0  0.48996625504E+03  0.42081131487E+03  0.78950045048E+03  0.10240363292E+04  0.90500543315E+02 0.  0.
        254    2    1    2    0    0 -0.48996625504E+03 -0.42081131487E+03  0.41043402873E+03  0.11733922030E+04  0.88951901404E+03 0.  0.
        -24    2    4    4    0    0 -0.41856132451E+03 -0.52892039706E+03 -0.56355687389E+02  0.68257981037E+03  0.88254547846E+02 0.  0.
         24    2    4    4    0    0 -0.71404930533E+02  0.10810908219E+03  0.46678971612E+03  0.49081239264E+03  0.78853839095E+02 0.  0.
         11    1    3    3    0    0  0.22172777120E+03  0.14863433254E+03  0.37444548075E+03  0.45985300628E+03  0.00000000000E+00 0. -1.
        -11    1    3    3    0    0  0.26823848384E+03  0.27217698233E+03  0.41505496973E+03  0.56418332289E+03  0.00000000000E+00 0.  1.
          2    1    6    6  502    0 -0.86836634992E+01  0.59704177820E+02  0.30198635328E+03  0.30795414014E+03  0.00000000000E+00 0. -1.
          3    1    5    5  503    0 -0.18744644964E+03 -0.18053147855E+03 -0.46622910285E+02  0.26438888402E+03  0.00000000000E+00 0. -1.
         -4    1    5    5    0  503 -0.23111487487E+03 -0.34838891851E+03 -0.97327771047E+01  0.41819092635E+03  0.00000000000E+00 0.  1.
         -1    1    6    6    0  502 -0.62721267034E+02  0.48404904373E+02  0.16480336283E+03  0.18285825250E+03  0.00000000000E+00 0.  1.
<mgrwt>
<rscale>  0 0.18408828E+04</rscale>
<asrwt>0</asrwt>
<pdfrwt beam="1">  1        2 0.26133561E+00 0.18408828E+04</pdfrwt>
<pdfrwt beam="2">  1       -2 0.76730313E-01 0.18408828E+04</pdfrwt>
<totfact> 0.14028961E+01</totfact>
</mgrwt>
</event>
<event>
12    1  0.1496989E-007  0.1741974E+04  0.7818608E-02  0.8737780E-01
         -1   -1    0    0    0  501 -0.00000000000E+00  0.00000000000E+00  0.10545837295E+04  0.10545837295E+04  0.00000000000E+00 0.  1.
          1   -1    0    0  501    0  0.00000000000E+00 -0.00000000000E+00 -0.71935363685E+03  0.71935363685E+03  0.00000000000E+00 0. -1.
         23    2    1    2    0    0  0.20762847213E+03 -0.13727250536E+03 -0.47226788507E+03  0.54148787650E+03  0.90657829033E+02 0.  0.
        254    2    1    2    0    0 -0.20762847213E+03  0.13727250536E+03  0.80749797777E+03  0.12324494899E+04  0.89717636943E+03 0.  0.
        -24    2    4    4    0    0  0.18933467884E+03  0.31488760094E+03  0.85180077600E+02  0.38555909134E+03  0.79989658421E+02 0.  0.
         24    2    4    4    0    0 -0.39696315097E+03 -0.17761509558E+03  0.72231790017E+03  0.84689039856E+03  0.79707796699E+02 0.  0.
         13    1    3    3    0    0  0.21197744456E+03 -0.11325190070E+03 -0.43386396208E+03  0.49598222510E+03  0.00000000000E+00 0. -1.
        -13    1    3    3    0    0 -0.43489724297E+01 -0.24020604660E+02 -0.38403922983E+02  0.45505651406E+02  0.00000000000E+00 0.  1.
          2    1    6    6  502    0 -0.24145214593E+03 -0.65072176419E+02  0.39959788053E+03  0.47139367098E+03  0.00000000000E+00 0. -1.
          3    1    5    5  503    0  0.15347437327E+03  0.28025960040E+03  0.97750668123E+02  0.33414820063E+03  0.00000000000E+00 0. -1.
         -4    1    5    5    0  503  0.35860305566E+02  0.34628000544E+02 -0.12570590524E+02  0.51410890705E+02  0.00000000000E+00 0.  1.
         -1    1    6    6    0  502 -0.15551100504E+03 -0.11254291916E+03  0.32272001964E+03  0.37549672757E+03  0.00000000000E+00 0.  1.
<mgrwt>
<rscale>  0 0.17419743E+04</rscale>
<asrwt>0</asrwt>
<pdfrwt beam="1">  1        1 0.11066979E+00 0.17419743E+04</pdfrwt>
<pdfrwt beam="2">  1       -1 0.16224365E+00 0.17419743E+04</pdfrwt>
<totfact> 0.69638401E+00</totfact>
</mgrwt>
</event>
<event>
12    1  0.1496989E-007  0.1698825E+04  0.7818608E-02  0.8762035E-01
          1   -1    0    0  501    0  0.00000000000E+00  0.00000000000E+00  0.13662417872E+04  0.13662417872E+04  0.00000000000E+00 0. -1.
         -1   -1    0    0    0  501 -0.00000000000E+00 -0.00000000000E+00 -0.52809223353E+03  0.52809223353E+03  0.00000000000E+00 0.  1.
         23    2    1    2    0    0  0.22258818777E+03 -0.46971638049E+03 -0.36932618227E+01  0.52749213765E+03  0.89751521798E+02 0.  0.
        254    2    1    2    0    0 -0.22258818777E+03  0.46971638049E+03  0.84184281550E+03  0.13668418831E+04  0.94306862312E+03 0.  0.
        -24    2    4    4    0    0 -0.45467134741E+03  0.10542210691E+03  0.79460209159E+03  0.92496242730E+03  0.79518256839E+02 0.  0.
         24    2    4    4    0    0  0.23208315965E+03  0.36429427359E+03  0.47240723909E+02  0.44187945579E+03  0.80329675053E+02 0.  0.
         13    1    3    3    0    0  0.13126326294E+03 -0.23082536083E+03 -0.42157824667E+02  0.26886367099E+03  0.00000000000E+00 0.  1.
        -13    1    3    3    0    0  0.91324924821E+02 -0.23889101967E+03  0.38464562845E+02  0.25862846666E+03  0.00000000000E+00 0. -1.
          4    1    6    6  502    0  0.60562274741E+02  0.48928829122E+02  0.26671284513E+02  0.82299312626E+02  0.00000000000E+00 0. -1.
          1    1    5    5  503    0 -0.11574498516E+03 -0.32064205651E+01  0.23089224112E+03  0.25829907033E+03  0.00000000000E+00 0. -1.
         -2    1    5    5    0  503 -0.33892636225E+03  0.10862852747E+03  0.56370985047E+03  0.66666335697E+03  0.00000000000E+00 0.  1.
         -3    1    6    6    0  502  0.17152088491E+03  0.31536544447E+03  0.20569439396E+02  0.35958014316E+03  0.00000000000E+00 0.  1.
<mgrwt>
<rscale>  0 0.16988251E+04</rscale>
<asrwt>0</asrwt>
<pdfrwt beam="1">  1        1 0.21019104E+00 0.16988251E+04</pdfrwt>
<pdfrwt beam="2">  1       -1 0.81244959E-01 0.16988251E+04</pdfrwt>
<totfact> 0.11657120E+01</totfact>
</mgrwt>
</event>
<event>
12    1  0.1496989E-007  0.1112012E+04  0.7818608E-02  0.9193562E-01
          1   -1    0    0  501    0  0.00000000000E+00  0.00000000000E+00  0.75933284780E+03  0.75933284780E+03  0.00000000000E+00 0. -1.
         -1   -1    0    0    0  501 -0.00000000000E+00 -0.00000000000E+00 -0.40712439787E+03  0.40712439787E+03  0.00000000000E+00 0.  1.
         23    2    1    2    0    0 -0.77069978655E+02  0.16228952159E+03  0.52766096516E+02  0.20691990745E+03  0.88056327031E+02 0.  0.
        254    2    1    2    0    0  0.77069978655E+02 -0.16228952159E+03  0.29944235342E+03  0.95953733822E+03  0.89373850202E+03 0.  0.
        -24    2    4    4    0    0 -0.23497028463E+03  0.24953768225E+03 -0.95000061071E+01  0.35235789488E+03  0.81152612058E+02 0.  0.
         24    2    4    4    0    0  0.31204026329E+03 -0.41182720384E+03  0.30894235953E+03  0.60717944334E+03  0.79061515081E+02 0.  0.
         11    1    3    3    0    0 -0.57891395566E+02  0.14891940896E+03  0.12380029383E+02  0.16025501294E+03  0.00000000000E+00 0.  1.
        -11    1    3    3    0    0 -0.19178583089E+02  0.13370112629E+02  0.40386067133E+02  0.46664894508E+02  0.00000000000E+00 0. -1.
          4    1    6    6  502    0  0.27171250603E+03 -0.35781938616E+03  0.29737857718E+03  0.53879162689E+03  0.00000000000E+00 0. -1.
          1    1    5    5  503    0 -0.14128971196E+03  0.11765476206E+03  0.28832498954E+02  0.18610948052E+03  0.00000000000E+00 0. -1.
         -2    1    5    5    0  503 -0.93680572670E+02  0.13188292019E+03 -0.38332505061E+02  0.16624841436E+03  0.00000000000E+00 0.  1.
         -3    1    6    6    0  502  0.40327757260E+02 -0.54007817681E+02  0.11563782350E+02  0.68387816448E+02  0.00000000000E+00 0.  1.
<mgrwt>
<rscale>  0 0.11120125E+04</rscale>
<asrwt>0</asrwt>
<pdfrwt beam="1">  1        1 0.11682044E+00 0.11120125E+04</pdfrwt>
<pdfrwt beam="2">  1       -1 0.62634523E-01 0.11120125E+04</pdfrwt>
<totfact> 0.61851304E+01</totfact>
</mgrwt>
</event>
<event>
12    1  0.1496989E-007  0.9867918E+03  0.7818608E-02  0.9323151E-01
         -1   -1    0    0    0  501 -0.00000000000E+00  0.00000000000E+00  0.16872863564E+03  0.16872863564E+03  0.00000000000E+00 0.  1.
          1   -1    0    0  501    0  0.00000000000E+00 -0.00000000000E+00 -0.14427872259E+04  0.14427872259E+04  0.00000000000E+00 0. -1.
         23    2    1    2    0    0 -0.12546753950E+02  0.19986989062E+02 -0.13737721217E+03  0.16716771446E+03  0.92280255568E+02 0.  0.
        254    2    1    2    0    0  0.12546753950E+02 -0.19986989062E+02 -0.11366813781E+04  0.14443481471E+04  0.89080868536E+03 0.  0.
        -24    2    4    4    0    0 -0.56551583207E+01 -0.38438142832E+03 -0.94797278208E+03  0.10261071220E+04  0.80388848667E+02 0.  0.
         24    2    4    4    0    0  0.18201912270E+02  0.36439443926E+03 -0.18870859597E+03  0.41824102506E+03  0.78740103338E+02 0.  0.
         11    1    3    3    0    0  0.12581132215E+02  0.52385054447E+02 -0.70597442663E+02  0.88805842869E+02  0.00000000000E+00 0. -1.
        -11    1    3    3    0    0 -0.25127886164E+02 -0.32398065384E+02 -0.66779769506E+02  0.78361871590E+02  0.00000000000E+00 0.  1.
          2    1    6    6  502    0  0.58010312213E+01  0.43046447787E+01 -0.18295076218E+02  0.19669563893E+02  0.00000000000E+00 0. -1.
          1    1    5    5  503    0  0.26236542362E+02 -0.46790839982E+02 -0.12913906816E+03  0.13983789825E+03  0.00000000000E+00 0. -1.
         -2    1    5    5    0  503 -0.31891700683E+02 -0.33759058834E+03 -0.81883371392E+03  0.88626922375E+03  0.00000000000E+00 0.  1.
         -1    1    6    6    0  502  0.12400881049E+02  0.36008979448E+03 -0.17041351976E+03  0.39857146116E+03  0.00000000000E+00 0.  1.
<mgrwt>
<rscale>  0 0.98679181E+03</rscale>
<asrwt>0</asrwt>
<pdfrwt beam="1">  1        1 0.22196727E+00 0.98679181E+03</pdfrwt>
<pdfrwt beam="2">  1       -1 0.25958252E-01 0.98679181E+03</pdfrwt>
<totfact> 0.94426473E+01</totfact>
</mgrwt>
</event>
<event>
12    1  0.1496989E-007  0.2457270E+04  0.7818608E-02  0.8418369E-01
         -1   -1    0    0    0  501 -0.00000000000E+00  0.00000000000E+00  0.76513679514E+03  0.76513679514E+03  0.00000000000E+00 0.  1.
          1   -1    0    0  501    0  0.00000000000E+00 -0.00000000000E+00 -0.19729066817E+04  0.19729066817E+04  0.00000000000E+00 0. -1.
         23    2    1    2    0    0  0.82837392781E+03 -0.61417294943E+03 -0.27857965574E+03  0.10730221153E+04  0.10177455152E+03 0.  0.
        254    2    1    2    0    0 -0.82837392781E+03  0.61417294943E+03 -0.92919023078E+03  0.16650213615E+04  0.91950523273E+03 0.  0.
        -24    2    4    4    0    0 -0.34156968328E+03  0.42700025689E+03  0.47766452457E+02  0.55474167089E+03  0.80359315093E+02 0.  0.
         24    2    4    4    0    0 -0.48680424454E+03  0.18717269255E+03 -0.97695668324E+03  0.11102796906E+04  0.79149485346E+02 0.  0.
         11    1    3    3    0    0  0.13520785252E+03 -0.78337985726E+02 -0.96952392476E+01  0.15656308969E+03  0.00000000000E+00 0. -1.
        -11    1    3    3    0    0  0.69316607529E+03 -0.53583496371E+03 -0.26888441649E+03  0.91645902565E+03  0.00000000000E+00 0.  1.
          4    1    6    6  502    0 -0.16201199663E+03  0.85435548848E+02 -0.40921571523E+03  0.44833538970E+03  0.00000000000E+00 0. -1.
          3    1    5    5  503    0 -0.16764229930E+03  0.15254148736E+03  0.36836679530E+02  0.22962967326E+03  0.00000000000E+00 0. -1.
         -4    1    5    5    0  503 -0.17392738397E+03  0.27445876952E+03  0.10929772927E+02  0.32511199763E+03  0.00000000000E+00 0.  1.
         -3    1    6    6    0  502 -0.32479224790E+03  0.10173714370E+03 -0.56774096800E+03  0.66194430087E+03  0.00000000000E+00 0.  1.
<mgrwt>
<rscale>  0 0.24572696E+04</rscale>
<asrwt>0</asrwt>
<pdfrwt beam="1">  1        1 0.30352410E+00 0.24572696E+04</pdfrwt>
<pdfrwt beam="2">  1       -1 0.11771335E+00 0.24572696E+04</pdfrwt>
<totfact> 0.17984456E+00</totfact>
</mgrwt>
</event>
<event>
12    1  0.1496989E-007  0.4280308E+04  0.7818608E-02  0.7950269E-01
         -2   -1    0    0    0  501 -0.00000000000E+00  0.00000000000E+00  0.13975610797E+04  0.13975610797E+04  0.00000000000E+00 0.  1.
          2   -1    0    0  501    0  0.00000000000E+00 -0.00000000000E+00 -0.32773233196E+04  0.32773233196E+04  0.00000000000E+00 0. -1.
         23    2    1    2    0    0  0.15413849784E+04 -0.12190241926E+04 -0.29443064824E+03  0.19893262507E+04  0.94031331650E+02 0.  0.
        254    2    1    2    0    0 -0.15413849784E+04  0.12190241926E+04 -0.15853315916E+04  0.26855581486E+04  0.91490911038E+03 0.  0.
        -24    2    4    4    0    0 -0.10314903320E+04  0.10939235979E+04 -0.15382512283E+04  0.21523792031E+04  0.76669740959E+02 0.  0.
         24    2    4    4    0    0 -0.50989464640E+03  0.12510059467E+03 -0.47080363326E+02  0.53317894556E+03  0.80128135872E+02 0.  0.
         11    1    3    3    0    0  0.32823053772E+03 -0.29551254724E+03 -0.93835017330E+02  0.45151739938E+03  0.00000000000E+00 0. -1.
        -11    1    3    3    0    0  0.12131544407E+04 -0.92351164537E+03 -0.20059563091E+03  0.15378088514E+04  0.00000000000E+00 0.  1.
          2    1    6    6  502    0 -0.48924108637E+03  0.10830263750E+03 -0.30925331796E+02  0.50203852245E+03  0.00000000000E+00 0. -1.
          3    1    5    5  503    0 -0.10996764595E+03  0.11441977926E+03 -0.19760844662E+03  0.25344401200E+03  0.00000000000E+00 0. -1.
         -4    1    5    5    0  503 -0.92152268610E+03  0.97950381868E+03 -0.13406427817E+04  0.18989351911E+04  0.00000000000E+00 0.  1.
         -1    1    6    6    0  502 -0.20653560031E+02  0.16797957179E+02 -0.16155031529E+02  0.31140423103E+02  0.00000000000E+00 0.  1.
<mgrwt>
<rscale>  0 0.42803082E+04</rscale>
<asrwt>0</asrwt>
<pdfrwt beam="1">  1        2 0.50420358E+00 0.42803082E+04</pdfrwt>
<pdfrwt beam="2">  1       -2 0.21500940E+00 0.42803082E+04</pdfrwt>
<totfact> 0.94469950E-02</totfact>
</mgrwt>
</event>
<event>
12    1  0.1496989E-007  0.1374778E+04  0.7818608E-02  0.8972280E-01
          3   -1    0    0  501    0  0.00000000000E+00  0.00000000000E+00  0.97519691414E+03  0.97519691414E+03  0.00000000000E+00 0. -1.
         -3   -1    0    0    0  501 -0.00000000000E+00 -0.00000000000E+00 -0.48452137498E+03  0.48452137498E+03  0.00000000000E+00 0.  1.
         23    2    1    2    0    0 -0.19049745881E+03 -0.33277123403E+03  0.19005893871E+03  0.43750605420E+03  0.90901987139E+02 0.  0.
        254    2    1    2    0    0  0.19049745881E+03  0.33277123403E+03  0.30061660045E+03  0.10222122349E+04  0.89862202107E+03 0.  0.
        -24    2    4    4    0    0 -0.11782907746E+02  0.59722749017E+03  0.31407334195E+03  0.67959332845E+03  0.79909423864E+02 0.  0.
         24    2    4    4    0    0  0.20228036656E+03 -0.26445625614E+03 -0.13456741497E+02  0.34261890647E+03  0.79700521169E+02 0.  0.
         13    1    3    3    0    0 -0.11723180295E+03 -0.25120882100E+03  0.17241066987E+03  0.32645766411E+03  0.00000000000E+00 0. -1.
        -13    1    3    3    0    0 -0.73265655865E+02 -0.81562413032E+02  0.17648268838E+02  0.11104839009E+03  0.00000000000E+00 0.  1.
          2    1    6    6  502    0  0.14995912817E+03 -0.18314510523E+03  0.26118684042E+02  0.23814293050E+03  0.00000000000E+00 0. -1.
          3    1    5    5  503    0 -0.11536929441E+02  0.50318769915E+03  0.22972314552E+03  0.55326637789E+03  0.00000000000E+00 0. -1.
         -4    1    5    5    0  503 -0.24597830408E+00  0.94039791025E+02  0.84350196427E+02  0.12632695056E+03  0.00000000000E+00 0.  1.
         -1    1    6    6    0  502  0.52321238385E+02 -0.81311150917E+02 -0.39575425539E+02  0.10447597598E+03  0.00000000000E+00 0.  1.
<mgrwt>
<rscale>  0 0.13747782E+04</rscale>
<asrwt>0</asrwt>
<pdfrwt beam="1">  1        3 0.15003029E+00 0.13747782E+04</pdfrwt>
<pdfrwt beam="2">  1       -3 0.74541750E-01 0.13747782E+04</pdfrwt>
<totfact> 0.14051325E+00</totfact>
</mgrwt>
</event>
<event>
12    1  0.1496989E-007  0.1944680E+04  0.7818608E-02  0.8632930E-01
          2   -1    0    0  501    0  0.00000000000E+00  0.00000000000E+00  0.41003961530E+04  0.41003961530E+04  0.00000000000E+00 0. -1.
         -2   -1    0    0    0  501 -0.00000000000E+00 -0.00000000000E+00 -0.23057412004E+03  0.23057412004E+03  0.00000000000E+00 0.  1.
         23    2    1    2    0    0  0.44101557745E+03 -0.46170998089E+01  0.29115759553E+04  0.29462167486E+04  0.91665310953E+02 0.  0.
        254    2    1    2    0    0 -0.44101557745E+03  0.46170998089E+01  0.95824607767E+03  0.13847535244E+04  0.89710128797E+03 0.  0.
        -24    2    4    4    0    0 -0.11978877139E+03 -0.11877286104E+03  0.10104744072E+04  0.10276910470E+04  0.81449481719E+02 0.  0.
         24    2    4    4    0    0 -0.32122680606E+03  0.12338996085E+03 -0.52228329571E+02  0.35706247745E+03  0.79712427028E+02 0.  0.
         13    1    3    3    0    0  0.38253145479E+03 -0.21875067440E+02  0.26543627594E+04  0.26818744361E+04  0.00000000000E+00 0. -1.
        -13    1    3    3    0    0  0.58484122653E+02  0.17257967632E+02  0.25721319593E+03  0.26434231256E+03  0.00000000000E+00 0.  1.
          2    1    6    6  502    0 -0.23667675968E+01  0.13284568628E+02 -0.10618802542E+02  0.17170914941E+02  0.00000000000E+00 0. -1.
          3    1    5    5  503    0 -0.10516224256E+03 -0.50591116591E+02  0.58280139440E+03  0.59437027488E+03  0.00000000000E+00 0. -1.
         -4    1    5    5    0  503 -0.14626528824E+02 -0.68181744451E+02  0.42767301284E+03  0.43332077210E+03  0.00000000000E+00 0.  1.
         -1    1    6    6    0  502 -0.31886003846E+03  0.11010539222E+03 -0.41609527029E+02  0.33989156251E+03  0.00000000000E+00 0.  1.
<mgrwt>
<rscale>  0 0.19446802E+04</rscale>
<asrwt>0</asrwt>
<pdfrwt beam="1">  1        2 0.63083013E+00 0.19446802E+04</pdfrwt>
<pdfrwt beam="2">  1       -2 0.35472944E-01 0.19446802E+04</pdfrwt>
<totfact> 0.19956817E+00</totfact>
</mgrwt>
</event>
<event>
12    1  0.1496989E-007  0.1296092E+04  0.7818608E-02  0.9032670E-01
          2   -1    0    0  501    0  0.00000000000E+00  0.00000000000E+00  0.98411886340E+03  0.98411886340E+03  0.00000000000E+00 0. -1.
         -2   -1    0    0    0  501 -0.00000000000E+00 -0.00000000000E+00 -0.42674097132E+03  0.42674097132E+03  0.00000000000E+00 0.  1.
         23    2    1    2    0    0 -0.13727054461E+03  0.14488501121E+03  0.50449097733E+03  0.55011576933E+03  0.91001893205E+02 0.  0.
        254    2    1    2    0    0  0.13727054461E+03 -0.14488501121E+03  0.52886914750E+02  0.86074406539E+03  0.83561262046E+03 0.  0.
        -24    2    4    4    0    0  0.10049139541E+03  0.20641896699E+03 -0.27770675184E+03  0.37037796907E+03  0.85740827299E+02 0.  0.
         24    2    4    4    0    0  0.36779149197E+02 -0.35130397820E+03  0.33059366659E+03  0.49036609633E+03  0.79997156969E+02 0.  0.
         11    1    3    3    0    0 -0.99863597791E+02  0.81085318342E+02  0.41243960046E+03  0.43203471046E+03  0.00000000000E+00 0. -1.
        -11    1    3    3    0    0 -0.37406946818E+02  0.63799692864E+02  0.92051376870E+02  0.11808105887E+03  0.00000000000E+00 0.  1.
          2    1    6    6  502    0  0.49072042568E+02 -0.31944068164E+03  0.31950171011E+03  0.45445765173E+03  0.00000000000E+00 0. -1.
          1    1    5    5  503    0  0.99243701127E+02  0.13545427547E+03 -0.23033196659E+03  0.28504383486E+03  0.00000000000E+00 0. -1.
         -2    1    5    5    0  503  0.12476942849E+01  0.70964691519E+02 -0.47374785247E+02  0.85334134205E+02  0.00000000000E+00 0.  1.
         -1    1    6    6    0  502 -0.12292893371E+02 -0.31863296559E+02  0.11091956476E+02  0.35908444599E+02  0.00000000000E+00 0.  1.
<mgrwt>
<rscale>  0 0.12960923E+04</rscale>
<asrwt>0</asrwt>
<pdfrwt beam="1">  1        2 0.15140290E+00 0.12960923E+04</pdfrwt>
<pdfrwt beam="2">  1       -2 0.65652457E-01 0.12960923E+04</pdfrwt>
<totfact> 0.54039625E+01</totfact>
</mgrwt>
</event>
<event>
12    1  0.1496989E-007  0.2363121E+04  0.7818608E-02  0.8453441E-01
          2   -1    0    0  501    0  0.00000000000E+00  0.00000000000E+00  0.12742229593E+04  0.12742229593E+04  0.00000000000E+00 0. -1.
         -2   -1    0    0    0  501 -0.00000000000E+00 -0.00000000000E+00 -0.10956369370E+04  0.10956369370E+04  0.00000000000E+00 0.  1.
         23    2    1    2    0    0 -0.41847079019E+03  0.46753953466E+03  0.87842341044E+03  0.10834184328E+04  0.91960827896E+02 0.  0.
        254    2    1    2    0    0  0.41847079019E+03 -0.46753953466E+03 -0.69983738809E+03  0.12864414635E+04  0.87832126842E+03 0.  0.
        -24    2    4    4    0    0 -0.63001680601E+02 -0.16533183501E+03 -0.68519396644E+03  0.71193205848E+03  0.77798822763E+02 0.  0.
         24    2    4    4    0    0  0.48147247079E+03 -0.30220769964E+03 -0.14643421655E+02  0.57450940503E+03  0.81862035278E+02 0.  0.
         13    1    3    3    0    0 -0.15124942781E+03  0.17211431514E+03  0.24762651010E+03  0.33737014597E+03  0.00000000000E+00 0. -1.
        -13    1    3    3    0    0 -0.26722136238E+03  0.29542521952E+03  0.63079690034E+03  0.74604828686E+03  0.00000000000E+00 0.  1.
          4    1    6    6  502    0  0.11358265358E+03 -0.97648414292E+02 -0.32191396680E+02  0.15320743464E+03  0.00000000000E+00 0. -1.
          3    1    5    5  503    0 -0.10992114107E+02 -0.38332802160E+02 -0.30756353819E+03  0.31013796981E+03  0.00000000000E+00 0. -1.
         -4    1    5    5    0  503 -0.52009566495E+02 -0.12699903285E+03 -0.37763042825E+03  0.40179408867E+03  0.00000000000E+00 0.  1.
         -3    1    6    6    0  502  0.36788981721E+03 -0.20455928535E+03  0.17547975025E+02  0.42130197039E+03  0.00000000000E+00 0.  1.
<mgrwt>
<rscale>  0 0.23631214E+04</rscale>
<asrwt>0</asrwt>
<pdfrwt beam="1">  1        2 0.19603430E+00 0.23631214E+04</pdfrwt>
<pdfrwt beam="2">  1       -2 0.16855953E+00 0.23631214E+04</pdfrwt>
<totfact> 0.33694237E+00</totfact>
</mgrwt>
</event>
<event>
12    1  0.1496989E-007  0.1911175E+04  0.7818608E-02  0.8649314E-01
          2   -1    0    0  501    0  0.00000000000E+00  0.00000000000E+00  0.31941192980E+04  0.31941192980E+04  0.00000000000E+00 0. -1.
         -2   -1    0    0    0  501 -0.00000000000E+00 -0.00000000000E+00 -0.28588403251E+03  0.28588403251E+03  0.00000000000E+00 0.  1.
         23    2    1    2    0    0  0.26750559393E+03  0.68551990879E+03  0.11293816630E+04  0.13510181814E+04  0.90831699663E+02 0.  0.
        254    2    1    2    0    0 -0.26750559393E+03 -0.68551990879E+03  0.17788536025E+04  0.21289851491E+04  0.90926389891E+03 0.  0.
        -24    2    4    4    0    0  0.29859896684E+03 -0.23703697010E+03  0.33801429869E+03  0.51548072682E+03  0.78223049072E+02 0.  0.
         24    2    4    4    0    0 -0.56610456077E+03 -0.44848293869E+03  0.14408393038E+04  0.16135044223E+04  0.75942750346E+02 0.  0.
         11    1    3    3    0    0  0.11164404827E+03  0.35654145791E+03  0.64028746379E+03  0.74131925715E+03  0.00000000000E+00 0. -1.
        -11    1    3    3    0    0  0.15586154566E+03  0.32897845088E+03  0.48909419918E+03  0.60969892425E+03  0.00000000000E+00 0.  1.
          4    1    6    6  502    0 -0.76601950737E+01  0.25342604179E+01  0.21626196230E+02  0.23082318510E+02  0.00000000000E+00 0. -1.
          3    1    5    5  503    0  0.21583715294E+02 -0.34222230846E+02  0.66191366257E+02  0.77577798479E+02  0.00000000000E+00 0. -1.
         -4    1    5    5    0  503  0.27701525155E+03 -0.20281473926E+03  0.27182293244E+03  0.43790292834E+03  0.00000000000E+00 0.  1.
         -3    1    6    6    0  502 -0.55844436570E+03 -0.45101719911E+03  0.14192131076E+04  0.15904221038E+04  0.00000000000E+00 0.  1.
<mgrwt>
<rscale>  0 0.19111752E+04</rscale>
<asrwt>0</asrwt>
<pdfrwt beam="1">  1        2 0.49140294E+00 0.19111752E+04</pdfrwt>
<pdfrwt beam="2">  1       -2 0.43982161E-01 0.19111752E+04</pdfrwt>
<totfact> 0.60268100E+00</totfact>
</mgrwt>
</event>
<event>
12    1  0.1496989E-007  0.1971405E+04  0.7818608E-02  0.8620108E-01
         -1   -1    0    0    0  501 -0.00000000000E+00  0.00000000000E+00  0.73741931294E+03  0.73741931294E+03  0.00000000000E+00 0.  1.
          1   -1    0    0  501    0  0.00000000000E+00 -0.00000000000E+00 -0.13175807390E+04  0.13175807390E+04  0.00000000000E+00 0. -1.
         23    2    1    2    0    0  0.51324154572E+03 -0.37560289780E+01 -0.83598459702E+03  0.98543060016E+03  0.93660179783E+02 0.  0.
        254    2    1    2    0    0 -0.51324154572E+03  0.37560289780E+01  0.25582317096E+03  0.10695694518E+04  0.90283017527E+03 0.  0.
        -24    2    4    4    0    0 -0.38637053348E+03 -0.39869333832E+03  0.30419120052E+03  0.63804502398E+03  0.79565061402E+02 0.  0.
         24    2    4    4    0    0 -0.12687101224E+03  0.40244936729E+03 -0.48368029567E+02  0.43152442780E+03  0.76237251511E+02 0.  0.
         13    1    3    3    0    0  0.25529207416E+01  0.58293279787E+01 -0.34086560806E+02  0.34675525902E+02  0.00000000000E+00 0.  1.
        -13    1    3    3    0    0  0.51068862497E+03 -0.95853569567E+01 -0.80189803622E+03  0.95075507426E+03  0.00000000000E+00 0. -1.
          4    1    6    6  502    0 -0.79049470449E+02  0.14980454637E+03  0.25472859731E+01  0.16940103175E+03  0.00000000000E+00 0. -1.
          3    1    5    5  503    0 -0.18034538453E+03 -0.21172706798E+03  0.11161803637E+03  0.29968549361E+03  0.00000000000E+00 0. -1.
         -4    1    5    5    0  503 -0.20602514894E+03 -0.18696627033E+03  0.19257316416E+03  0.33835953037E+03  0.00000000000E+00 0.  1.
         -3    1    6    6    0  502 -0.47821541790E+02  0.25264482092E+03 -0.50915315540E+02  0.26212339605E+03  0.00000000000E+00 0.  1.
<mgrwt>
<rscale>  0 0.19714051E+04</rscale>
<asrwt>0</asrwt>
<pdfrwt beam="1">  1        1 0.20270473E+00 0.19714051E+04</pdfrwt>
<pdfrwt beam="2">  1       -1 0.11344913E+00 0.19714051E+04</pdfrwt>
<totfact> 0.57951620E+00</totfact>
</mgrwt>
</event>
<event>
12    1  0.1496989E-007  0.1201477E+04  0.7818608E-02  0.9111564E-01
          2   -1    0    0  501    0  0.00000000000E+00  0.00000000000E+00  0.42814511056E+03  0.42814511056E+03  0.00000000000E+00 0. -1.
         -2   -1    0    0    0  501 -0.00000000000E+00 -0.00000000000E+00 -0.84290789074E+03  0.84290789074E+03  0.00000000000E+00 0.  1.
         23    2    1    2    0    0  0.29369656607E+02  0.10029028675E+03 -0.32833350751E+03  0.35500663049E+03  0.85475711110E+02 0.  0.
        254    2    1    2    0    0 -0.29369656607E+02 -0.10029028675E+03 -0.86429272667E+02  0.91604637081E+03  0.90595265658E+03 0.  0.
        -24    2    4    4    0    0  0.32037196012E+03 -0.61367512355E+02  0.25308520529E+03  0.42039475349E+03  0.79217821353E+02 0.  0.
         24    2    4    4    0    0 -0.34974161673E+03 -0.38922774398E+02 -0.33951447796E+03  0.49565161732E+03  0.81032488383E+02 0.  0.
         13    1    3    3    0    0  0.57078847505E+02  0.52951097079E+02 -0.22378889856E+03  0.23694574196E+03  0.00000000000E+00 0. -1.
        -13    1    3    3    0    0 -0.27709190898E+02  0.47339189673E+02 -0.10454460895E+03  0.11806088853E+03  0.00000000000E+00 0.  1.
          2    1    6    6  502    0 -0.16066511272E+03 -0.28598548900E+02 -0.21125063798E+03  0.26694191782E+03  0.00000000000E+00 0. -1.
          1    1    5    5  503    0  0.19860795622E+03 -0.45107310382E+02  0.20353074259E+03  0.28793150731E+03  0.00000000000E+00 0. -1.
         -2    1    5    5    0  503  0.12176400391E+03 -0.16260201973E+02  0.49554462704E+02  0.13246324618E+03  0.00000000000E+00 0.  1.
         -1    1    6    6    0  502 -0.18907650400E+03 -0.10324225498E+02 -0.12826383998E+03  0.22870969950E+03  0.00000000000E+00 0.  1.
<mgrwt>
<rscale>  0 0.12014772E+04</rscale>
<asrwt>0</asrwt>
<pdfrwt beam="1">  1        2 0.65868480E-01 0.12014772E+04</pdfrwt>
<pdfrwt beam="2">  1       -2 0.12967814E+00 0.12014772E+04</pdfrwt>
<totfact> 0.31724352E+01</totfact>
</mgrwt>
</event>
<event>
12    1  0.1496989E-007  0.2158249E+04  0.7818608E-02  0.8536009E-01
          1   -1    0    0  501    0  0.00000000000E+00  0.00000000000E+00  0.62366868764E+03  0.62366868764E+03  0.00000000000E+00 0. -1.
         -1   -1    0    0    0  501 -0.00000000000E+00 -0.00000000000E+00 -0.18671931713E+04  0.18671931713E+04  0.00000000000E+00 0.  1.
         23    2    1    2    0    0  0.72460873541E+03 -0.13976277299E+03  0.50890387332E+02  0.74524427786E+03  0.90596633554E+02 0.  0.
        254    2    1    2    0    0 -0.72460873541E+03  0.13976277299E+03 -0.12944148710E+04  0.17456175811E+04  0.90943907384E+03 0.  0.
        -24    2    4    4    0    0 -0.97861219698E+02  0.16906889286E+03 -0.10440372268E+04  0.10652201294E+04  0.80740845575E+02 0.  0.
         24    2    4    4    0    0 -0.62674751571E+03 -0.29306119869E+02 -0.25037764420E+03  0.68039745176E+03  0.81119852885E+02 0.  0.
         13    1    3    3    0    0  0.23053151143E+02  0.97577278514E+01  0.93774768001E+01  0.26731967783E+02  0.00000000000E+00 0.  1.
        -13    1    3    3    0    0  0.70155558427E+03 -0.14952050084E+03  0.41512910532E+02  0.71851231008E+03  0.00000000000E+00 0. -1.
          4    1    6    6  502    0 -0.61879738586E+03 -0.20004725121E+02 -0.25118471049E+03  0.66813483112E+03  0.00000000000E+00 0. -1.
          1    1    5    5  503    0 -0.10654503642E+03  0.16297972459E+03 -0.10258536198E+04  0.10441694712E+04  0.00000000000E+00 0. -1.
         -2    1    5    5    0  503  0.86838167191E+01  0.60891682619E+01 -0.18183607050E+02  0.21050658143E+02  0.00000000000E+00 0.  1.
         -3    1    6    6    0  502 -0.79501298531E+01 -0.93013947484E+01  0.80706628746E+00  0.12262620639E+02  0.00000000000E+00 0.  1.
<mgrwt>
<rscale>  0 0.21582492E+04</rscale>
<asrwt>0</asrwt>
<pdfrwt beam="1">  1        1 0.95949029E-01 0.21582492E+04</pdfrwt>
<pdfrwt beam="2">  1       -1 0.28726049E+00 0.21582492E+04</pdfrwt>
<totfact> 0.11833976E+00</totfact>
</mgrwt>
</event>
<event>
12    1  0.1496989E-007  0.2049978E+04  0.7818608E-02  0.8583604E-01
         -1   -1    0    0    0  501 -0.00000000000E+00  0.00000000000E+00  0.10814657815E+04  0.10814657815E+04  0.00000000000E+00 0.  1.
          1   -1    0    0  501    0  0.00000000000E+00 -0.00000000000E+00 -0.97146123775E+03  0.97146123775E+03  0.00000000000E+00 0. -1.
         23    2    1    2    0    0 -0.66784332277E+03 -0.47060744678E+03  0.55400811154E+01  0.82219987647E+03  0.92173052677E+02 0.  0.
        254    2    1    2    0    0  0.66784332277E+03  0.47060744678E+03  0.10446446264E+03  0.12307271428E+04  0.91448914882E+03 0.  0.
        -24    2    4    4    0    0  0.11907573115E+03  0.18594637637E+03  0.45738089772E+03  0.51442560950E+03  0.81739448721E+02 0.  0.
         24    2    4    4    0    0  0.54876759161E+03  0.28466107041E+03 -0.35291643508E+03  0.71630153329E+03  0.79750121232E+02 0.  0.
         13    1    3    3    0    0 -0.57524923629E+03 -0.38413907514E+03  0.33239865220E+02  0.69251671571E+03  0.00000000000E+00 0. -1.
        -13    1    3    3    0    0 -0.92594086472E+02 -0.86468371637E+02 -0.27699784104E+02  0.12968316075E+03  0.00000000000E+00 0.  1.
          2    1    6    6  502    0  0.45403776380E+02  0.40696929383E+02 -0.15015075450E+02  0.62794868115E+02  0.00000000000E+00 0. -1.
          3    1    5    5  503    0  0.37698485456E+02  0.64772846220E+02  0.79123348387E+02  0.10898257509E+03  0.00000000000E+00 0. -1.
         -4    1    5    5    0  503  0.81377245698E+02  0.12117353015E+03  0.37825754933E+03  0.40544303441E+03  0.00000000000E+00 0.  1.
         -1    1    6    6    0  502  0.50336381523E+03  0.24396414103E+03 -0.33790135963E+03  0.65350666517E+03  0.00000000000E+00 0.  1.
<mgrwt>
<rscale>  0 0.20499776E+04</rscale>
<asrwt>0</asrwt>
<pdfrwt beam="1">  1        1 0.14945557E+00 0.20499776E+04</pdfrwt>
<pdfrwt beam="2">  1       -1 0.16637935E+00 0.20499776E+04</pdfrwt>
<totfact> 0.38522131E+00</totfact>
</mgrwt>
</event>
<event>
12    1  0.1496989E-007  0.1450516E+04  0.7818608E-02  0.8918043E-01
         -2   -1    0    0    0  501 -0.00000000000E+00  0.00000000000E+00  0.31530319184E+03  0.31530319184E+03  0.00000000000E+00 0. -1.
          2   -1    0    0  501    0  0.00000000000E+00 -0.00000000000E+00 -0.16682337461E+04  0.16682337461E+04  0.00000000000E+00 0.  1.
         23    2    1    2    0    0  0.11081174272E+03 -0.29220489896E+03 -0.15929081180E+02  0.32633637052E+03  0.92621519064E+02 0.  0.
        254    2    1    2    0    0 -0.11081174272E+03  0.29220489896E+03 -0.13370014731E+04  0.16572005674E+04  0.92794279800E+03 0.  0.
        -24    2    4    4    0    0  0.31696802268E+03  0.39914451186E+03 -0.56986394287E+03  0.76877270464E+03  0.80507696879E+02 0.  0.
         24    2    4    4    0    0 -0.42777976541E+03 -0.10693961290E+03 -0.76713753020E+03  0.88842786278E+03  0.79827743502E+02 0.  0.
         11    1    3    3    0    0  0.64788481343E+02 -0.22300990809E+03 -0.48214025424E+02  0.23718254292E+03  0.00000000000E+00 0.  1.
        -11    1    3    3    0    0  0.46023261380E+02 -0.69194990872E+02  0.32284944243E+02  0.89153827593E+02  0.00000000000E+00 0. -1.
          4    1    6    6  502    0 -0.31856373154E+02  0.49136331541E+01 -0.28917859569E+02  0.43303751608E+02  0.00000000000E+00 0. -1.
          3    1    5    5  503    0  0.50281879496E+02  0.10232178484E+03 -0.94118669405E+02  0.14783889539E+03  0.00000000000E+00 0. -1.
         -4    1    5    5    0  503  0.26668614319E+03  0.29682272702E+03 -0.47574527347E+03  0.62093380925E+03  0.00000000000E+00 0.  1.
         -3    1    6    6    0  502 -0.39592339225E+03 -0.11185324605E+03 -0.73821967063E+03  0.84512411117E+03  0.00000000000E+00 0.  1.
<mgrwt>
<rscale>  0 0.14505164E+04</rscale>
<asrwt>0</asrwt>
<pdfrwt beam="1">  1        2 0.25665135E+00 0.14505164E+04</pdfrwt>
<pdfrwt beam="2">  1       -2 0.48508183E-01 0.14505164E+04</pdfrwt>
<totfact> 0.39865857E+01</totfact>
</mgrwt>
</event>
<event>
12    1  0.1496989E-007  0.1563646E+04  0.7818608E-02  0.8843198E-01
         -2   -1    0    0    0  501 -0.00000000000E+00  0.00000000000E+00  0.23108942026E+03  0.23108942026E+03  0.00000000000E+00 0.  1.
          2   -1    0    0  501    0  0.00000000000E+00 -0.00000000000E+00 -0.26450688735E+04  0.26450688735E+04  0.00000000000E+00 0. -1.
         23    2    1    2    0    0 -0.44382020177E+03 -0.51004886245E+02 -0.11003647847E+04  0.11911314743E+04  0.91726004334E+02 0.  0.
        254    2    1    2    0    0  0.44382020177E+03  0.51004886245E+02 -0.13136146686E+04  0.16850268194E+04  0.95611401768E+03 0.  0.
        -24    2    4    4    0    0 -0.83201603584E+02  0.38981848873E+03 -0.37189329428E+03  0.55104912321E+03  0.80433530737E+02 0.  0.
         24    2    4    4    0    0  0.52702180535E+03 -0.33881360249E+03 -0.94172137427E+03  0.11339776962E+04  0.80744214553E+02 0.  0.
         11    1    3    3    0    0 -0.18217435872E+03 -0.54155526619E+02 -0.54558963962E+03  0.57774421061E+03  0.00000000000E+00 0. -1.
        -11    1    3    3    0    0 -0.26164584305E+03  0.31506403738E+01 -0.55477514508E+03  0.61338726374E+03  0.00000000000E+00 0.  1.
          4    1    6    6  502    0  0.34096178512E+03 -0.20704958142E+03 -0.52997113417E+03  0.66332033825E+03  0.00000000000E+00 0. -1.
          3    1    5    5  503    0 -0.89905549500E+02  0.38198523993E+03 -0.34598526141E+03  0.52316491899E+03  0.00000000000E+00 0. -1.
         -4    1    5    5    0  503  0.67039459160E+01  0.78332488042E+01 -0.25908032871E+02  0.27884204219E+02  0.00000000000E+00 0.  1.
         -3    1    6    6    0  502  0.18606002023E+03 -0.13176402107E+03 -0.41175024010E+03  0.47065735796E+03  0.00000000000E+00 0.  1.
<mgrwt>
<rscale>  0 0.15636463E+04</rscale>
<asrwt>0</asrwt>
<pdfrwt beam="1">  1        2 0.40693367E+00 0.15636463E+04</pdfrwt>
<pdfrwt beam="2">  1       -2 0.35552219E-01 0.15636463E+04</pdfrwt>
<totfact> 0.20532105E+01</totfact>
</mgrwt>
</event>
<event>
12    1  0.1496989E-007  0.1705978E+04  0.7818608E-02  0.8757962E-01
         -1   -1    0    0    0  501 -0.00000000000E+00  0.00000000000E+00  0.10506744038E+04  0.10506744038E+04  0.00000000000E+00 0.  1.
          1   -1    0    0  501    0  0.00000000000E+00 -0.00000000000E+00 -0.69249799624E+03  0.69249799624E+03  0.00000000000E+00 0. -1.
         23    2    1    2    0    0  0.48723900185E+03  0.17356552392E+03  0.46429050273E+03  0.70134718478E+03  0.93783616227E+02 0.  0.
        254    2    1    2    0    0 -0.48723900185E+03 -0.17356552392E+03 -0.10611409512E+03  0.10418252153E+04  0.89811621857E+03 0.  0.
        -24    2    4    4    0    0  0.84036519852E+01  0.23698577912E+03 -0.27542449980E+03  0.37181188723E+03  0.78438150938E+02 0.  0.
         24    2    4    4    0    0 -0.49564265383E+03 -0.41055130304E+03  0.16931040468E+03  0.67001332808E+03  0.77703500245E+02 0.  0.
         13    1    3    3    0    0  0.36989643046E+03  0.10717835772E+03  0.29605862855E+03  0.48575845970E+03  0.00000000000E+00 0.  1.
        -13    1    3    3    0    0  0.11734257138E+03  0.66387166200E+02  0.16823187418E+03  0.21558872509E+03  0.00000000000E+00 0. -1.
          4    1    6    6  502    0 -0.11935846809E+03 -0.11131836342E+03  0.77031229179E+02  0.18047723460E+03  0.00000000000E+00 0. -1.
          1    1    5    5  503    0  0.22965032167E+02  0.15274421189E+02 -0.30097725516E+02  0.40823690749E+02  0.00000000000E+00 0. -1.
         -2    1    5    5    0  503 -0.14561380182E+02  0.22171135793E+03 -0.24532677428E+03  0.33098819648E+03  0.00000000000E+00 0.  1.
         -3    1    6    6    0  502 -0.37628418574E+03 -0.29923293962E+03  0.92279175498E+02  0.48953609348E+03  0.00000000000E+00 0.  1.
<mgrwt>
<rscale>  0 0.17059776E+04</rscale>
<asrwt>0</asrwt>
<pdfrwt beam="1">  1        1 0.10653815E+00 0.17059776E+04</pdfrwt>
<pdfrwt beam="2">  1       -1 0.16164222E+00 0.17059776E+04</pdfrwt>
<totfact> 0.74807664E+00</totfact>
</mgrwt>
</event>
<event>
12    1  0.1496989E-007  0.1678344E+04  0.7818608E-02  0.8773813E-01
          1   -1    0    0  501    0  0.00000000000E+00  0.00000000000E+00  0.19597076557E+04  0.19597076557E+04  0.00000000000E+00 0. -1.
         -1   -1    0    0    0  501 -0.00000000000E+00 -0.00000000000E+00 -0.35934418974E+03  0.35934418974E+03  0.00000000000E+00 0.  1.
         23    2    1    2    0    0  0.57423647734E+03 -0.10885292373E+03  0.57249686216E+03  0.82313367388E+03  0.90553282531E+02 0.  0.
        254    2    1    2    0    0 -0.57423647734E+03  0.10885292373E+03  0.10278666037E+04  0.14959181715E+04  0.91633232502E+03 0.  0.
        -24    2    4    4    0    0 -0.34237684482E+03 -0.15186043747E+02  0.11449189838E+04  0.11978086297E+04  0.80333767289E+02 0.  0.
         24    2    4    4    0    0 -0.23185963252E+03  0.12403896747E+03 -0.11705238003E+03  0.29810954183E+03  0.77611111415E+02 0.  0.
         11    1    3    3    0    0  0.81784798347E+02 -0.62667379644E+00  0.44688009445E+02  0.93199593072E+02  0.00000000000E+00 0. -1.
        -11    1    3    3    0    0  0.49245167899E+03 -0.10822624993E+03  0.52780885272E+03  0.72993408081E+03  0.00000000000E+00 0.  1.
          2    1    6    6  502    0 -0.18922115408E+03  0.82253037960E+02 -0.58430011325E+02  0.21443944047E+03  0.00000000000E+00 0. -1.
          1    1    5    5  503    0 -0.33427250756E+03 -0.39241492091E+01  0.10513953083E+04  0.11032613482E+04  0.00000000000E+00 0. -1.
         -2    1    5    5    0  503 -0.81043372566E+01 -0.11261894538E+02  0.93523675519E+02  0.94547281471E+02  0.00000000000E+00 0.  1.
         -1    1    6    6    0  502 -0.42638478434E+02  0.41785929513E+02 -0.58622368703E+02  0.83670101355E+02  0.00000000000E+00 0.  1.
<mgrwt>
<rscale>  0 0.16783439E+04</rscale>
<asrwt>0</asrwt>
<pdfrwt beam="1">  1        1 0.30149348E+00 0.16783439E+04</pdfrwt>
<pdfrwt beam="2">  1       -1 0.55283722E-01 0.16783439E+04</pdfrwt>
<totfact> 0.10010511E+01</totfact>
</mgrwt>
</event>
<event>
12    1  0.1496989E-007  0.1350870E+04  0.7818608E-02  0.8990170E-01
          2   -1    0    0  501    0  0.00000000000E+00  0.00000000000E+00  0.83938841551E+03  0.83938841551E+03  0.00000000000E+00 0.  1.
         -2   -1    0    0    0  501 -0.00000000000E+00 -0.00000000000E+00 -0.54350592705E+03  0.54350592705E+03  0.00000000000E+00 0. -1.
         23    2    1    2    0    0  0.18510504775E+03  0.18297392334E+03 -0.18416614182E+03  0.33187330150E+03  0.92083576872E+02 0.  0.
        254    2    1    2    0    0 -0.18510504775E+03 -0.18297392334E+03  0.48004863029E+03  0.10510210411E+04  0.89802851068E+03 0.  0.
        -24    2    4    4    0    0 -0.23716575222E+03  0.28966741038E+03  0.41503983081E+03  0.56459111265E+03  0.79688522802E+02 0.  0.
         24    2    4    4    0    0  0.52060704466E+02 -0.47264133372E+03  0.65008799477E+02  0.48642992841E+03  0.79295548142E+02 0.  0.
         13    1    3    3    0    0  0.43774179097E+02  0.24595441674E+02 -0.82346784094E+02  0.96447433130E+02  0.00000000000E+00 0. -1.
        -13    1    3    3    0    0  0.14133086865E+03  0.15837848166E+03 -0.10181935772E+03  0.23542586837E+03  0.00000000000E+00 0.  1.
          2    1    6    6  502    0  0.14618397895E+02 -0.36735928425E+03  0.27982481138E+02  0.36871338535E+03  0.00000000000E+00 0. -1.
          1    1    5    5  503    0 -0.14115463191E+03  0.21426876987E+03  0.31822940781E+03  0.40878563067E+03  0.00000000000E+00 0. -1.
         -2    1    5    5    0  503 -0.96011120303E+02  0.75398640519E+02  0.96810423002E+02  0.15580548198E+03  0.00000000000E+00 0.  1.
         -1    1    6    6    0  502  0.37442306570E+02 -0.10528204947E+03  0.37026318339E+02  0.11771654307E+03  0.00000000000E+00 0.  1.
<mgrwt>
<rscale>  0 0.13508702E+04</rscale>
<asrwt>0</asrwt>
<pdfrwt beam="1">  1        2 0.12913668E+00 0.13508702E+04</pdfrwt>
<pdfrwt beam="2">  1       -2 0.83616296E-01 0.13508702E+04</pdfrwt>
<totfact> 0.39457704E+01</totfact>
</mgrwt>
</event>
<event>
12    1  0.1496989E-007  0.1496782E+04  0.7818608E-02  0.8886596E-01
          1   -1    0    0  501    0  0.00000000000E+00  0.00000000000E+00  0.53840151534E+03  0.53840151534E+03  0.00000000000E+00 0. -1.
         -1   -1    0    0    0  501 -0.00000000000E+00 -0.00000000000E+00 -0.10402812506E+04  0.10402812506E+04  0.00000000000E+00 0.  1.
         23    2    1    2    0    0 -0.59120308241E+02 -0.29118327099E+03 -0.54116569257E+03  0.62387927627E+03  0.89900702958E+02 0.  0.
        254    2    1    2    0    0  0.59120308241E+02  0.29118327099E+03  0.39285957323E+02  0.95480348966E+03  0.90654476408E+03 0.  0.
        -24    2    4    4    0    0 -0.35966656406E+02  0.60006720134E+03 -0.53467592460E+02  0.60913232862E+03  0.82517657645E+02 0.  0.
         24    2    4    4    0    0  0.95086964647E+02 -0.30888393035E+03  0.92753549783E+02  0.34567116104E+03  0.80215443051E+02 0.  0.
         13    1    3    3    0    0  0.10280765414E+02 -0.17503357776E+02 -0.85122548504E+02  0.87509484828E+02  0.00000000000E+00 0. -1.
        -13    1    3    3    0    0 -0.69401073655E+02 -0.27367991321E+03 -0.45604314407E+03  0.53636979144E+03  0.00000000000E+00 0.  1.
          2    1    6    6  502    0  0.80352859343E+01 -0.14028783289E+03  0.61433108341E+02  0.15335993178E+03  0.00000000000E+00 0. -1.
          3    1    5    5  503    0 -0.25315924899E+02  0.46796574285E+02 -0.91606463454E+01  0.53988265945E+02  0.00000000000E+00 0. -1.
         -4    1    5    5    0  503 -0.10650731508E+02  0.55327062706E+03 -0.44306946114E+02  0.55514406267E+03  0.00000000000E+00 0.  1.
         -1    1    6    6    0  502  0.87051678713E+02 -0.16859609746E+03  0.31320441442E+02  0.19231122926E+03  0.00000000000E+00 0.  1.
<mgrwt>
<rscale>  0 0.14967819E+04</rscale>
<asrwt>0</asrwt>
<pdfrwt beam="1">  1        1 0.82831003E-01 0.14967819E+04</pdfrwt>
<pdfrwt beam="2">  1       -1 0.16004327E+00 0.14967819E+04</pdfrwt>
<totfact> 0.11295259E+01</totfact>
</mgrwt>
</event>
<event>
12    1  0.1496989E-007  0.1969845E+04  0.7818608E-02  0.8620850E-01
          1   -1    0    0  501    0  0.00000000000E+00  0.00000000000E+00  0.17545121839E+04  0.17545121839E+04  0.00000000000E+00 0. -1.
         -1   -1    0    0    0  501 -0.00000000000E+00 -0.00000000000E+00 -0.55290168239E+03  0.55290168239E+03  0.00000000000E+00 0.  1.
         23    2    1    2    0    0 -0.48297592768E+03  0.60697315652E+03  0.59117925417E+03  0.97957186818E+03  0.91574968800E+02 0.  0.
        254    2    1    2    0    0  0.48297592768E+03 -0.60697315652E+03  0.61043124738E+03  0.13278419982E+04  0.88817560473E+03 0.  0.
        -24    2    4    4    0    0  0.55891194630E+03 -0.74082178825E+03  0.66772575572E+03  0.11460293535E+04  0.79536837982E+02 0.  0.
         24    2    4    4    0    0 -0.75936018618E+02  0.13384863173E+03 -0.57294508343E+02  0.18181264464E+03  0.78047690084E+02 0.  0.
         11    1    3    3    0    0 -0.38934162722E+03  0.44262395870E+03  0.47973351764E+03  0.76003099901E+03  0.00000000000E+00 0. -1.
        -11    1    3    3    0    0 -0.93634300462E+02  0.16434919782E+03  0.11144573653E+03  0.21954086917E+03  0.00000000000E+00 0.  1.
          4    1    6    6  502    0 -0.77239523453E+02  0.13238717824E+03 -0.70325264714E+02  0.16863555913E+03  0.00000000000E+00 0. -1.
          1    1    5    5  503    0  0.25947936715E+03 -0.37054447170E+03  0.37010984687E+03  0.58447758403E+03  0.00000000000E+00 0. -1.
         -2    1    5    5    0  503  0.29943257914E+03 -0.37027731655E+03  0.29761590885E+03  0.56155176948E+03  0.00000000000E+00 0.  1.
         -3    1    6    6    0  502  0.13035048345E+01  0.14614534909E+01  0.13030756371E+02  0.13177085518E+02  0.00000000000E+00 0.  1.
<mgrwt>
<rscale>  0 0.19698454E+04</rscale>
<asrwt>0</asrwt>
<pdfrwt beam="1">  1        1 0.26992495E+00 0.19698454E+04</pdfrwt>
<pdfrwt beam="2">  1       -1 0.85061798E-01 0.19698454E+04</pdfrwt>
<totfact> 0.55614716E+00</totfact>
</mgrwt>
</event>
<event>
12    1  0.1496989E-007  0.1130678E+04  0.7818608E-02  0.9175796E-01
          2   -1    0    0  501    0  0.00000000000E+00  0.00000000000E+00  0.11731734121E+04  0.11731734121E+04  0.00000000000E+00 0.  1.
         -2   -1    0    0    0  501 -0.00000000000E+00 -0.00000000000E+00 -0.27243055308E+03  0.27243055308E+03  0.00000000000E+00 0. -1.
         23    2    1    2    0    0  0.12238154238E+03  0.15762371298E+03  0.89439756017E+02  0.23675261946E+03  0.90718554091E+02 0.  0.
        254    2    1    2    0    0 -0.12238154238E+03 -0.15762371298E+03  0.81130310298E+03  0.12088513457E+04  0.87366262040E+03 0.  0.
        -24    2    4    4    0    0  0.31439504193E+03  0.14822142378E+03  0.32933079419E+03  0.48552175094E+03  0.80366446769E+02 0.  0.
         24    2    4    4    0    0 -0.43677658432E+03 -0.30584513676E+03  0.48197230879E+03  0.72332959477E+03  0.81199531659E+02 0.  0.
         13    1    3    3    0    0  0.27308108547E+02  0.65289779080E+02 -0.94424819114E+01  0.71397818659E+02  0.00000000000E+00 0.  1.
        -13    1    3    3    0    0  0.95073433837E+02  0.92333933901E+02  0.98882237928E+02  0.16535480080E+03  0.00000000000E+00 0. -1.
          2    1    6    6  502    0 -0.24209165474E+03 -0.12004971423E+03  0.23814923339E+03  0.36018795170E+03  0.00000000000E+00 0. -1.
          1    1    5    5  503    0  0.67555609859E+01  0.70140749328E+01 -0.39299955409E+01  0.10501414969E+02  0.00000000000E+00 0. -1.
         -2    1    5    5    0  503  0.30763948095E+03  0.14120734885E+03  0.33326078974E+03  0.47502033597E+03  0.00000000000E+00 0.  1.
         -1    1    6    6    0  502 -0.19468492957E+03 -0.18579542253E+03  0.24382307540E+03  0.36314164307E+03  0.00000000000E+00 0.  1.
<mgrwt>
<rscale>  0 0.11306782E+04</rscale>
<asrwt>0</asrwt>
<pdfrwt beam="1">  1        2 0.18048821E+00 0.11306782E+04</pdfrwt>
<pdfrwt beam="2">  1       -2 0.41912393E-01 0.11306782E+04</pdfrwt>
<totfact> 0.10502552E+02</totfact>
</mgrwt>
</event>
<event>
12    1  0.1496989E-007  0.1578214E+04  0.7818608E-02  0.8834045E-01
         -2   -1    0    0    0  501 -0.00000000000E+00  0.00000000000E+00  0.47916788298E+03  0.47916788298E+03  0.00000000000E+00 0.  1.
          2   -1    0    0  501    0  0.00000000000E+00 -0.00000000000E+00 -0.12995236271E+04  0.12995236271E+04  0.00000000000E+00 0. -1.
         23    2    1    2    0    0 -0.28361411364E+03 -0.24700425428E+03  0.13467543976E+03  0.41063207769E+03  0.95042948516E+02 0.  0.
        254    2    1    2    0    0  0.28361411364E+03  0.24700425428E+03 -0.95503118388E+03  0.13680594324E+04  0.90446336647E+03 0.  0.
        -24    2    4    4    0    0 -0.19393648419E+03 -0.18605676630E+03 -0.10815236615E+03  0.30060799425E+03  0.80248063650E+02 0.  0.
         24    2    4    4    0    0  0.47755059783E+03  0.43306102058E+03 -0.84687881773E+03  0.10674514381E+04  0.81562367831E+02 0.  0.
         11    1    3    3    0    0 -0.15258641657E+02 -0.39347216397E+02 -0.72657838427E+01  0.42823138585E+02  0.00000000000E+00 0. -1.
        -11    1    3    3    0    0 -0.26835547199E+03 -0.20765703788E+03  0.14194122360E+03  0.36780893910E+03  0.00000000000E+00 0.  1.
          4    1    6    6  502    0  0.26564088075E+03  0.28954150104E+03 -0.54053786133E+03  0.66826681638E+03  0.00000000000E+00 0. -1.
          3    1    5    5  503    0 -0.14351251958E+03 -0.17320163172E+03 -0.68330502788E+02  0.23508233902E+03  0.00000000000E+00 0. -1.
         -4    1    5    5    0  503 -0.50423964606E+02 -0.12855134574E+02 -0.39821863366E+02  0.65525655231E+02  0.00000000000E+00 0.  1.
         -3    1    6    6    0  502  0.21190971708E+03  0.14351951953E+03 -0.30634095640E+03  0.39918462176E+03  0.00000000000E+00 0.  1.
<mgrwt>
<rscale>  0 0.15782142E+04</rscale>
<asrwt>0</asrwt>
<pdfrwt beam="1">  1        2 0.19992671E+00 0.15782142E+04</pdfrwt>
<pdfrwt beam="2">  1       -2 0.73718137E-01 0.15782142E+04</pdfrwt>
<totfact> 0.26360591E+01</totfact>
</mgrwt>
</event>
<event>
12    1  0.1496989E-007  0.3476549E+04  0.7818608E-02  0.8119370E-01
          4   -1    0    0  501    0  0.00000000000E+00  0.00000000000E+00  0.19755256491E+04  0.19755256491E+04  0.00000000000E+00 0. -1.
         -4   -1    0    0    0  501 -0.00000000000E+00 -0.00000000000E+00 -0.15295163940E+04  0.15295163940E+04  0.00000000000E+00 0.  1.
         23    2    1    2    0    0  0.69606836303E+03  0.82135451159E+03  0.14171729054E+04  0.17821132105E+04  0.91728139667E+02 0.  0.
        254    2    1    2    0    0 -0.69606836303E+03 -0.82135451159E+03 -0.97116365026E+03  0.17229288325E+04  0.93069357293E+03 0.  0.
        -24    2    4    4    0    0 -0.17506384009E+03  0.56988745466E+02 -0.60103341623E+03  0.63380979686E+03  0.81108729250E+02 0.  0.
         24    2    4    4    0    0 -0.52100452294E+03 -0.87834325706E+03 -0.37013023403E+03  0.10891190357E+04  0.79065122484E+02 0.  0.
         11    1    3    3    0    0  0.64141831620E+03  0.78955991796E+03  0.13304449129E+04  0.16747853554E+04  0.00000000000E+00 0. -1.
        -11    1    3    3    0    0  0.54650046833E+02  0.31794593636E+02  0.86727992440E+02  0.10732785508E+03  0.00000000000E+00 0.  1.
          4    1    6    6  502    0 -0.53910872521E+02 -0.14595293134E+03 -0.59878065866E+02  0.16671539556E+03  0.00000000000E+00 0. -1.
          3    1    5    5  503    0 -0.80864746426E+02 -0.12611313537E+02 -0.20221524460E+03  0.21814939283E+03  0.00000000000E+00 0. -1.
         -4    1    5    5    0  503 -0.94199093666E+02  0.69600059003E+02 -0.39881817162E+03  0.41566040403E+03  0.00000000000E+00 0.  1.
         -3    1    6    6    0  502 -0.46709365042E+03 -0.73239032572E+03 -0.31025216817E+03  0.92240364013E+03  0.00000000000E+00 0.  1.
<mgrwt>
<rscale>  0 0.34765494E+04</rscale>
<asrwt>0</asrwt>
<pdfrwt beam="1">  1        4 0.30392702E+00 0.34765494E+04</pdfrwt>
<pdfrwt beam="2">  1       -4 0.23531021E+00 0.34765494E+04</pdfrwt>
<totfact> 0.36978531E-03</totfact>
</mgrwt>
</event>
<event>
12    1  0.1496989E-007  0.3047573E+04  0.7818608E-02  0.8230275E-01
          1   -1    0    0  501    0  0.00000000000E+00  0.00000000000E+00  0.32503191931E+04  0.32503191931E+04  0.00000000000E+00 0. -1.
         -1   -1    0    0    0  501 -0.00000000000E+00 -0.00000000000E+00 -0.71436851732E+03  0.71436851732E+03  0.00000000000E+00 0.  1.
         23    2    1    2    0    0 -0.56125557798E+02 -0.11898572342E+04  0.20770622185E+04  0.23961248573E+04  0.91195154713E+02 0.  0.
        254    2    1    2    0    0  0.56125557798E+02  0.11898572342E+04  0.45888845723E+03  0.15685628531E+04  0.91153743305E+03 0.  0.
        -24    2    4    4    0    0  0.11262265014E+03  0.79339252878E+03 -0.16553253369E+03  0.82253097517E+03  0.83669704003E+02 0.  0.
         24    2    4    4    0    0 -0.56497092345E+02  0.39646470543E+03  0.62442099092E+03  0.74603187790E+03  0.79283067878E+02 0.  0.
         11    1    3    3    0    0 -0.79746159453E+02 -0.10083681311E+04  0.17713897593E+04  0.20398498517E+04  0.00000000000E+00 0. -1.
        -11    1    3    3    0    0  0.23620601655E+02 -0.18148910308E+03  0.30567245920E+03  0.35627500568E+03  0.00000000000E+00 0.  1.
          2    1    6    6  502    0 -0.64822378184E+01 -0.16326593777E+01  0.68642235804E+01  0.95813646805E+01  0.00000000000E+00 0. -1.
          1    1    5    5  503    0  0.94200883862E+02  0.38187715338E+03 -0.67108265973E+02  0.39900812793E+03  0.00000000000E+00 0. -1.
         -2    1    5    5    0  503  0.18421766281E+02  0.41151537540E+03 -0.98424267713E+02  0.42352284725E+03  0.00000000000E+00 0.  1.
         -1    1    6    6    0  502 -0.50014854526E+02  0.39809736481E+03  0.61755676734E+03  0.73645051322E+03  0.00000000000E+00 0.  1.
<mgrwt>
<rscale>  0 0.30475733E+04</rscale>
<asrwt>0</asrwt>
<pdfrwt beam="1">  1        1 0.50004910E+00 0.30475733E+04</pdfrwt>
<pdfrwt beam="2">  1       -1 0.10990285E+00 0.30475733E+04</pdfrwt>
<totfact> 0.25227845E-01</totfact>
</mgrwt>
</event>
<event>
12    1  0.1496989E-007  0.2218762E+04  0.7818608E-02  0.8510659E-01
          1   -1    0    0  501    0  0.00000000000E+00  0.00000000000E+00  0.12152754913E+04  0.12152754913E+04  0.00000000000E+00 0. -1.
         -1   -1    0    0    0  501 -0.00000000000E+00 -0.00000000000E+00 -0.10127135776E+04  0.10127135776E+04  0.00000000000E+00 0.  1.
         23    2    1    2    0    0 -0.60646748209E+03 -0.48253587807E+03  0.59318861446E+03  0.98017016894E+03  0.90648481945E+02 0.  0.
        254    2    1    2    0    0  0.60646748209E+03  0.48253587807E+03 -0.39062670073E+03  0.12478188999E+04  0.89655959488E+03 0.  0.
        -24    2    4    4    0    0  0.46188286447E+03  0.19418766946E+03 -0.65098767579E+03  0.82542230638E+03  0.80575420419E+02 0.  0.
         24    2    4    4    0    0  0.14458461762E+03  0.28834820862E+03  0.26036097506E+03  0.42239659353E+03  0.81127330944E+02 0.  0.
         11    1    3    3    0    0 -0.56403662277E+03 -0.41595788737E+03  0.54361170062E+03  0.88694529535E+03  0.00000000000E+00 0. -1.
        -11    1    3    3    0    0 -0.42430859321E+02 -0.66577990705E+02  0.49576913849E+02  0.93224873590E+02  0.00000000000E+00 0.  1.
          4    1    6    6  502    0  0.12145654085E+03  0.24766967086E+03  0.17992675350E+03  0.32934115109E+03  0.00000000000E+00 0. -1.
          1    1    5    5  503    0  0.45839318686E+03  0.19118275887E+03 -0.65298295121E+03  0.82040349562E+03  0.00000000000E+00 0. -1.
         -2    1    5    5    0  503  0.34896776108E+01  0.30049105878E+01  0.19952754197E+01  0.50188107624E+01  0.00000000000E+00 0.  1.
         -3    1    6    6    0  502  0.23128076775E+02  0.40678537760E+02  0.80434221559E+02  0.93055442438E+02  0.00000000000E+00 0.  1.
<mgrwt>
<rscale>  0 0.22187618E+04</rscale>
<asrwt>0</asrwt>
<pdfrwt beam="1">  1        1 0.18696546E+00 0.22187618E+04</pdfrwt>
<pdfrwt beam="2">  1       -1 0.15580209E+00 0.22187618E+04</pdfrwt>
<totfact> 0.29827421E+00</totfact>
</mgrwt>
</event>
<event>
12    1  0.1496989E-007  0.1359731E+04  0.7818608E-02  0.8983494E-01
         -1   -1    0    0    0  501 -0.00000000000E+00  0.00000000000E+00  0.93359752111E+03  0.93359752111E+03  0.00000000000E+00 0.  1.
          1   -1    0    0  501    0  0.00000000000E+00 -0.00000000000E+00 -0.49509239656E+03  0.49509239656E+03  0.00000000000E+00 0. -1.
         23    2    1    2    0    0 -0.11353529409E+03  0.20864784876E+03  0.43328949067E+03  0.50252851068E+03  0.91492805849E+02 0.  0.
        254    2    1    2    0    0  0.11353529409E+03 -0.20864784876E+03  0.52156338797E+01  0.92616140699E+03  0.89516677841E+03 0.  0.
        -24    2    4    4    0    0  0.23463640302E+03  0.13025588716E+03  0.33161322548E+03  0.43395671868E+03  0.79562960080E+02 0.  0.
         24    2    4    4    0    0 -0.12110110892E+03 -0.33890373592E+03 -0.32639759160E+03  0.49220468830E+03  0.78796234592E+02 0.  0.
         13    1    3    3    0    0 -0.12492288593E+02  0.11150720767E+03  0.16043795319E+03  0.19578113152E+03  0.00000000000E+00 0.  1.
        -13    1    3    3    0    0 -0.10104300550E+03  0.97140641083E+02  0.27285153749E+03  0.30674737916E+03  0.00000000000E+00 0. -1.
          4    1    6    6  502    0 -0.94999184456E+02 -0.16205175500E+03 -0.14288840093E+03  0.23601421878E+03  0.00000000000E+00 0. -1.
          3    1    5    5  503    0  0.21908430630E+03  0.12802139483E+03  0.27063202577E+03  0.37098396754E+03  0.00000000000E+00 0. -1.
         -4    1    5    5    0  503  0.15552096716E+02  0.22344923315E+01  0.60981199708E+02  0.62972751139E+02  0.00000000000E+00 0.  1.
         -3    1    6    6    0  502 -0.26101924468E+02 -0.17685198092E+03 -0.18350919067E+03  0.25619046952E+03  0.00000000000E+00 0.  1.
<mgrwt>
<rscale>  0 0.13597309E+04</rscale>
<asrwt>0</asrwt>
<pdfrwt beam="1">  1        1 0.76168061E-01 0.13597309E+04</pdfrwt>
<pdfrwt beam="2">  1       -1 0.14363039E+00 0.13597309E+04</pdfrwt>
<totfact> 0.17221901E+01</totfact>
</mgrwt>
</event>
<event>
12    1  0.1496989E-007  0.2681798E+04  0.7818608E-02  0.8340935E-01
         -2   -1    0    0    0  501 -0.00000000000E+00  0.00000000000E+00  0.16674341833E+04  0.16674341833E+04  0.00000000000E+00 0.  1.
          2   -1    0    0  501    0  0.00000000000E+00 -0.00000000000E+00 -0.10783098494E+04  0.10783098494E+04  0.00000000000E+00 0. -1.
         23    2    1    2    0    0 -0.51479871416E+03 -0.99311616393E+03 -0.15632487555E+03  0.11337264478E+04  0.97983471190E+02 0.  0.
        254    2    1    2    0    0  0.51479871416E+03  0.99311616393E+03  0.74544920939E+03  0.16120175848E+04  0.88972396782E+03 0.  0.
        -24    2    4    4    0    0  0.14881820580E+03  0.81209536175E+02  0.58337896082E+03  0.61304019056E+03  0.82130482544E+02 0.  0.
         24    2    4    4    0    0  0.36598050836E+03  0.91190662775E+03  0.16207024857E+03  0.99897739429E+03  0.78572505349E+02 0.  0.
         11    1    3    3    0    0 -0.27214475246E+03 -0.43512322777E+03 -0.45369601101E+02  0.51522169048E+03  0.00000000000E+00 0. -1.
        -11    1    3    3    0    0 -0.24265396170E+03 -0.55799293616E+03 -0.11095527445E+03  0.61850475735E+03  0.00000000000E+00 0.  1.
          4    1    6    6  502    0  0.14012492798E+02  0.57640863375E+02  0.27179722402E+02  0.65249953217E+02  0.00000000000E+00 0. -1.
          1    1    5    5  503    0  0.45641970350E+01  0.26974597771E+02  0.41769693716E+02  0.49931634588E+02  0.00000000000E+00 0. -1.
         -2    1    5    5    0  503  0.14425400877E+03  0.54234938404E+02  0.54160926711E+03  0.56310855597E+03  0.00000000000E+00 0.  1.
         -3    1    6    6    0  502  0.35196801556E+03  0.85426576438E+03  0.13489052617E+03  0.93372744107E+03  0.00000000000E+00 0.  1.
<mgrwt>
<rscale>  0 0.26817984E+04</rscale>
<asrwt>0</asrwt>
<pdfrwt beam="1">  1        2 0.16589382E+00 0.26817984E+04</pdfrwt>
<pdfrwt beam="2">  1       -2 0.25652834E+00 0.26817984E+04</pdfrwt>
<totfact> 0.11567883E+00</totfact>
</mgrwt>
</event>
<event>
12    1  0.1496989E-007  0.2778601E+04  0.7818608E-02  0.8309943E-01
         -2   -1    0    0    0  501 -0.00000000000E+00  0.00000000000E+00  0.45401106709E+03  0.45401106709E+03  0.00000000000E+00 0.  1.
          2   -1    0    0  501    0  0.00000000000E+00 -0.00000000000E+00 -0.42513419467E+04  0.42513419467E+04  0.00000000000E+00 0. -1.
         23    2    1    2    0    0  0.45121330092E+03 -0.63933526660E+03 -0.33352898612E+04  0.34271636816E+04  0.94601354410E+02 0.  0.
        254    2    1    2    0    0 -0.45121330092E+03  0.63933526660E+03 -0.46204101848E+03  0.12781893322E+04  0.89885651817E+03 0.  0.
        -24    2    4    4    0    0 -0.15086571409E+03  0.13195452846E+03 -0.62486952997E+03  0.66127019091E+03  0.81509966470E+02 0.  0.
         24    2    4    4    0    0 -0.30034758683E+03  0.50738073815E+03  0.16282851150E+03  0.61691914133E+03  0.80201099892E+02 0.  0.
         13    1    3    3    0    0  0.28164243676E+03 -0.36194003637E+03 -0.21285083241E+04  0.21773540681E+04  0.00000000000E+00 0. -1.
        -13    1    3    3    0    0  0.16957086416E+03 -0.27739523023E+03 -0.12067815371E+04  0.12498096135E+04  0.00000000000E+00 0.  1.
          4    1    6    6  502    0 -0.29439935834E+03  0.50003767541E+03  0.17044588771E+03  0.60478133210E+03  0.00000000000E+00 0. -1.
          1    1    5    5  503    0 -0.15489286962E+03  0.11924955922E+03 -0.61303230554E+03  0.64344453224E+03  0.00000000000E+00 0. -1.
         -2    1    5    5    0  503  0.40271555293E+01  0.12704969232E+02 -0.11837224431E+02  0.17825658671E+02  0.00000000000E+00 0.  1.
         -3    1    6    6    0  502 -0.59482284860E+01  0.73430627370E+01 -0.76173762105E+01  0.12137809226E+02  0.00000000000E+00 0.  1.
<mgrwt>
<rscale>  0 0.27786013E+04</rscale>
<asrwt>0</asrwt>
<pdfrwt beam="1">  1        2 0.65405261E+00 0.27786013E+04</pdfrwt>
<pdfrwt beam="2">  1       -2 0.69847856E-01 0.27786013E+04</pdfrwt>
<totfact> 0.34177421E-01</totfact>
</mgrwt>
</event>
<event>
12    1  0.1496989E-007  0.1755770E+04  0.7818608E-02  0.8730181E-01
          1   -1    0    0  501    0  0.00000000000E+00  0.00000000000E+00  0.19839336044E+04  0.19839336044E+04  0.00000000000E+00 0. -1.
         -1   -1    0    0    0  501 -0.00000000000E+00 -0.00000000000E+00 -0.38846141230E+03  0.38846141230E+03  0.00000000000E+00 0.  1.
         23    2    1    2    0    0 -0.20546688895E+03 -0.46714161966E+02  0.14099032989E+04  0.14286771577E+04  0.94298744435E+02 0.  0.
        254    2    1    2    0    0  0.20546688895E+03  0.46714161966E+02  0.18556889319E+03  0.94371785902E+03  0.90098209079E+03 0.  0.
        -24    2    4    4    0    0 -0.19463055882E+03 -0.24138326576E+03  0.29167432094E+03  0.43338425025E+03  0.81246928888E+02 0.  0.
         24    2    4    4    0    0  0.40009744778E+03  0.28809742773E+03 -0.10610542775E+03  0.51033360877E+03  0.78127683078E+02 0.  0.
         11    1    3    3    0    0 -0.19138318449E+03 -0.20216926329E+02  0.13185844890E+04  0.13325544274E+04  0.00000000000E+00 0. -1.
        -11    1    3    3    0    0 -0.14083704459E+02 -0.26497235637E+02  0.91318809933E+02  0.96122730274E+02  0.00000000000E+00 0.  1.
          4    1    6    6  502    0  0.22700714505E+03  0.20396925250E+03 -0.45436217440E+02  0.30854521504E+03  0.00000000000E+00 0. -1.
          1    1    5    5  503    0 -0.16414463190E+03 -0.20309500625E+03  0.19806039674E+03  0.32774832189E+03  0.00000000000E+00 0. -1.
         -2    1    5    5    0  503 -0.30485926925E+02 -0.38288259506E+02  0.93613924195E+02  0.10563592836E+03  0.00000000000E+00 0.  1.
         -3    1    6    6    0  502  0.17309030272E+03  0.84128175228E+02 -0.60669210309E+02  0.20178839373E+03  0.00000000000E+00 0.  1.
<mgrwt>
<rscale>  0 0.17557695E+04</rscale>
<asrwt>0</asrwt>
<pdfrwt beam="1">  1        1 0.30522055E+00 0.17557695E+04</pdfrwt>
<pdfrwt beam="2">  1       -1 0.59763295E-01 0.17557695E+04</pdfrwt>
<totfact> 0.82173080E+00</totfact>
</mgrwt>
</event>
<event>
12    1  0.1496989E-007  0.1886078E+04  0.7818608E-02  0.8661817E-01
          2   -1    0    0  501    0  0.00000000000E+00  0.00000000000E+00  0.16129555763E+04  0.16129555763E+04  0.00000000000E+00 0. -1.
         -2   -1    0    0    0  501 -0.00000000000E+00 -0.00000000000E+00 -0.55136202739E+03  0.55136202739E+03  0.00000000000E+00 0.  1.
         23    2    1    2    0    0  0.20577834609E+03 -0.46730837150E+03  0.99616008418E+03  0.11230962884E+04  0.91041297357E+02 0.  0.
        254    2    1    2    0    0 -0.20577834609E+03  0.46730837150E+03  0.65433464702E+02  0.10412213153E+04  0.90506267592E+03 0.  0.
        -24    2    4    4    0    0  0.22475173877E+03 -0.31850553346E+02  0.25444134986E+03  0.35094363182E+03  0.83025480243E+02 0.  0.
         24    2    4    4    0    0 -0.43053008486E+03  0.49915892485E+03 -0.18900788516E+03  0.69027768348E+03  0.79015906243E+02 0.  0.
         13    1    3    3    0    0  0.83397832948E+02 -0.14611361719E+03  0.24705629057E+03  0.29889998056E+03  0.00000000000E+00 0.  1.
        -13    1    3    3    0    0  0.12238051314E+03 -0.32119475431E+03  0.74910379360E+03  0.82419630780E+03  0.00000000000E+00 0. -1.
          4    1    6    6  502    0 -0.31355086054E+03  0.33925782460E+03 -0.16573358001E+03  0.49079286185E+03  0.00000000000E+00 0. -1.
          3    1    5    5  503    0  0.12667423433E+03 -0.17371575811E+02  0.20125919035E+03  0.23843949964E+03  0.00000000000E+00 0. -1.
         -4    1    5    5    0  503  0.98077504442E+02 -0.14478977536E+02  0.53182159512E+02  0.11250413218E+03  0.00000000000E+00 0.  1.
         -3    1    6    6    0  502 -0.11697922432E+03  0.15990110025E+03 -0.23274305147E+02  0.19948482164E+03  0.00000000000E+00 0.  1.
<mgrwt>
<rscale>  0 0.18860779E+04</rscale>
<asrwt>0</asrwt>
<pdfrwt beam="1">  1        2 0.24814701E+00 0.18860779E+04</pdfrwt>
<pdfrwt beam="2">  1       -2 0.84824928E-01 0.18860779E+04</pdfrwt>
<totfact> 0.12448192E+01</totfact>
</mgrwt>
</event>
<event>
12    1  0.1496989E-007  0.1087840E+04  0.7818608E-02  0.9217126E-01
         -1   -1    0    0    0  501 -0.00000000000E+00  0.00000000000E+00  0.76012786380E+02  0.76012786380E+02  0.00000000000E+00 0.  1.
          1   -1    0    0  501    0  0.00000000000E+00 -0.00000000000E+00 -0.38920912538E+04  0.38920912538E+04  0.00000000000E+00 0. -1.
         23    2    1    2    0    0  0.42518732578E+02 -0.13820407100E+03 -0.59048391004E+03  0.61474769794E+03  0.91297734041E+02 0.  0.
        254    2    1    2    0    0 -0.42518732578E+02  0.13820407100E+03 -0.32255945574E+04  0.33533563422E+04  0.90533435901E+03 0.  0.
        -24    2    4    4    0    0  0.30737412556E+03  0.36555692477E+03 -0.14946515807E+04  0.15710346945E+04  0.77819955226E+02 0.  0.
         24    2    4    4    0    0 -0.34989285814E+03 -0.22735285377E+03 -0.17309429767E+04  0.17823216477E+04  0.79953330650E+02 0.  0.
         13    1    3    3    0    0  0.74226115447E+01 -0.13546704724E+03 -0.47841872064E+03  0.49728350899E+03  0.00000000000E+00 0.  1.
        -13    1    3    3    0    0  0.35096121033E+02 -0.27370237604E+01 -0.11206518940E+03  0.11746418895E+03  0.00000000000E+00 0. -1.
          4    1    6    6  502    0 -0.14539450921E+02 -0.37952641924E+01 -0.15237895224E+03  0.15311807453E+03  0.00000000000E+00 0. -1.
          3    1    5    5  503    0  0.58167938746E+02  0.73430644529E+02 -0.20411388429E+03  0.22458416331E+03  0.00000000000E+00 0. -1.
         -4    1    5    5    0  503  0.24920618681E+03  0.29212628024E+03 -0.12905376964E+04  0.13464505312E+04  0.00000000000E+00 0.  1.
         -3    1    6    6    0  502 -0.33535340722E+03 -0.22355758958E+03 -0.15785640244E+04  0.16292035732E+04  0.00000000000E+00 0.  1.
<mgrwt>
<rscale>  0 0.10878395E+04</rscale>
<asrwt>0</asrwt>
<pdfrwt beam="1">  1        1 0.59878319E+00 0.10878395E+04</pdfrwt>
<pdfrwt beam="2">  1       -1 0.11694276E-01 0.10878395E+04</pdfrwt>
<totfact> 0.60759050E+00</totfact>
</mgrwt>
</event>
<event>
12    1  0.1496989E-007  0.2049161E+04  0.7818608E-02  0.8583975E-01
         -2   -1    0    0    0  501 -0.00000000000E+00  0.00000000000E+00  0.45750536923E+03  0.45750536923E+03  0.00000000000E+00 0.  1.
          2   -1    0    0  501    0  0.00000000000E+00 -0.00000000000E+00 -0.22945416039E+04  0.22945416039E+04  0.00000000000E+00 0. -1.
         23    2    1    2    0    0  0.65355998548E+03 -0.13671873888E+03 -0.13930095328E+04  0.15474273427E+04  0.90681609397E+02 0.  0.
        254    2    1    2    0    0 -0.65355998548E+03  0.13671873888E+03 -0.44402670183E+03  0.12046196304E+04  0.89895276507E+03 0.  0.
        -24    2    4    4    0    0  0.33435463536E+02 -0.74374409242E+02 -0.46742010471E+03  0.48096770879E+03  0.78733091138E+02 0.  0.
         24    2    4    4    0    0 -0.68699544901E+03  0.21109314813E+03  0.23393402877E+02  0.72365192161E+03  0.81251388946E+02 0.  0.
         11    1    3    3    0    0  0.61601095150E+03 -0.14967841135E+03 -0.13189621430E+04  0.14633981870E+04  0.00000000000E+00 0. -1.
        -11    1    3    3    0    0  0.37549033978E+02  0.12959672469E+02 -0.74047389837E+02  0.84029155683E+02  0.00000000000E+00 0.  1.
          2    1    6    6  502    0 -0.44520891167E+03  0.13326092450E+03  0.53818945763E+02  0.46783108913E+03  0.00000000000E+00 0. -1.
          3    1    5    5  503    0 -0.10573169922E+02  0.84060787359E+01 -0.22220701552E+02  0.26004108510E+02  0.00000000000E+00 0. -1.
         -4    1    5    5    0  503  0.44008633457E+02 -0.82780487978E+02 -0.44519940316E+03  0.45496360028E+03  0.00000000000E+00 0.  1.
         -1    1    6    6    0  502 -0.24178653734E+03  0.77832223626E+02 -0.30425542885E+02  0.25582083248E+03  0.00000000000E+00 0.  1.
<mgrwt>
<rscale>  0 0.20491609E+04</rscale>
<asrwt>0</asrwt>
<pdfrwt beam="1">  1        2 0.35300640E+00 0.20491609E+04</pdfrwt>
<pdfrwt beam="2">  1       -2 0.70385441E-01 0.20491609E+04</pdfrwt>
<totfact> 0.77612767E+00</totfact>
</mgrwt>
</event>
<event>
12    1  0.1496989E-007  0.1820405E+04  0.7818608E-02  0.8695523E-01
         -2   -1    0    0    0  501 -0.00000000000E+00  0.00000000000E+00  0.12612953278E+04  0.12612953278E+04  0.00000000000E+00 0.  1.
          2   -1    0    0  501    0  0.00000000000E+00 -0.00000000000E+00 -0.65683959973E+03  0.65683959973E+03  0.00000000000E+00 0. -1.
         23    2    1    2    0    0 -0.12511293343E+02  0.29265352179E+02  0.93686462944E+03  0.94151797289E+03  0.87907713509E+02 0.  0.
        254    2    1    2    0    0  0.12511293343E+02 -0.29265352179E+02 -0.33240890137E+03  0.97661695463E+03  0.91775378237E+03 0.  0.
        -24    2    4    4    0    0  0.65386825187E+02 -0.77877999255E+02 -0.63941735350E+03  0.65206677177E+03  0.77434509175E+02 0.  0.
         24    2    4    4    0    0 -0.52875531844E+02  0.48612647076E+02  0.30700845213E+03  0.32455018286E+03  0.76939068015E+02 0.  0.
         13    1    3    3    0    0  0.15924275017E+02  0.53301075732E+02  0.50649052607E+03  0.50953629920E+03  0.00000000000E+00 0. -1.
        -13    1    3    3    0    0 -0.28435568360E+02 -0.24035723553E+02  0.43037410337E+03  0.43198167369E+03  0.00000000000E+00 0.  1.
          2    1    6    6  502    0 -0.66439921998E+02  0.18638050533E+02  0.24263056441E+03  0.25225231604E+03  0.00000000000E+00 0. -1.
          1    1    5    5  503    0  0.17298773351E+02 -0.31712532147E+02 -0.44646219428E+03  0.44792122429E+03  0.00000000000E+00 0. -1.
         -2    1    5    5    0  503  0.48088051836E+02 -0.46165467108E+02 -0.19295515923E+03  0.20414554748E+03  0.00000000000E+00 0.  1.
         -1    1    6    6    0  502  0.13564390154E+02  0.29974596542E+02  0.64377887726E+02  0.72297866816E+02  0.00000000000E+00 0.  1.
<mgrwt>
<rscale>  0 0.18204051E+04</rscale>
<asrwt>0</asrwt>
<pdfrwt beam="1">  1        2 0.10105225E+00 0.18204051E+04</pdfrwt>
<pdfrwt beam="2">  1       -2 0.19404544E+00 0.18204051E+04</pdfrwt>
<totfact> 0.60873057E+00</totfact>
</mgrwt>
</event>
<event>
12    1  0.1496989E-007  0.2961828E+04  0.7818608E-02  0.8254716E-01
          1   -1    0    0  501    0  0.00000000000E+00  0.00000000000E+00  0.27215990048E+04  0.27215990048E+04  0.00000000000E+00 0. -1.
         -1   -1    0    0    0  501 -0.00000000000E+00 -0.00000000000E+00 -0.80581548226E+03  0.80581548226E+03  0.00000000000E+00 0.  1.
         23    2    1    2    0    0  0.72162412798E+03  0.69415906810E+03 -0.19435526310E+03  0.10238084252E+04  0.88382856943E+02 0.  0.
        254    2    1    2    0    0 -0.72162412798E+03 -0.69415906810E+03  0.21101387856E+04  0.25036060618E+04  0.90153171001E+03 0.  0.
        -24    2    4    4    0    0 -0.50881386668E+03 -0.42578365002E+03  0.20382354260E+04  0.21448828228E+04  0.77041574048E+02 0.  0.
         24    2    4    4    0    0 -0.21281026130E+03 -0.26837541809E+03  0.71903359614E+02  0.35872323901E+03  0.78731802537E+02 0.  0.
         11    1    3    3    0    0  0.42463507944E+02  0.21792545689E+02 -0.22607173917E+02  0.52812393120E+02  0.00000000000E+00 0. -1.
        -11    1    3    3    0    0  0.67916062003E+03  0.67236652242E+03 -0.17174808918E+03  0.97099603213E+03  0.00000000000E+00 0.  1.
          4    1    6    6  502    0 -0.11162609775E+03 -0.11938074457E+03  0.72058763994E+02  0.17861862541E+03  0.00000000000E+00 0. -1.
          3    1    5    5  503    0 -0.32051910983E+02 -0.41863888694E+02  0.11337274431E+03  0.12503315291E+03  0.00000000000E+00 0. -1.
         -4    1    5    5    0  503 -0.47676195570E+03 -0.38391976132E+03  0.19248626817E+04  0.20198496699E+04  0.00000000000E+00 0.  1.
         -3    1    6    6    0  502 -0.10118416355E+03 -0.14899467352E+03 -0.15540437994E+00  0.18010461360E+03  0.00000000000E+00 0.  1.
<mgrwt>
<rscale>  0 0.29618282E+04</rscale>
<asrwt>0</asrwt>
<pdfrwt beam="1">  1        1 0.41870753E+00 0.29618282E+04</pdfrwt>
<pdfrwt beam="2">  1       -1 0.12397161E+00 0.29618282E+04</pdfrwt>
<totfact> 0.46187075E-01</totfact>
</mgrwt>
</event>
<event>
12    1  0.1496989E-007  0.3265099E+04  0.7818608E-02  0.8171833E-01
         -2   -1    0    0    0  501 -0.00000000000E+00  0.00000000000E+00  0.50096479664E+03  0.50096479664E+03  0.00000000000E+00 0.  1.
          2   -1    0    0  501    0  0.00000000000E+00 -0.00000000000E+00 -0.53201703852E+04  0.53201703852E+04  0.00000000000E+00 0. -1.
         23    2    1    2    0    0  0.14432444746E+04 -0.28118053406E+03 -0.16738866786E+04  0.22298360961E+04  0.90858661930E+02 0.  0.
        254    2    1    2    0    0 -0.14432444746E+04  0.28118053406E+03 -0.31453189100E+04  0.35912990858E+04  0.91781314644E+03 0.  0.
        -24    2    4    4    0    0 -0.67346985606E+03  0.57121907894E+03 -0.18992919825E+04  0.20961162432E+04  0.80872658990E+02 0.  0.
         24    2    4    4    0    0 -0.76977461854E+03 -0.29003854488E+03 -0.12460269274E+04  0.14951828425E+04  0.79456326922E+02 0.  0.
         11    1    3    3    0    0  0.14424112399E+04 -0.28410474491E+03 -0.16709307066E+04  0.22255954523E+04  0.00000000000E+00 0. -1.
        -11    1    3    3    0    0  0.83323468854E+00  0.29242108539E+01 -0.29559719428E+01  0.42406437354E+01  0.00000000000E+00 0.  1.
          4    1    6    6  502    0 -0.60714036870E+03 -0.19724648053E+03 -0.99049865207E+03  0.11783943233E+04  0.00000000000E+00 0. -1.
          3    1    5    5  503    0 -0.52483310973E+03  0.46629810434E+03 -0.14375498491E+04  0.15998228914E+04  0.00000000000E+00 0. -1.
         -4    1    5    5    0  503 -0.14863674633E+03  0.10492097460E+03 -0.46174213344E+03  0.49629335183E+03  0.00000000000E+00 0.  1.
         -3    1    6    6    0  502 -0.16263424984E+03 -0.92792064355E+02 -0.25552827535E+03  0.31678851925E+03  0.00000000000E+00 0.  1.
<mgrwt>
<rscale>  0 0.32650991E+04</rscale>
<asrwt>0</asrwt>
<pdfrwt beam="1">  1        2 0.81848778E+00 0.32650991E+04</pdfrwt>
<pdfrwt beam="2">  1       -2 0.77071505E-01 0.32650991E+04</pdfrwt>
<totfact> 0.15180220E-02</totfact>
</mgrwt>
</event>
<event>
12    1  0.1496989E-007  0.1199677E+04  0.7818608E-02  0.9113139E-01
          2   -1    0    0  501    0  0.00000000000E+00  0.00000000000E+00  0.32626266316E+04  0.32626266316E+04  0.00000000000E+00 0. -1.
         -2   -1    0    0    0  501 -0.00000000000E+00 -0.00000000000E+00 -0.11028112703E+03  0.11028112703E+03  0.00000000000E+00 0.  1.
         23    2    1    2    0    0  0.74863334875E+02 -0.80685037837E+02  0.13618727052E+04  0.13700500461E+04  0.10112007464E+03 0.  0.
        254    2    1    2    0    0 -0.74863334875E+02  0.80685037837E+02  0.17904727994E+04  0.20028577125E+04  0.89080389369E+03 0.  0.
        -24    2    4    4    0    0  0.37919345240E+03  0.10290034197E+03  0.11091493816E+04  0.11793265752E+04  0.78883873855E+02 0.  0.
         24    2    4    4    0    0 -0.45405678727E+03 -0.22215304129E+02  0.68132341776E+03  0.82353113730E+03  0.85678752911E+02 0.  0.
         11    1    3    3    0    0  0.63135473045E+02 -0.41482676849E+02  0.12215295391E+04  0.12238632748E+04  0.00000000000E+00 0. -1.
        -11    1    3    3    0    0  0.11727861829E+02 -0.39202360988E+02  0.14034316611E+03  0.14618677137E+03  0.00000000000E+00 0.  1.
          2    1    6    6  502    0 -0.14042018608E+03 -0.47055575067E+01  0.14442646441E+03  0.20149187218E+03  0.00000000000E+00 0. -1.
          3    1    5    5  503    0  0.80235232725E+02  0.40242535337E+02  0.34250250941E+03  0.35406937622E+03  0.00000000000E+00 0. -1.
         -4    1    5    5    0  503  0.29895821967E+03  0.62657806630E+02  0.76664687223E+03  0.82525719902E+03  0.00000000000E+00 0.  1.
         -3    1    6    6    0  502 -0.31363660119E+03 -0.17509746623E+02  0.53689695336E+03  0.62203926512E+03  0.00000000000E+00 0.  1.
<mgrwt>
<rscale>  0 0.11996769E+04</rscale>
<asrwt>0</asrwt>
<pdfrwt beam="1">  1        2 0.50194249E+00 0.11996769E+04</pdfrwt>
<pdfrwt beam="2">  1       -2 0.16966330E-01 0.11996769E+04</pdfrwt>
<totfact> 0.33788161E+01</totfact>
</mgrwt>
</event>
<event>
12    1  0.1496989E-007  0.3575896E+04  0.7818608E-02  0.8096035E-01
         -1   -1    0    0    0  501 -0.00000000000E+00  0.00000000000E+00  0.18473271753E+04  0.18473271753E+04  0.00000000000E+00 0.  1.
          1   -1    0    0  501    0  0.00000000000E+00 -0.00000000000E+00 -0.17304778394E+04  0.17304778394E+04  0.00000000000E+00 0. -1.
         23    2    1    2    0    0 -0.72460796625E+03 -0.28046016392E+03  0.15341536716E+04  0.17221368549E+04  0.91723772922E+02 0.  0.
        254    2    1    2    0    0  0.72460796625E+03  0.28046016392E+03 -0.14173043357E+04  0.18556681599E+04  0.91161292849E+03 0.  0.
        -24    2    4    4    0    0  0.77828130612E+03  0.51409792594E+03 -0.12056838238E+04  0.15264470573E+04  0.79678522103E+02 0.  0.
         24    2    4    4    0    0 -0.53673339869E+02 -0.23363776202E+03 -0.21162051188E+03  0.32922110258E+03  0.78331743764E+02 0.  0.
         11    1    3    3    0    0 -0.20908224000E+03 -0.44778487652E+02  0.37082704294E+03  0.42805746322E+03  0.00000000000E+00 0. -1.
        -11    1    3    3    0    0 -0.51552572625E+03 -0.23568167627E+03  0.11633266286E+04  0.12940793916E+04  0.00000000000E+00 0.  1.
          2    1    6    6  502    0 -0.59814125474E+02 -0.23747042277E+03 -0.20418465924E+03  0.31884370210E+03  0.00000000000E+00 0. -1.
          3    1    5    5  503    0  0.31862311324E+03  0.16456547860E+03 -0.45258045344E+03  0.57743532267E+03  0.00000000000E+00 0. -1.
         -4    1    5    5    0  503  0.45965819288E+03  0.34953244734E+03 -0.75310337035E+03  0.94901173462E+03  0.00000000000E+00 0.  1.
         -1    1    6    6    0  502  0.61407856047E+01  0.38326607532E+01 -0.74358526360E+01  0.10377400480E+02  0.00000000000E+00 0.  1.
<mgrwt>
<rscale>  0 0.35758964E+04</rscale>
<asrwt>0</asrwt>
<pdfrwt beam="1">  1        1 0.26622736E+00 0.35758964E+04</pdfrwt>
<pdfrwt beam="2">  1       -1 0.28420418E+00 0.35758964E+04</pdfrwt>
<totfact> 0.15395824E-01</totfact>
</mgrwt>
</event>
<event>
12    1  0.1496989E-007  0.2150689E+04  0.7818608E-02  0.8539238E-01
         -2   -1    0    0    0  501 -0.00000000000E+00  0.00000000000E+00  0.41163371369E+03  0.41163371369E+03  0.00000000000E+00 0.  1.
          2   -1    0    0  501    0  0.00000000000E+00 -0.00000000000E+00 -0.28092095432E+04  0.28092095432E+04  0.00000000000E+00 0. -1.
         23    2    1    2    0    0 -0.29067284567E+03 -0.26409280458E+03 -0.21767259856E+04  0.22134216411E+04  0.82847039157E+02 0.  0.
        254    2    1    2    0    0  0.29067284567E+03  0.26409280458E+03 -0.22084984392E+03  0.10074216159E+04  0.90104824840E+03 0.  0.
        -24    2    4    4    0    0 -0.23766725113E+03  0.20243972700E+03 -0.32898257079E+03  0.45983577577E+03  0.75840908923E+02 0.  0.
         24    2    4    4    0    0  0.52834009680E+03  0.61653077589E+02  0.10813272688E+03  0.54758584011E+03  0.72202533230E+02 0.  0.
         11    1    3    3    0    0 -0.16840285934E+03 -0.19258130165E+03 -0.12474451084E+04  0.12734073893E+04  0.00000000000E+00 0. -1.
        -11    1    3    3    0    0 -0.12226998633E+03 -0.71511502933E+02 -0.92928087726E+03  0.94001425172E+03  0.00000000000E+00 0.  1.
          4    1    6    6  502    0  0.12046355903E+03  0.22171040828E+02 -0.46193957048E+01  0.12257390800E+03  0.00000000000E+00 0. -1.
          1    1    5    5  503    0 -0.16724439785E+03  0.14631446012E+03 -0.18096969846E+03  0.28658095124E+03  0.00000000000E+00 0. -1.
         -4    1    5    5    0  503 -0.70422853276E+02  0.56125266871E+02 -0.14801287234E+03  0.17325482453E+03  0.00000000000E+00 0.  1.
         -1    1    6    6    0  502  0.40787653777E+03  0.39482036760E+02  0.11275212258E+03  0.42501193211E+03  0.00000000000E+00 0.  1.
<mgrwt>
<rscale>  0 0.21506886E+04</rscale>
<asrwt>0</asrwt>
<pdfrwt beam="1">  1        2 0.43218608E+00 0.21506886E+04</pdfrwt>
<pdfrwt beam="2">  1       -2 0.63328264E-01 0.21506886E+04</pdfrwt>
<totfact> 0.48412496E+00</totfact>
</mgrwt>
</event>
<event>
12    1  0.1496989E-007  0.1298637E+04  0.7818608E-02  0.9030647E-01
         -1   -1    0    0    0  501 -0.00000000000E+00  0.00000000000E+00  0.37189264919E+03  0.37189264919E+03  0.00000000000E+00 0.  1.
          1   -1    0    0  501    0  0.00000000000E+00 -0.00000000000E+00 -0.11336990178E+04  0.11336990178E+04  0.00000000000E+00 0. -1.
         23    2    1    2    0    0  0.17583690712E+03  0.14079818876E+03  0.80442002190E+02  0.25674790369E+03  0.93304997035E+02 0.  0.
        254    2    1    2    0    0 -0.17583690712E+03 -0.14079818876E+03 -0.84224837079E+03  0.12488437633E+04  0.89413963068E+03 0.  0.
        -24    2    4    4    0    0  0.56547920352E+02 -0.13915508822E+03 -0.96101973989E+03  0.97585781731E+03  0.78598557746E+02 0.  0.
         24    2    4    4    0    0 -0.23238482747E+03 -0.16431005435E+01  0.11877136909E+03  0.27298594598E+03  0.80057983813E+02 0.  0.
         11    1    3    3    0    0  0.12223058898E+02  0.85223902741E+01  0.39752807472E+02  0.42453739608E+02  0.00000000000E+00 0. -1.
        -11    1    3    3    0    0  0.16361384822E+03  0.13227579849E+03  0.40689194718E+02  0.21429416408E+03  0.00000000000E+00 0.  1.
          4    1    6    6  502    0 -0.54239293402E+01  0.90772710880E+01 -0.75735295236E+01  0.13006698633E+02  0.00000000000E+00 0. -1.
          1    1    5    5  503    0  0.31943652235E+02 -0.11418056472E+03 -0.51542858412E+03  0.52888961382E+03  0.00000000000E+00 0. -1.
         -2    1    5    5    0  503  0.24604268117E+02 -0.24974523492E+02 -0.44559115576E+03  0.44696820348E+03  0.00000000000E+00 0.  1.
         -3    1    6    6    0  502 -0.22696089813E+03 -0.10720371632E+02  0.12634489862E+03  0.25997924735E+03  0.00000000000E+00 0.  1.
<mgrwt>
<rscale>  0 0.12986367E+04</rscale>
<asrwt>0</asrwt>
<pdfrwt beam="1">  1        1 0.17441523E+00 0.12986367E+04</pdfrwt>
<pdfrwt beam="2">  1       -1 0.57214254E-01 0.12986367E+04</pdfrwt>
<totfact> 0.36356610E+01</totfact>
</mgrwt>
</event>
<event>
12    1  0.1496989E-007  0.1048114E+04  0.7818608E-02  0.9257293E-01
         -2   -1    0    0    0  501 -0.00000000000E+00  0.00000000000E+00  0.10899720353E+04  0.10899720353E+04  0.00000000000E+00 0.  1.
          2   -1    0    0  501    0  0.00000000000E+00 -0.00000000000E+00 -0.25196606238E+03  0.25196606238E+03  0.00000000000E+00 0. -1.
         23    2    1    2    0    0 -0.10028848118E+03 -0.25877310066E+02  0.17524677678E+03  0.22183878714E+03  0.88168021837E+02 0.  0.
        254    2    1    2    0    0  0.10028848118E+03  0.25877310066E+02  0.66275919610E+03  0.11200993105E+04  0.89702023319E+03 0.  0.
        -24    2    4    4    0    0  0.29776042563E+03  0.22555218898E+03 -0.14915544914E+02  0.38212138394E+03  0.79115216986E+02 0.  0.
         24    2    4    4    0    0 -0.19747194445E+03 -0.19967487891E+03  0.67767474101E+03  0.73797792657E+03  0.80642044774E+02 0.  0.
         11    1    3    3    0    0 -0.36536987358E+02  0.14206068645E+02  0.10326373576E+02  0.40538843382E+02  0.00000000000E+00 0. -1.
        -11    1    3    3    0    0 -0.63751493819E+02 -0.40083378711E+02  0.16492040321E+03  0.18129994376E+03  0.00000000000E+00 0.  1.
          2    1    6    6  502    0 -0.11377843673E+03 -0.13647518948E+03  0.51143871828E+03  0.54142457698E+03  0.00000000000E+00 0. -1.
          3    1    5    5  503    0  0.55503229992E+02  0.65106948902E+02 -0.31273182488E+02  0.91090807867E+02  0.00000000000E+00 0. -1.
         -4    1    5    5    0  503  0.24225719564E+03  0.16044524007E+03  0.16357637574E+02  0.29103057607E+03  0.00000000000E+00 0.  1.
         -1    1    6    6    0  502 -0.83693507722E+02 -0.63199689433E+02  0.16623602273E+03  0.19655334958E+03  0.00000000000E+00 0.  1.
<mgrwt>
<rscale>  0 0.10481144E+04</rscale>
<asrwt>0</asrwt>
<pdfrwt beam="1">  1        2 0.38764010E-01 0.10481144E+04</pdfrwt>
<pdfrwt beam="2">  1       -2 0.16768800E+00 0.10481144E+04</pdfrwt>
<totfact> 0.29387789E+01</totfact>
</mgrwt>
</event>
<event>
12    1  0.1496989E-007  0.1328710E+04  0.7818608E-02  0.9007102E-01
          2   -1    0    0  501    0  0.00000000000E+00  0.00000000000E+00  0.95060069024E+03  0.95060069024E+03  0.00000000000E+00 0. -1.
         -2   -1    0    0    0  501 -0.00000000000E+00 -0.00000000000E+00 -0.46430408973E+03  0.46430408973E+03  0.00000000000E+00 0.  1.
         23    2    1    2    0    0  0.13706771600E+03  0.77997888932E+02  0.46265247967E+03  0.49749284722E+03  0.92631455981E+02 0.  0.
        254    2    1    2    0    0 -0.13706771600E+03 -0.77997888932E+02  0.23644120836E+02  0.91741193275E+03  0.90344583703E+03 0.  0.
        -24    2    4    4    0    0 -0.63621591693E+02  0.40244666905E+03 -0.54377275224E+02  0.41885663107E+03  0.80454713810E+02 0.  0.
         24    2    4    4    0    0 -0.73446124309E+02 -0.48044455798E+03  0.78021396059E+02  0.49855530167E+03  0.79048998160E+02 0.  0.
         13    1    3    3    0    0  0.92918590413E+02  0.36109220526E+02  0.39087792208E+03  0.40338974978E+03  0.00000000000E+00 0. -1.
        -13    1    3    3    0    0  0.44149125588E+02  0.41888668407E+02  0.71774557591E+02  0.94103097443E+02  0.00000000000E+00 0.  1.
          2    1    6    6  502    0 -0.33753726669E+02 -0.18047246734E+03  0.68041030013E+02  0.19580400225E+03  0.00000000000E+00 0. -1.
          3    1    5    5  503    0 -0.93819134489E+01  0.25991763370E+03 -0.57316569357E+02  0.26632759101E+03  0.00000000000E+00 0. -1.
         -4    1    5    5    0  503 -0.54239678244E+02  0.14252903535E+03  0.29392941329E+01  0.15252904006E+03  0.00000000000E+00 0.  1.
         -1    1    6    6    0  502 -0.39692397640E+02 -0.29997209064E+03  0.99803660461E+01  0.30275129942E+03  0.00000000000E+00 0.  1.
<mgrwt>
<rscale>  0 0.13287103E+04</rscale>
<asrwt>0</asrwt>
<pdfrwt beam="1">  1        2 0.14624626E+00 0.13287103E+04</pdfrwt>
<pdfrwt beam="2">  1       -2 0.71431398E-01 0.13287103E+04</pdfrwt>
<totfact> 0.47199378E+01</totfact>
</mgrwt>
</event>
<event>
12    1  0.1496989E-007  0.1205004E+04  0.7818608E-02  0.9108488E-01
         -1   -1    0    0    0  501 -0.00000000000E+00  0.00000000000E+00  0.47492246351E+03  0.47492246351E+03  0.00000000000E+00 0.  1.
          1   -1    0    0  501    0  0.00000000000E+00 -0.00000000000E+00 -0.76435325499E+03  0.76435325499E+03  0.00000000000E+00 0. -1.
         23    2    1    2    0    0  0.10298711245E+03 -0.96544424279E+02 -0.26992517538E+03  0.31809230884E+03  0.91629391841E+02 0.  0.
        254    2    1    2    0    0 -0.10298711245E+03  0.96544424279E+02 -0.19505616101E+02  0.92118340966E+03  0.91009407974E+03 0.  0.
        -24    2    4    4    0    0 -0.25230441379E+03  0.21797444129E+02  0.38991870263E+03  0.47178503047E+03  0.80074181411E+02 0.  0.
         24    2    4    4    0    0  0.14931730134E+03  0.74746980150E+02 -0.40942431873E+03  0.44939837919E+03  0.80298586088E+02 0.  0.
         11    1    3    3    0    0  0.33150356044E+02 -0.52663364523E+02 -0.20161162792E+03  0.21099674069E+03  0.00000000000E+00 0. -1.
        -11    1    3    3    0    0  0.69836756407E+02 -0.43881059756E+02 -0.68313547453E+02  0.10709556815E+03  0.00000000000E+00 0.  1.
          4    1    6    6  502    0  0.29814656818E+02 -0.12644272130E+02 -0.12018079923E+03  0.12446773029E+03  0.00000000000E+00 0. -1.
          3    1    5    5  503    0 -0.24121445497E+02  0.26079094547E+02  0.73653666570E+02  0.81773014525E+02  0.00000000000E+00 0. -1.
         -4    1    5    5    0  503 -0.22818296829E+03 -0.42816504187E+01  0.31626503606E+03  0.39001201595E+03  0.00000000000E+00 0.  1.
         -3    1    6    6    0  502  0.11950264452E+03  0.87391252280E+02 -0.28924351950E+03  0.32493064890E+03  0.00000000000E+00 0.  1.
<mgrwt>
<rscale>  0 0.12050038E+04</rscale>
<asrwt>0</asrwt>
<pdfrwt beam="1">  1        1 0.11759281E+00 0.12050038E+04</pdfrwt>
<pdfrwt beam="2">  1       -1 0.73064994E-01 0.12050038E+04</pdfrwt>
<totfact> 0.44429829E+01</totfact>
</mgrwt>
</event>
<event>
12    1  0.1496989E-007  0.1797461E+04  0.7818608E-02  0.8707651E-01
          3   -1    0    0  501    0  0.00000000000E+00  0.00000000000E+00  0.23211387234E+04  0.23211387234E+04  0.00000000000E+00 0. -1.
         -3   -1    0    0    0  501 -0.00000000000E+00 -0.00000000000E+00 -0.34798282857E+03  0.34798282857E+03  0.00000000000E+00 0.  1.
         23    2    1    2    0    0  0.36782036512E+03 -0.23929792004E+03 -0.14763882956E+02  0.44822519633E+03  0.90180590232E+02 0.  0.
        254    2    1    2    0    0 -0.36782036512E+03  0.23929792004E+03  0.19879197778E+04  0.22208963556E+04  0.88769378955E+03 0.  0.
        -24    2    4    4    0    0  0.15073703957E+03 -0.21211016834E+03  0.81469146902E+03  0.85864870513E+03  0.76439718204E+02 0.  0.
         24    2    4    4    0    0 -0.51855740469E+03  0.45140808838E+03  0.11732283088E+04  0.13622476505E+04  0.81135396636E+02 0.  0.
         11    1    3    3    0    0  0.62070141310E+02 -0.24493932589E+02  0.27514164857E+02  0.72178143809E+02  0.00000000000E+00 0. -1.
        -11    1    3    3    0    0  0.30575022381E+03 -0.21480398745E+03 -0.42278047812E+02  0.37604705252E+03  0.00000000000E+00 0.  1.
          2    1    6    6  502    0 -0.76159119736E+02  0.32931217763E+02  0.12720708160E+03  0.15187599623E+03  0.00000000000E+00 0. -1.
          1    1    5    5  503    0  0.40539447840E+02 -0.44171537598E+02  0.30437952100E+03  0.31022808443E+03  0.00000000000E+00 0. -1.
         -2    1    5    5    0  503  0.11019759173E+03 -0.16793863075E+03  0.51031194801E+03  0.54842062070E+03  0.00000000000E+00 0.  1.
         -1    1    6    6    0  502 -0.44239828495E+03  0.41847687062E+03  0.10460212272E+04  0.12103716543E+04  0.00000000000E+00 0.  1.
<mgrwt>
<rscale>  0 0.17974609E+04</rscale>
<asrwt>0</asrwt>
<pdfrwt beam="1">  1        3 0.35709826E+00 0.17974609E+04</pdfrwt>
<pdfrwt beam="2">  1       -3 0.53535821E-01 0.17974609E+04</pdfrwt>
<totfact> 0.16142409E-01</totfact>
</mgrwt>
</event>
<event>
12    1  0.1496989E-007  0.1903578E+04  0.7818608E-02  0.8653077E-01
          2   -1    0    0  501    0  0.00000000000E+00  0.00000000000E+00  0.15710493610E+04  0.15710493610E+04  0.00000000000E+00 0. -1.
         -2   -1    0    0    0  501 -0.00000000000E+00 -0.00000000000E+00 -0.57662259075E+03  0.57662259075E+03  0.00000000000E+00 0.  1.
         23    2    1    2    0    0 -0.95746799225E+02  0.12456486519E+03  0.11996788360E+04  0.12132491197E+04  0.89778960306E+02 0.  0.
        254    2    1    2    0    0  0.95746799225E+02 -0.12456486519E+03 -0.20525206576E+03  0.93442283204E+03  0.89796089187E+03 0.  0.
        -24    2    4    4    0    0 -0.34130915868E+03 -0.15372044037E+03  0.98875755565E+02  0.39531778048E+03  0.79861235498E+02 0.  0.
         24    2    4    4    0    0  0.43705595791E+03  0.29155575184E+02 -0.30412782133E+03  0.53910505156E+03  0.79199539148E+02 0.  0.
         13    1    3    3    0    0 -0.10349761980E+03  0.13358918060E+03  0.11122178978E+04  0.11249828793E+04  0.00000000000E+00 0. -1.
        -13    1    3    3    0    0  0.77508205777E+01 -0.90243154125E+01  0.87460938205E+02  0.88266240432E+02  0.00000000000E+00 0.  1.
          2    1    6    6  502    0  0.25090909112E+03 -0.44360152423E+00 -0.13041117245E+03  0.28277666574E+03  0.00000000000E+00 0. -1.
          1    1    5    5  503    0 -0.27725504143E+03 -0.87893161867E+02  0.77897328256E+02  0.30110390175E+03  0.00000000000E+00 0. -1.
         -4    1    5    5    0  503 -0.64054117256E+02 -0.65827278505E+02  0.20978427309E+02  0.94213878729E+02  0.00000000000E+00 0.  1.
         -1    1    6    6    0  502  0.18614686679E+03  0.29599176708E+02 -0.17371664888E+03  0.25632838582E+03  0.00000000000E+00 0.  1.
<mgrwt>
<rscale>  0 0.19035783E+04</rscale>
<asrwt>0</asrwt>
<pdfrwt beam="1">  1        2 0.24169990E+00 0.19035783E+04</pdfrwt>
<pdfrwt beam="2">  1       -2 0.88711168E-01 0.19035783E+04</pdfrwt>
<totfact> 0.11842464E+01</totfact>
</mgrwt>
</event>
<event>
12    1  0.1496989E-007  0.1339053E+04  0.7818608E-02  0.8999156E-01
          1   -1    0    0  501    0  0.00000000000E+00  0.00000000000E+00  0.11891558037E+04  0.11891558037E+04  0.00000000000E+00 0. -1.
         -1   -1    0    0    0  501 -0.00000000000E+00 -0.00000000000E+00 -0.37696127586E+03  0.37696127586E+03  0.00000000000E+00 0.  1.
         23    2    1    2    0    0 -0.79691014550E+01 -0.39635711065E+03  0.31373462383E+03  0.51415146738E+03  0.93594078205E+02 0.  0.
        254    2    1    2    0    0  0.79691014550E+01  0.39635711065E+03  0.49845990400E+03  0.10519656122E+04  0.83726155265E+03 0.  0.
        -24    2    4    4    0    0  0.19620525590E+03  0.29111841726E+03 -0.13033087088E+03  0.38217895780E+03  0.76342547624E+02 0.  0.
         24    2    4    4    0    0 -0.18823615444E+03  0.10523869339E+03  0.62879077488E+03  0.66978665436E+03  0.82026162718E+02 0.  0.
         11    1    3    3    0    0  0.34876333145E+02 -0.84770423892E+02  0.55112024762E+02  0.10695662043E+03  0.00000000000E+00 0.  1.
        -11    1    3    3    0    0 -0.42845434600E+02 -0.31158668676E+03  0.25862259907E+03  0.40719484695E+03  0.00000000000E+00 0. -1.
          2    1    6    6  502    0 -0.18865402839E+03  0.10743522141E+03  0.55483963102E+03  0.59580171649E+03  0.00000000000E+00 0. -1.
          1    1    5    5  503    0  0.12567352303E+03  0.12142203439E+03 -0.75871774185E+02  0.19050897865E+03  0.00000000000E+00 0. -1.
         -2    1    5    5    0  503  0.70531732867E+02  0.16969638286E+03 -0.54459096692E+02  0.19166997916E+03  0.00000000000E+00 0.  1.
         -1    1    6    6    0  502  0.41787395109E+00 -0.21965280159E+01  0.73951143860E+02  0.73984937874E+02  0.00000000000E+00 0.  1.
<mgrwt>
<rscale>  0 0.13390529E+04</rscale>
<asrwt>0</asrwt>
<pdfrwt beam="1">  1        1 0.18294704E+00 0.13390529E+04</pdfrwt>
<pdfrwt beam="2">  1       -1 0.57994043E-01 0.13390529E+04</pdfrwt>
<totfact> 0.32112372E+01</totfact>
</mgrwt>
</event>
<event>
12    1  0.1496989E-007  0.1789745E+04  0.7818608E-02  0.8711772E-01
         -1   -1    0    0    0  501 -0.00000000000E+00  0.00000000000E+00  0.71201012120E+03  0.71201012120E+03  0.00000000000E+00 0.  1.
          1   -1    0    0  501    0  0.00000000000E+00 -0.00000000000E+00 -0.11246984121E+04  0.11246984121E+04  0.00000000000E+00 0. -1.
         23    2    1    2    0    0 -0.40448522804E+03  0.52596946975E+03 -0.21160563488E+03  0.70252746145E+03  0.92280586068E+02 0.  0.
        254    2    1    2    0    0  0.40448522804E+03 -0.52596946975E+03 -0.20108265602E+03  0.11341810718E+04  0.89759695095E+03 0.  0.
        -24    2    4    4    0    0  0.26068556480E+03 -0.59606280352E+02 -0.48838203049E+03  0.56223829077E+03  0.78006509679E+02 0.  0.
         24    2    4    4    0    0  0.14379966324E+03 -0.46636318940E+03  0.28729937446E+03  0.57194278107E+03  0.80029036482E+02 0.  0.
         11    1    3    3    0    0 -0.35267786138E+02  0.66972459786E+02  0.25663776664E+01  0.75734492823E+02  0.00000000000E+00 0.  1.
        -11    1    3    3    0    0 -0.36921744191E+03  0.45899700996E+03 -0.21417201254E+03  0.62679296863E+03  0.00000000000E+00 0. -1.
          4    1    6    6  502    0 -0.70428921594E+01 -0.62137738598E+01  0.11229529188E+01  0.94590876308E+01  0.00000000000E+00 0. -1.
          3    1    5    5  503    0  0.42070274153E+02  0.94592442985E+01 -0.12840982890E+03  0.13545652228E+03  0.00000000000E+00 0. -1.
         -4    1    5    5    0  503  0.21861529065E+03 -0.69065524650E+02 -0.35997220159E+03  0.42678176849E+03  0.00000000000E+00 0.  1.
         -3    1    6    6    0  502  0.15084255540E+03 -0.46014941554E+03  0.28617642154E+03  0.56248369344E+03  0.00000000000E+00 0.  1.
<mgrwt>
<rscale>  0 0.17897448E+04</rscale>
<asrwt>0</asrwt>
<pdfrwt beam="1">  1        1 0.17303052E+00 0.17897448E+04</pdfrwt>
<pdfrwt beam="2">  1       -1 0.10954002E+00 0.17897448E+04</pdfrwt>
<totfact> 0.88448705E+00</totfact>
</mgrwt>
</event>
<event>
12    1  0.1496989E-007  0.1736367E+04  0.7818608E-02  0.8740890E-01
         -2   -1    0    0    0  501 -0.00000000000E+00  0.00000000000E+00  0.40072737147E+03  0.40072737147E+03  0.00000000000E+00 0.  1.
          2   -1    0    0  501    0  0.00000000000E+00 -0.00000000000E+00 -0.18809363092E+04  0.18809363092E+04  0.00000000000E+00 0. -1.
         23    2    1    2    0    0 -0.47019015622E+03  0.57073959050E+02 -0.10785599749E+04  0.11816225751E+04  0.92758129924E+02 0.  0.
        254    2    1    2    0    0  0.47019015622E+03 -0.57073959050E+02 -0.40164896281E+03  0.11000411056E+04  0.90798255755E+03 0.  0.
        -24    2    4    4    0    0 -0.21882899885E+03 -0.17897730164E+03 -0.23775042845E+03  0.37710360609E+03  0.75913491941E+02 0.  0.
         24    2    4    4    0    0  0.68901915507E+03  0.12190334259E+03 -0.16389853436E+03  0.72293749949E+03  0.78537109774E+02 0.  0.
         13    1    3    3    0    0 -0.34600695798E+03  0.69965174920E+01 -0.83069965264E+03  0.89990648354E+03  0.00000000000E+00 0. -1.
        -13    1    3    3    0    0 -0.12418319824E+03  0.50077441558E+02 -0.24786032228E+03  0.28171609155E+03  0.00000000000E+00 0.  1.
          4    1    6    6  502    0  0.48456140949E+03  0.49200363466E+02 -0.10896656155E+03  0.49909332481E+03  0.00000000000E+00 0. -1.
          3    1    5    5  503    0 -0.13559791696E+03 -0.12752763139E+03 -0.19721712475E+03  0.27119123537E+03  0.00000000000E+00 0. -1.
         -4    1    5    5    0  503 -0.83231081892E+02 -0.51449670249E+02 -0.40533303710E+02  0.10591237072E+03  0.00000000000E+00 0.  1.
         -3    1    6    6    0  502  0.20445774558E+03  0.72702979121E+02 -0.54931972809E+02  0.22384417468E+03  0.00000000000E+00 0.  1.
<mgrwt>
<rscale>  0 0.17363671E+04</rscale>
<asrwt>0</asrwt>
<pdfrwt beam="1">  1        2 0.28937481E+00 0.17363671E+04</pdfrwt>
<pdfrwt beam="2">  1       -2 0.61650366E-01 0.17363671E+04</pdfrwt>
<totfact> 0.18049411E+01</totfact>
</mgrwt>
</event>
<event>
12    1  0.1496989E-007  0.3730988E+04  0.7818608E-02  0.8061129E-01
          1   -1    0    0  501    0  0.00000000000E+00  0.00000000000E+00  0.14560546986E+04  0.14560546986E+04  0.00000000000E+00 0. -1.
         -1   -1    0    0    0  501 -0.00000000000E+00 -0.00000000000E+00 -0.23900665562E+04  0.23900665562E+04  0.00000000000E+00 0.  1.
         23    2    1    2    0    0 -0.14158046927E+04  0.10257942990E+04 -0.28183285957E+03  0.17732119587E+04  0.89966760161E+02 0.  0.
        254    2    1    2    0    0  0.14158046927E+04 -0.10257942990E+04 -0.65217899797E+03  0.20729092961E+04  0.90269520480E+03 0.  0.
        -24    2    4    4    0    0  0.13920864096E+04 -0.63701663712E+03 -0.34806989243E+03  0.15720237109E+04  0.80069531217E+02 0.  0.
         24    2    4    4    0    0  0.23718283112E+02 -0.38877766189E+03 -0.30410910554E+03  0.50088558524E+03  0.81813165731E+02 0.  0.
         11    1    3    3    0    0 -0.78568102164E+03  0.52177228818E+03 -0.17526467102E+03  0.95930114844E+03  0.00000000000E+00 0.  1.
        -11    1    3    3    0    0 -0.63012367105E+03  0.50402201083E+03 -0.10656818855E+03  0.81391081024E+03  0.00000000000E+00 0. -1.
          4    1    6    6  502    0 -0.20796239055E+01  0.20255385341E+01 -0.11864080463E+02  0.12214092155E+02  0.00000000000E+00 0. -1.
          3    1    5    5  503    0  0.32982883961E+03 -0.14545804915E+03 -0.47722926939E+02  0.36362423634E+03  0.00000000000E+00 0. -1.
         -4    1    5    5    0  503  0.10622575700E+04 -0.49155858797E+03 -0.30034696549E+03  0.12083994745E+04  0.00000000000E+00 0.  1.
         -3    1    6    6    0  502  0.25797907018E+02 -0.39080320043E+03 -0.29224502508E+03  0.48867149308E+03  0.00000000000E+00 0.  1.
<mgrwt>
<rscale>  0 0.37309879E+04</rscale>
<asrwt>0</asrwt>
<pdfrwt beam="1">  1        1 0.22400842E+00 0.37309879E+04</pdfrwt>
<pdfrwt beam="2">  1       -1 0.36770254E+00 0.37309879E+04</pdfrwt>
<totfact> 0.66459117E-02</totfact>
</mgrwt>
</event>
<event>
12    1  0.1496989E-007  0.1972234E+04  0.7818608E-02  0.8619713E-01
          2   -1    0    0  501    0  0.00000000000E+00  0.00000000000E+00  0.63298652267E+03  0.63298652267E+03  0.00000000000E+00 0. -1.
         -2   -1    0    0    0  501 -0.00000000000E+00 -0.00000000000E+00 -0.15362525616E+04  0.15362525616E+04  0.00000000000E+00 0.  1.
         23    2    1    2    0    0 -0.52731122209E+03  0.12978325221E+03 -0.95956481155E+03  0.11064061044E+04  0.92027293954E+02 0.  0.
        254    2    1    2    0    0  0.52731122209E+03 -0.12978325221E+03  0.56298772653E+02  0.10628329798E+04  0.91189011054E+03 0.  0.
        -24    2    4    4    0    0  0.27835119372E+03 -0.47448950882E+02  0.47720027170E+03  0.56029054506E+03  0.80464933906E+02 0.  0.
         24    2    4    4    0    0  0.24896002838E+03 -0.82334301333E+02 -0.42090149904E+03  0.50254243477E+03  0.81429687099E+02 0.  0.
         11    1    3    3    0    0 -0.48553750984E+03  0.12766480968E+03 -0.92366146516E+03  0.10512827780E+04  0.00000000000E+00 0.  1.
        -11    1    3    3    0    0 -0.41773712248E+02  0.21184425317E+01 -0.35903346395E+02  0.55123326424E+02  0.00000000000E+00 0. -1.
          2    1    6    6  502    0  0.18861768756E+03 -0.96282542497E+02 -0.34167517203E+03  0.40198119761E+03  0.00000000000E+00 0. -1.
          1    1    5    5  503    0  0.11977972388E+03 -0.60246349078E+02  0.20298090692E+03  0.24326539705E+03  0.00000000000E+00 0. -1.
         -2    1    5    5    0  503  0.15857146984E+03  0.12797398197E+02  0.27421936478E+03  0.31702514801E+03  0.00000000000E+00 0.  1.
         -3    1    6    6    0  502  0.60342340819E+02  0.13948241164E+02 -0.79226327014E+02  0.10056123716E+03  0.00000000000E+00 0.  1.
<mgrwt>
<rscale>  0 0.19722344E+04</rscale>
<asrwt>0</asrwt>
<pdfrwt beam="1">  1        2 0.97382542E-01 0.19722344E+04</pdfrwt>
<pdfrwt beam="2">  1       -2 0.23634655E+00 0.19722344E+04</pdfrwt>
<totfact> 0.33749579E+00</totfact>
</mgrwt>
</event>
<event>
12    1  0.1496989E-007  0.2378427E+04  0.7818608E-02  0.8447625E-01
         -2   -1    0    0    0  501 -0.00000000000E+00  0.00000000000E+00  0.61091862293E+03  0.61091862293E+03  0.00000000000E+00 0.  1.
          2   -1    0    0  501    0  0.00000000000E+00 -0.00000000000E+00 -0.23149211981E+04  0.23149211981E+04  0.00000000000E+00 0. -1.
         23    2    1    2    0    0 -0.42099631902E+03  0.80997765273E+03 -0.12912908958E+04  0.15839456571E+04  0.90277175591E+02 0.  0.
        254    2    1    2    0    0  0.42099631902E+03 -0.80997765273E+03 -0.41271167939E+03  0.13418941640E+04  0.89277506601E+03 0.  0.
        -24    2    4    4    0    0  0.69648878291E+03 -0.55762179523E+03 -0.29056225735E+03  0.94160341995E+03  0.78433945736E+02 0.  0.
         24    2    4    4    0    0 -0.27549246388E+03 -0.25235585750E+03 -0.12214942204E+03  0.40029074403E+03  0.75714080487E+02 0.  0.
         13    1    3    3    0    0 -0.58294603130E+02  0.19295356028E+03 -0.28653875857E+03  0.35033383699E+03  0.00000000000E+00 0.  1.
        -13    1    3    3    0    0 -0.36270171589E+03  0.61702409244E+03 -0.10047521372E+04  0.12336118201E+04  0.00000000000E+00 0. -1.
          2    1    6    6  502    0 -0.52615984145E+02 -0.61243657148E+02  0.37766039711E+01  0.80830007212E+02  0.00000000000E+00 0. -1.
          3    1    5    5  503    0  0.12296655806E+02 -0.24019887467E+02 -0.16728722002E+02  0.31749218538E+02  0.00000000000E+00 0. -1.
         -4    1    5    5    0  503  0.68419212710E+03 -0.53360190776E+03 -0.27383353535E+03  0.90985420141E+03  0.00000000000E+00 0.  1.
         -1    1    6    6    0  502 -0.22287647974E+03 -0.19111220035E+03 -0.12592602601E+03  0.31946073682E+03  0.00000000000E+00 0.  1.
<mgrwt>
<rscale>  0 0.23784268E+04</rscale>
<asrwt>0</asrwt>
<pdfrwt beam="1">  1        2 0.35614172E+00 0.23784268E+04</pdfrwt>
<pdfrwt beam="2">  1       -2 0.93987482E-01 0.23784268E+04</pdfrwt>
<totfact> 0.38267845E+00</totfact>
</mgrwt>
</event>
<event>
12    1  0.1496989E-007  0.1634024E+04  0.7818608E-02  0.8799914E-01
          2   -1    0    0  501    0  0.00000000000E+00  0.00000000000E+00  0.10714862290E+04  0.10714862290E+04  0.00000000000E+00 0. -1.
         -2   -1    0    0    0  501 -0.00000000000E+00 -0.00000000000E+00 -0.62297452989E+03  0.62297452989E+03  0.00000000000E+00 0.  1.
         23    2    1    2    0    0 -0.53231199456E+02  0.15824149913E+02 -0.42137210013E+03  0.43438759021E+03  0.89745013504E+02 0.  0.
        254    2    1    2    0    0  0.53231199456E+02 -0.15824149913E+02  0.86988379922E+03  0.12600731687E+04  0.90994648299E+03 0.  0.
        -24    2    4    4    0    0  0.30438553043E+02 -0.42518167131E+03  0.21776078325E+03  0.48560457867E+03  0.81768508473E+02 0.  0.
         24    2    4    4    0    0  0.22792646413E+02  0.40935752140E+03  0.65212301597E+03  0.77446858998E+03  0.80275051261E+02 0.  0.
         11    1    3    3    0    0 -0.43561175987E+02  0.29393574481E+01 -0.41463240818E+03  0.41692475315E+03  0.00000000000E+00 0.  1.
        -11    1    3    3    0    0 -0.96700234688E+01  0.12884792465E+02 -0.67396919480E+01  0.17462837064E+02  0.00000000000E+00 0. -1.
          2    1    6    6  502    0 -0.54402791028E+01  0.60288966906E+00  0.16656514698E+01  0.57214078239E+01  0.00000000000E+00 0. -1.
          3    1    5    5  503    0  0.19179828417E+02 -0.17292818499E+03  0.13386812114E+03  0.21952835088E+03  0.00000000000E+00 0. -1.
         -4    1    5    5    0  503  0.11258724627E+02 -0.25225348632E+03  0.83892662106E+02  0.26607622780E+03  0.00000000000E+00 0.  1.
         -1    1    6    6    0  502  0.28232925516E+02  0.40875463173E+03  0.65045736450E+03  0.76874718216E+03  0.00000000000E+00 0.  1.
<mgrwt>
<rscale>  0 0.16340240E+04</rscale>
<asrwt>0</asrwt>
<pdfrwt beam="1">  1        2 0.16484403E+00 0.16340240E+04</pdfrwt>
<pdfrwt beam="2">  1       -2 0.95842236E-01 0.16340240E+04</pdfrwt>
<totfact> 0.19818817E+01</totfact>
</mgrwt>
</event>
<event>
12    1  0.1496989E-007  0.1267957E+04  0.7818608E-02  0.9055369E-01
         -2   -1    0    0    0  501 -0.00000000000E+00  0.00000000000E+00  0.46042061035E+03  0.46042061035E+03  0.00000000000E+00 0.  1.
          2   -1    0    0  501    0  0.00000000000E+00 -0.00000000000E+00 -0.87295988398E+03  0.87295988398E+03  0.00000000000E+00 0. -1.
         23    2    1    2    0    0  0.22329595565E+03 -0.15951854584E+03 -0.10798128521E+03  0.30845757767E+03  0.90437099662E+02 0.  0.
        254    2    1    2    0    0 -0.22329595565E+03  0.15951854584E+03 -0.30455798842E+03  0.10249229167E+04  0.93936370300E+03 0.  0.
        -24    2    4    4    0    0 -0.25179292301E+03  0.53156615454E+03 -0.22558551646E+03  0.63520779823E+03  0.81473118059E+02 0.  0.
         24    2    4    4    0    0  0.28496967361E+02 -0.37204760870E+03 -0.78972471957E+02  0.38971511843E+03  0.80060738891E+02 0.  0.
         11    1    3    3    0    0  0.13059251016E+03 -0.64804258032E+02 -0.97762861661E+02  0.17553225541E+03  0.00000000000E+00 0. -1.
        -11    1    3    3    0    0  0.92703445483E+02 -0.94714287804E+02 -0.10218423548E+02  0.13292532226E+03  0.00000000000E+00 0.  1.
          4    1    6    6  502    0  0.53513656595E+02 -0.30807135792E+03 -0.59275181948E+02  0.31825338994E+03  0.00000000000E+00 0. -1.
          3    1    5    5  503    0 -0.23351040296E+03  0.50828897433E+03 -0.19431666134E+03  0.59215180030E+03  0.00000000000E+00 0. -1.
         -4    1    5    5    0  503 -0.18282520050E+02  0.23277180207E+02 -0.31268855117E+02  0.43055997934E+02  0.00000000000E+00 0.  1.
         -3    1    6    6    0  502 -0.25016689234E+02 -0.63976250783E+02 -0.19697290009E+02  0.71461728485E+02  0.00000000000E+00 0.  1.
<mgrwt>
<rscale>  0 0.12679570E+04</rscale>
<asrwt>0</asrwt>
<pdfrwt beam="1">  1        2 0.13430152E+00 0.12679570E+04</pdfrwt>
<pdfrwt beam="2">  1       -2 0.70833941E-01 0.12679570E+04</pdfrwt>
<totfact> 0.54458888E+01</totfact>
</mgrwt>
</event>
<event>
12    1  0.1496989E-007  0.1386054E+04  0.7818608E-02  0.8963976E-01
         -4   -1    0    0    0  501 -0.00000000000E+00  0.00000000000E+00  0.56135608859E+03  0.56135608859E+03  0.00000000000E+00 0.  1.
          4   -1    0    0  501    0  0.00000000000E+00 -0.00000000000E+00 -0.85558275158E+03  0.85558275158E+03  0.00000000000E+00 0. -1.
         23    2    1    2    0    0  0.77293710286E+02  0.71508745245E+02 -0.48982020802E+03  0.50913271618E+03  0.90578519536E+02 0.  0.
        254    2    1    2    0    0 -0.77293710286E+02 -0.71508745245E+02  0.19559354503E+03  0.90780612399E+03  0.88020867163E+03 0.  0.
        -24    2    4    4    0    0  0.70195533029E+02  0.11850364398E+03 -0.30651097930E+03  0.34543315017E+03  0.80028459397E+02 0.  0.
         24    2    4    4    0    0 -0.14748924331E+03 -0.19001238923E+03  0.50210452433E+03  0.56237297382E+03  0.79351265764E+02 0.  0.
         11    1    3    3    0    0  0.67017676891E+01 -0.13797517112E+02 -0.14576183911E+02  0.21160111201E+02  0.00000000000E+00 0.  1.
        -11    1    3    3    0    0  0.70591942597E+02  0.85306262357E+02 -0.47524402411E+03  0.48797260498E+03  0.00000000000E+00 0. -1.
          2    1    6    6  502    0 -0.11628386924E+03 -0.17491694563E+03  0.36663726750E+03  0.42254084067E+03  0.00000000000E+00 0. -1.
          1    1    5    5  503    0  0.16299924951E+02  0.86943727762E+02 -0.12241232523E+03  0.15102872812E+03  0.00000000000E+00 0. -1.
         -2    1    5    5    0  503  0.53895608078E+02  0.31559916220E+02 -0.18409865407E+03  0.19440442205E+03  0.00000000000E+00 0.  1.
         -1    1    6    6    0  502 -0.31205374076E+02 -0.15095443595E+02  0.13546725683E+03  0.13983213315E+03  0.00000000000E+00 0.  1.
<mgrwt>
<rscale>  0 0.13860542E+04</rscale>
<asrwt>0</asrwt>
<pdfrwt beam="1">  1        4 0.13162812E+00 0.13860542E+04</pdfrwt>
<pdfrwt beam="2">  1       -4 0.86362475E-01 0.13860542E+04</pdfrwt>
<totfact> 0.94986268E-01</totfact>
</mgrwt>
</event>
<event>
12    1  0.1496989E-007  0.2153598E+04  0.7818608E-02  0.8537994E-01
          1   -1    0    0  501    0  0.00000000000E+00  0.00000000000E+00  0.98143947931E+03  0.98143947931E+03  0.00000000000E+00 0. -1.
         -1   -1    0    0    0  501 -0.00000000000E+00 -0.00000000000E+00 -0.11814242798E+04  0.11814242798E+04  0.00000000000E+00 0.  1.
         23    2    1    2    0    0  0.13990268259E+03  0.74582764360E+03  0.38206691006E+03  0.85517235994E+03  0.97534644534E+02 0.  0.
        254    2    1    2    0    0 -0.13990268259E+03 -0.74582764360E+03 -0.58205171052E+03  0.13076913991E+04  0.89187497281E+03 0.  0.
        -24    2    4    4    0    0  0.42307207877E+02  0.13917155778E+03  0.80434908404E+02  0.18444348657E+03  0.79943748431E+02 0.  0.
         24    2    4    4    0    0 -0.18220989047E+03 -0.88499920138E+03 -0.66248661892E+03  0.11232479126E+04  0.79833089811E+02 0.  0.
         11    1    3    3    0    0  0.28701828701E+02  0.66662106272E+02  0.65027571087E+02  0.97448531979E+02  0.00000000000E+00 0.  1.
        -11    1    3    3    0    0  0.11120085389E+03  0.67916553732E+03  0.31703933897E+03  0.75772382796E+03  0.00000000000E+00 0. -1.
          2    1    6    6  502    0 -0.40722545263E+02 -0.14147454649E+03 -0.75578725112E+02  0.16548569934E+03  0.00000000000E+00 0. -1.
          1    1    5    5  503    0 -0.49387088878E+00  0.27140503457E+02 -0.15147026295E+02  0.31085096782E+02  0.00000000000E+00 0. -1.
         -2    1    5    5    0  503  0.42801078765E+02  0.11203105433E+03  0.95581934699E+02  0.15335838979E+03  0.00000000000E+00 0.  1.
         -1    1    6    6    0  502 -0.14148734520E+03 -0.74352465489E+03 -0.58690789381E+03  0.95776221323E+03  0.00000000000E+00 0.  1.
<mgrwt>
<rscale>  0 0.21535983E+04</rscale>
<asrwt>0</asrwt>
<pdfrwt beam="1">  1        1 0.15099069E+00 0.21535983E+04</pdfrwt>
<pdfrwt beam="2">  1       -1 0.18175758E+00 0.21535983E+04</pdfrwt>
<totfact> 0.28957204E+00</totfact>
</mgrwt>
</event>
<event>
12    1  0.1496989E-007  0.1193694E+04  0.7818608E-02  0.9118394E-01
          1   -1    0    0  501    0  0.00000000000E+00  0.00000000000E+00  0.83684308716E+03  0.83684308716E+03  0.00000000000E+00 0. -1.
         -1   -1    0    0    0  501 -0.00000000000E+00 -0.00000000000E+00 -0.42567887817E+03  0.42567887817E+03  0.00000000000E+00 0.  1.
         23    2    1    2    0    0  0.23042700321E+03  0.19918482812E+03  0.30804374814E+02  0.31953798925E+03  0.91566464961E+02 0.  0.
        254    2    1    2    0    0 -0.23042700321E+03 -0.19918482812E+03  0.38035983418E+03  0.94298397608E+03  0.80732519850E+03 0.  0.
        -24    2    4    4    0    0  0.26764255118E+02  0.21950413744E+03 -0.95040856714E+02  0.25387490792E+03  0.80754645196E+02 0.  0.
         24    2    4    4    0    0 -0.25719125833E+03 -0.41868896556E+03  0.47540069089E+03  0.68910906816E+03  0.86126056917E+02 0.  0.
         13    1    3    3    0    0  0.21843426734E+03  0.14523242106E+03  0.32015318549E+02  0.26425549360E+03  0.00000000000E+00 0.  1.
        -13    1    3    3    0    0  0.11992735874E+02  0.53952407058E+02 -0.12109437351E+01  0.55282495654E+02  0.00000000000E+00 0. -1.
          2    1    6    6  502    0 -0.23936987001E+03 -0.40665636801E+03  0.47184890517E+03  0.66731456272E+03  0.00000000000E+00 0. -1.
          3    1    5    5  503    0  0.24819126821E+02  0.18080400743E+03 -0.40447875807E+02  0.18692808461E+03  0.00000000000E+00 0. -1.
         -4    1    5    5    0  503  0.19451282969E+01  0.38700130012E+02 -0.54592980907E+02  0.66946823310E+02  0.00000000000E+00 0.  1.
         -3    1    6    6    0  502 -0.17821388324E+02 -0.12032597549E+02  0.35517857212E+01  0.21794505440E+02  0.00000000000E+00 0.  1.
<mgrwt>
<rscale>  0 0.11936941E+04</rscale>
<asrwt>0</asrwt>
<pdfrwt beam="1">  1        1 0.12874509E+00 0.11936941E+04</pdfrwt>
<pdfrwt beam="2">  1       -1 0.65489058E-01 0.11936941E+04</pdfrwt>
<totfact> 0.48102221E+01</totfact>
</mgrwt>
</event>
<event>
12    1  0.1496989E-007  0.1746394E+04  0.7818608E-02  0.8735338E-01
          1   -1    0    0  501    0  0.00000000000E+00  0.00000000000E+00  0.32418921098E+04  0.32418921098E+04  0.00000000000E+00 0. -1.
         -1   -1    0    0    0  501 -0.00000000000E+00 -0.00000000000E+00 -0.23519376006E+03  0.23519376006E+03  0.00000000000E+00 0.  1.
         23    2    1    2    0    0  0.38099203577E+03 -0.11895386263E+03  0.22250632346E+03  0.47066140638E+03  0.11273039838E+03 0.  0.
        254    2    1    2    0    0 -0.38099203577E+03  0.11895386263E+03  0.27841920263E+04  0.30064244635E+04  0.10618652752E+04 0.  0.
        -24    2    4    4    0    0  0.22608098613E+03  0.39289596680E+03  0.12486657793E+04  0.13307865681E+04  0.79666859268E+02 0.  0.
         24    2    4    4    0    0 -0.60707302190E+03 -0.27394210417E+03  0.15355262471E+04  0.16756378954E+04  0.79621422270E+02 0.  0.
         13    1    3    3    0    0  0.13674577696E+03 -0.76574367035E+02  0.36982073726E+02  0.16103016792E+03  0.00000000000E+00 0. -1.
        -13    1    3    3    0    0  0.24424625882E+03 -0.42379495597E+02  0.18552424974E+03  0.30963123847E+03  0.00000000000E+00 0.  1.
          2    1    6    6  502    0 -0.42847090995E+02 -0.38270881100E+02  0.10036782266E+03  0.11564702059E+03  0.00000000000E+00 0. -1.
          1    1    5    5  503    0  0.26346786699E+02  0.89276421547E+02  0.32907077873E+03  0.34198247035E+03  0.00000000000E+00 0. -1.
         -2    1    5    5    0  503  0.19973419943E+03  0.30361954525E+03  0.91959500052E+03  0.98880409772E+03  0.00000000000E+00 0.  1.
         -1    1    6    6    0  502 -0.56422593091E+03 -0.23567122307E+03  0.14351584244E+04  0.15599908749E+04  0.00000000000E+00 0.  1.
<mgrwt>
<rscale>  0 0.17463938E+04</rscale>
<asrwt>0</asrwt>
<pdfrwt beam="1">  1        1 0.49875260E+00 0.17463938E+04</pdfrwt>
<pdfrwt beam="2">  1       -1 0.36183658E-01 0.17463938E+04</pdfrwt>
<totfact> 0.27529507E+00</totfact>
</mgrwt>
</event>
<event>
12    1  0.1496989E-007  0.2389345E+04  0.7818608E-02  0.8443503E-01
         -2   -1    0    0    0  501 -0.00000000000E+00  0.00000000000E+00  0.27233441711E+04  0.27233441711E+04  0.00000000000E+00 0.  1.
          2   -1    0    0  501    0  0.00000000000E+00 -0.00000000000E+00 -0.52407717742E+03  0.52407717742E+03  0.00000000000E+00 0. -1.
         23    2    1    2    0    0 -0.67252862094E+03  0.95553405169E+01 -0.10109160136E+03  0.68637881534E+03  0.92251372689E+02 0.  0.
        254    2    1    2    0    0  0.67252862094E+03 -0.95553405169E+01  0.23003585950E+04  0.25610425331E+04  0.90271985713E+03 0.  0.
        -24    2    4    4    0    0  0.77052921365E+03 -0.23073063931E+03  0.20508302090E+04  0.22044378865E+04  0.81792129646E+02 0.  0.
         24    2    4    4    0    0 -0.98000592706E+02  0.22117529879E+03  0.24952838600E+03  0.35660464660E+03  0.79873835462E+02 0.  0.
         13    1    3    3    0    0 -0.52902852199E+03 -0.54199724256E+01 -0.11506449078E+03  0.54142440859E+03  0.00000000000E+00 0. -1.
        -13    1    3    3    0    0 -0.14350009895E+03  0.14975312943E+02  0.13972889421E+02  0.14495440675E+03  0.00000000000E+00 0.  1.
          2    1    6    6  502    0 -0.10732441950E+02  0.91835122176E+02  0.13247605042E+03  0.16155116499E+03  0.00000000000E+00 0. -1.
          1    1    5    5  503    0  0.32870142755E+03 -0.13454731428E+03  0.96045889563E+03  0.10240258290E+04  0.00000000000E+00 0. -1.
         -2    1    5    5    0  503  0.44182778610E+03 -0.96183325028E+02  0.10903713134E+04  0.11804120575E+04  0.00000000000E+00 0.  1.
         -1    1    6    6    0  502 -0.87268150757E+02  0.12934017662E+03  0.11705233558E+03  0.19505348161E+03  0.00000000000E+00 0.  1.
<mgrwt>
<rscale>  0 0.23893451E+04</rscale>
<asrwt>0</asrwt>
<pdfrwt beam="1">  1        2 0.80627260E-01 0.23893451E+04</pdfrwt>
<pdfrwt beam="2">  1       -2 0.41897602E+00 0.23893451E+04</pdfrwt>
<totfact> 0.29225517E-01</totfact>
</mgrwt>
</event>
<event>
12    1  0.1496989E-007  0.1536366E+04  0.7818608E-02  0.8860623E-01
          1   -1    0    0  501    0  0.00000000000E+00  0.00000000000E+00  0.39929766548E+04  0.39929766548E+04  0.00000000000E+00 0. -1.
         -1   -1    0    0    0  501 -0.00000000000E+00 -0.00000000000E+00 -0.14778584109E+03  0.14778584109E+03  0.00000000000E+00 0.  1.
         23    2    1    2    0    0 -0.34806872649E+03  0.17331183750E+03  0.21204186611E+04  0.21576707884E+04  0.90438383701E+02 0.  0.
        254    2    1    2    0    0  0.34806872649E+03 -0.17331183750E+03  0.17247721526E+04  0.19830917075E+04  0.89812299304E+03 0.  0.
        -24    2    4    4    0    0  0.28523431104E+03  0.28747719464E+03  0.39246773350E+03  0.56971406959E+03  0.80879228655E+02 0.  0.
         24    2    4    4    0    0  0.62834415451E+02 -0.46078903213E+03  0.13323044191E+04  0.14133776379E+04  0.79539840948E+02 0.  0.
         13    1    3    3    0    0 -0.53203839419E+02  0.34144704541E+02  0.19951556753E+03  0.20929159339E+03  0.00000000000E+00 0.  1.
        -13    1    3    3    0    0 -0.29486488707E+03  0.13916713295E+03  0.19209030936E+04  0.19483791950E+04  0.00000000000E+00 0. -1.
          2    1    6    6  502    0  0.51652387458E+02 -0.18484673667E+03  0.63517169652E+03  0.66353550715E+03  0.00000000000E+00 0. -1.
          3    1    5    5  503    0  0.72381106243E+02  0.11705146984E+03  0.10190657577E+03  0.17124550014E+03  0.00000000000E+00 0. -1.
         -2    1    5    5    0  503  0.21285320480E+03  0.17042572480E+03  0.29056115773E+03  0.39846856946E+03  0.00000000000E+00 0.  1.
         -1    1    6    6    0  502  0.11182027993E+02 -0.27594229546E+03  0.69713272256E+03  0.74984213074E+03  0.00000000000E+00 0.  1.
<mgrwt>
<rscale>  0 0.15363664E+04</rscale>
<asrwt>0</asrwt>
<pdfrwt beam="1">  1        1 0.61430402E+00 0.15363664E+04</pdfrwt>
<pdfrwt beam="2">  1       -1 0.22736286E-01 0.15363664E+04</pdfrwt>
<totfact> 0.15747146E+00</totfact>
</mgrwt>
</event>
<event>
12    1  0.1496989E-007  0.1573769E+04  0.7818608E-02  0.8836827E-01
          2   -1    0    0  501    0  0.00000000000E+00  0.00000000000E+00  0.10343979184E+04  0.10343979184E+04  0.00000000000E+00 0. -1.
         -2   -1    0    0    0  501 -0.00000000000E+00 -0.00000000000E+00 -0.59859684195E+03  0.59859684195E+03  0.00000000000E+00 0.  1.
         23    2    1    2    0    0 -0.30755272471E+03 -0.13108064826E+02 -0.30609010740E+03  0.44410326352E+03  0.93680600880E+02 0.  0.
        254    2    1    2    0    0  0.30755272471E+03  0.13108064826E+02  0.74189118389E+03  0.11888914969E+04  0.87652721735E+03 0.  0.
        -24    2    4    4    0    0  0.19238746526E+03 -0.37323219923E+03  0.12011069461E+03  0.44361376346E+03  0.77790621776E+02 0.  0.
         24    2    4    4    0    0  0.11516525945E+03  0.38634026406E+03  0.62178048928E+03  0.74527773341E+03  0.79410871152E+02 0.  0.
         11    1    3    3    0    0 -0.38201389222E+01 -0.93487136388E+01 -0.36819078393E+02  0.38179005249E+02  0.00000000000E+00 0.  1.
        -11    1    3    3    0    0 -0.30373258579E+03 -0.37593511876E+01 -0.26927102901E+03  0.40592425827E+03  0.00000000000E+00 0. -1.
          4    1    6    6  502    0  0.12679297507E+03  0.35901339230E+03  0.56722261174E+03  0.68316071729E+03  0.00000000000E+00 0. -1.
          1    1    5    5  503    0  0.13519677826E+03 -0.32467758848E+03  0.10548224980E+03  0.36717871716E+03  0.00000000000E+00 0. -1.
         -2    1    5    5    0  503  0.57190686996E+02 -0.48554610748E+02  0.14628444809E+02  0.76435046291E+02  0.00000000000E+00 0.  1.
         -3    1    6    6    0  502 -0.11627715620E+02  0.27326871756E+02  0.54557877536E+02  0.62117016121E+02  0.00000000000E+00 0.  1.
<mgrwt>
<rscale>  0 0.15737691E+04</rscale>
<asrwt>0</asrwt>
<pdfrwt beam="1">  1        2 0.15913814E+00 0.15737691E+04</pdfrwt>
<pdfrwt beam="2">  1       -2 0.92091822E-01 0.15737691E+04</pdfrwt>
<totfact> 0.23060418E+01</totfact>
</mgrwt>
</event>
<event>
12    1  0.1496989E-007  0.1446017E+04  0.7818608E-02  0.8921166E-01
         -4   -1    0    0    0  501 -0.00000000000E+00  0.00000000000E+00  0.12149657405E+04  0.12149657405E+04  0.00000000000E+00 0. -1.
          4   -1    0    0  501    0  0.00000000000E+00 -0.00000000000E+00 -0.43025206534E+03  0.43025206534E+03  0.00000000000E+00 0.  1.
         23    2    1    2    0    0  0.32655781354E+03 -0.32660889124E+02  0.58095683188E+03  0.67326604150E+03  0.89830856964E+02 0.  0.
        254    2    1    2    0    0 -0.32655781354E+03  0.32660889124E+02  0.20375684324E+03  0.97195176431E+03  0.89188936630E+03 0.  0.
        -24    2    4    4    0    0 -0.23465748282E+03  0.43607287069E+03  0.22498525685E+03  0.54972355487E+03  0.79711593808E+02 0.  0.
         24    2    4    4    0    0 -0.91900330720E+02 -0.40341198157E+03 -0.21228413607E+02  0.42222820944E+03  0.81480780807E+02 0.  0.
         11    1    3    3    0    0  0.32505284228E+01 -0.42479059660E+01 -0.22749021777E+01  0.58125571000E+01  0.00000000000E+00 0.  1.
        -11    1    3    3    0    0  0.32330728511E+03 -0.28412983158E+02  0.58323173406E+03  0.66745348440E+03  0.00000000000E+00 0. -1.
          4    1    6    6  502    0 -0.16428030737E+02 -0.68136114307E+01  0.16731065854E+01  0.17863504143E+02  0.00000000000E+00 0. -1.
          1    1    5    5  503    0 -0.75712556876E+02  0.20988975402E+03  0.76191870758E+02  0.23577807633E+03  0.00000000000E+00 0. -1.
         -2    1    5    5    0  503 -0.15894492594E+03  0.22618311668E+03  0.14879338609E+03  0.31394547854E+03  0.00000000000E+00 0.  1.
         -3    1    6    6    0  502 -0.75472299983E+02 -0.39659837014E+03 -0.22901520193E+02  0.40436470530E+03  0.00000000000E+00 0.  1.
<mgrwt>
<rscale>  0 0.14460173E+04</rscale>
<asrwt>0</asrwt>
<pdfrwt beam="1">  1        4 0.66192626E-01 0.14460173E+04</pdfrwt>
<pdfrwt beam="2">  1       -4 0.18691781E+00 0.14460173E+04</pdfrwt>
<totfact> 0.66165173E-01</totfact>
</mgrwt>
</event>
<event>
12    1  0.1496989E-007  0.1703618E+04  0.7818608E-02  0.8759304E-01
         -2   -1    0    0    0  501 -0.00000000000E+00  0.00000000000E+00  0.75737718057E+03  0.75737718057E+03  0.00000000000E+00 0.  1.
          2   -1    0    0  501    0  0.00000000000E+00 -0.00000000000E+00 -0.95801473901E+03  0.95801473901E+03  0.00000000000E+00 0. -1.
         23    2    1    2    0    0 -0.43505692334E+03 -0.27720658076E+03 -0.21027345128E+03  0.56468786565E+03  0.92409124755E+02 0.  0.
        254    2    1    2    0    0  0.43505692334E+03  0.27720658076E+03  0.96358928484E+01  0.11507040539E+04  0.10285470112E+04 0.  0.
        -24    2    4    4    0    0  0.17660582359E+03 -0.17857526930E+03 -0.40134997574E+03  0.47889237855E+03  0.71953898310E+02 0.  0.
         24    2    4    4    0    0  0.25845109976E+03  0.45578185006E+03  0.41098586859E+03  0.67181167537E+03  0.88811469832E+02 0.  0.
         13    1    3    3    0    0 -0.62124644061E+02 -0.54051110504E+01 -0.30741655636E+02  0.69525074731E+02  0.00000000000E+00 0.  1.
        -13    1    3    3    0    0 -0.37293227928E+03 -0.27180146971E+03 -0.17953179565E+03  0.49516279092E+03  0.00000000000E+00 0. -1.
          2    1    6    6  502    0  0.87952488463E+02  0.22805109364E+03  0.15745777612E+03  0.29075056801E+03  0.00000000000E+00 0. -1.
          1    1    5    5  503    0  0.17859924320E+03 -0.17348979289E+03 -0.36319698688E+03  0.44035037094E+03  0.00000000000E+00 0. -1.
         -2    1    5    5    0  503 -0.19934196143E+01 -0.50854764105E+01 -0.38152988858E+02  0.38542007614E+02  0.00000000000E+00 0.  1.
         -1    1    6    6    0  502  0.17049861129E+03  0.22773075642E+03  0.25352809246E+03  0.38106110736E+03  0.00000000000E+00 0.  1.
<mgrwt>
<rscale>  0 0.17036179E+04</rscale>
<asrwt>0</asrwt>
<pdfrwt beam="1">  1        2 0.14738688E+00 0.17036179E+04</pdfrwt>
<pdfrwt beam="2">  1       -2 0.11651957E+00 0.17036179E+04</pdfrwt>
<totfact> 0.14570518E+01</totfact>
</mgrwt>
</event>
<event>
12    1  0.1496989E-007  0.1914644E+04  0.7818608E-02  0.8647601E-01
         -3   -1    0    0    0  501 -0.00000000000E+00  0.00000000000E+00  0.14653844074E+04  0.14653844074E+04  0.00000000000E+00 0.  1.
          3   -1    0    0  501    0  0.00000000000E+00 -0.00000000000E+00 -0.62540973540E+03  0.62540973540E+03  0.00000000000E+00 0. -1.
         23    2    1    2    0    0  0.40603900340E+02  0.40396848930E+03  0.97561840948E+03  0.10606345909E+04  0.90968331623E+02 0.  0.
        254    2    1    2    0    0 -0.40603900340E+02 -0.40396848930E+03 -0.13564373747E+03  0.10301595519E+04  0.93701134566E+03 0.  0.
        -24    2    4    4    0    0 -0.39594896950E+03 -0.16086157327E+02 -0.26428850259E+03  0.48286764521E+03  0.79236350757E+02 0.  0.
         24    2    4    4    0    0  0.35534506916E+03 -0.38788233197E+03  0.12864476513E+03  0.54729190674E+03  0.79095726510E+02 0.  0.
         13    1    3    3    0    0  0.40493545384E+02  0.35681423168E+03  0.92067927523E+03  0.98823400619E+03  0.00000000000E+00 0.  1.
        -13    1    3    3    0    0  0.11035495591E+00  0.47154257619E+02  0.54939134250E+02  0.72400584680E+02  0.00000000000E+00 0. -1.
          4    1    6    6  502    0  0.26910369846E+03 -0.32607624489E+03  0.78779625780E+02  0.43005667934E+03  0.00000000000E+00 0. -1.
          3    1    5    5  503    0 -0.34980501801E+03 -0.21164203735E+02 -0.25977222011E+03  0.43622595118E+03  0.00000000000E+00 0. -1.
         -4    1    5    5    0  503 -0.46143951488E+02  0.50780464080E+01 -0.45162824885E+01  0.46641694028E+02  0.00000000000E+00 0.  1.
         -3    1    6    6    0  502  0.86241370705E+02 -0.61806087083E+02  0.49865139348E+02  0.11723522740E+03  0.00000000000E+00 0.  1.
<mgrwt>
<rscale>  0 0.19146443E+04</rscale>
<asrwt>0</asrwt>
<pdfrwt beam="1">  1        3 0.96216883E-01 0.19146443E+04</pdfrwt>
<pdfrwt beam="2">  1       -3 0.22544375E+00 0.19146443E+04</pdfrwt>
<totfact> 0.23888431E-01</totfact>
</mgrwt>
</event>
<event>
12    1  0.1496989E-007  0.1302905E+04  0.7818608E-02  0.9027264E-01
          1   -1    0    0  501    0  0.00000000000E+00  0.00000000000E+00  0.30121126316E+03  0.30121126316E+03  0.00000000000E+00 0. -1.
         -1   -1    0    0    0  501 -0.00000000000E+00 -0.00000000000E+00 -0.14089468154E+04  0.14089468154E+04  0.00000000000E+00 0.  1.
         23    2    1    2    0    0  0.12233340621E+03  0.30394852592E+03 -0.27423732084E+03  0.43643442000E+03  0.88987224556E+02 0.  0.
        254    2    1    2    0    0 -0.12233340621E+03 -0.30394852592E+03 -0.83349823135E+03  0.12737236585E+04  0.90570551943E+03 0.  0.
        -24    2    4    4    0    0  0.37723053245E+03 -0.65209278806E+02 -0.24170021624E+03  0.45964927020E+03  0.79393528726E+02 0.  0.
         24    2    4    4    0    0 -0.49956393866E+03 -0.23873924711E+03 -0.59179801511E+03  0.81407438833E+03  0.77017284516E+02 0.  0.
         13    1    3    3    0    0  0.78894902939E+02  0.23559296636E+03 -0.15685466073E+03  0.29382279711E+03  0.00000000000E+00 0. -1.
        -13    1    3    3    0    0  0.43438503271E+02  0.68355559563E+02 -0.11738266011E+03  0.14261162289E+03  0.00000000000E+00 0.  1.
          2    1    6    6  502    0 -0.14399570311E+03 -0.57950726832E+02 -0.11964749014E+03  0.19598104794E+03  0.00000000000E+00 0. -1.
          1    1    5    5  503    0  0.96248180438E+02  0.60396062267E+01 -0.92511023858E+02  0.13363561882E+03  0.00000000000E+00 0. -1.
         -2    1    5    5    0  503  0.28098235202E+03 -0.71248885033E+02 -0.14918919238E+03  0.32601365138E+03  0.00000000000E+00 0.  1.
         -1    1    6    6    0  502 -0.35556823555E+03 -0.18078852028E+03 -0.47215052497E+03  0.61809334039E+03  0.00000000000E+00 0.  1.
<mgrwt>
<rscale>  0 0.13029054E+04</rscale>
<asrwt>0</asrwt>
<pdfrwt beam="1">  1        1 0.46340194E-01 0.13029054E+04</pdfrwt>
<pdfrwt beam="2">  1       -1 0.21676105E+00 0.13029054E+04</pdfrwt>
<totfact> 0.99163081E+00</totfact>
</mgrwt>
</event>
<event>
12    1  0.1496989E-007  0.2354887E+04  0.7818608E-02  0.8456589E-01
          2   -1    0    0  501    0  0.00000000000E+00  0.00000000000E+00  0.11027089236E+04  0.11027089236E+04  0.00000000000E+00 0. -1.
         -2   -1    0    0    0  501 -0.00000000000E+00 -0.00000000000E+00 -0.12572432303E+04  0.12572432303E+04  0.00000000000E+00 0.  1.
         23    2    1    2    0    0 -0.67308012334E+03 -0.74020353895E+03 -0.68233658629E+02  0.10069053709E+04  0.90909088374E+02 0.  0.
        254    2    1    2    0    0  0.67308012334E+03  0.74020353895E+03 -0.86300648026E+02  0.13530467830E+04  0.90683497038E+03 0.  0.
        -24    2    4    4    0    0  0.53986570837E+03  0.59684430566E+03 -0.45483043588E+03  0.92799797467E+03  0.81433453249E+02 0.  0.
         24    2    4    4    0    0  0.13321441497E+03  0.14335923329E+03  0.36852978785E+03  0.42504880829E+03  0.80958846142E+02 0.  0.
         13    1    3    3    0    0 -0.66089322864E+03 -0.70212934781E+03 -0.70849233592E+02  0.96684284898E+03  0.00000000000E+00 0.  1.
        -13    1    3    3    0    0 -0.12186894694E+02 -0.38074191143E+02  0.26155749629E+01  0.40062521961E+02  0.00000000000E+00 0. -1.
          2    1    6    6  502    0  0.85438729456E+01  0.28969298678E+02  0.16375594673E+02  0.34356631554E+02  0.00000000000E+00 0. -1.
          3    1    5    5  503    0  0.89032126624E+02  0.10468987531E+03 -0.11410565129E+03  0.17862471615E+03  0.00000000000E+00 0. -1.
         -2    1    5    5    0  503  0.45083358175E+03  0.49215443035E+03 -0.34072478459E+03  0.74937325851E+03  0.00000000000E+00 0.  1.
         -1    1    6    6    0  502  0.12467054202E+03  0.11438993461E+03  0.35215419318E+03  0.39069217674E+03  0.00000000000E+00 0.  1.
<mgrwt>
<rscale>  0 0.23548871E+04</rscale>
<asrwt>0</asrwt>
<pdfrwt beam="1">  1        2 0.16964753E+00 0.23548871E+04</pdfrwt>
<pdfrwt beam="2">  1       -2 0.19342203E+00 0.23548871E+04</pdfrwt>
<totfact> 0.28797614E+00</totfact>
</mgrwt>
</event>
<event>
12    1  0.1496989E-007  0.1656353E+04  0.7818608E-02  0.8786657E-01
         -2   -1    0    0    0  501 -0.00000000000E+00  0.00000000000E+00  0.69997932461E+03  0.69997932461E+03  0.00000000000E+00 0.  1.
          2   -1    0    0  501    0  0.00000000000E+00 -0.00000000000E+00 -0.97985259268E+03  0.97985259268E+03  0.00000000000E+00 0. -1.
         23    2    1    2    0    0  0.26991917345E+03 -0.21890552753E+03  0.35695255829E+03  0.50618407782E+03  0.89616971521E+02 0.  0.
        254    2    1    2    0    0 -0.26991917345E+03  0.21890552753E+03 -0.63682582637E+03  0.11736478395E+04  0.92256497212E+03 0.  0.
        -24    2    4    4    0    0 -0.16419180655E+03  0.66308920637E+02 -0.85496066804E+03  0.87682373651E+03  0.80661630963E+02 0.  0.
         24    2    4    4    0    0 -0.10572736690E+03  0.15259660689E+03  0.21813484167E+03  0.29682410296E+03  0.77831474367E+02 0.  0.
         13    1    3    3    0    0  0.75252905755E+01 -0.51479406098E+01  0.44967409029E+02  0.45882449429E+02  0.00000000000E+00 0. -1.
        -13    1    3    3    0    0  0.26239388288E+03 -0.21375758692E+03  0.31198514926E+03  0.46030162839E+03  0.00000000000E+00 0.  1.
          2    1    6    6  502    0 -0.12930211723E+02  0.56638384892E+01  0.60742131160E+02  0.62360852620E+02  0.00000000000E+00 0. -1.
          1    1    5    5  503    0 -0.16831672225E+03  0.75275952964E+02 -0.79895146422E+03  0.81995148043E+03  0.00000000000E+00 0. -1.
         -2    1    5    5    0  503  0.41249157009E+01 -0.89670323264E+01 -0.56009203821E+02  0.56872256074E+02  0.00000000000E+00 0.  1.
         -1    1    6    6    0  502 -0.92797155178E+02  0.14693276840E+03  0.15739271051E+03  0.23446325034E+03  0.00000000000E+00 0.  1.
<mgrwt>
<rscale>  0 0.16563533E+04</rscale>
<asrwt>0</asrwt>
<pdfrwt beam="1">  1        2 0.15074655E+00 0.16563533E+04</pdfrwt>
<pdfrwt beam="2">  1       -2 0.10768913E+00 0.16563533E+04</pdfrwt>
<totfact> 0.17142860E+01</totfact>
</mgrwt>
</event>
<event>
12    1  0.1496989E-007  0.3032699E+04  0.7818608E-02  0.8234455E-01
         -1   -1    0    0    0  501 -0.00000000000E+00  0.00000000000E+00  0.10188792593E+04  0.10188792593E+04  0.00000000000E+00 0.  1.
          1   -1    0    0  501    0  0.00000000000E+00 -0.00000000000E+00 -0.22567107080E+04  0.22567107080E+04  0.00000000000E+00 0. -1.
         23    2    1    2    0    0 -0.61582273863E+03 -0.12247230223E+04 -0.38373225654E+03  0.14264648867E+04  0.91474047261E+02 0.  0.
        254    2    1    2    0    0  0.61582273863E+03  0.12247230223E+04 -0.85409919220E+03  0.18491250806E+04  0.90032994325E+03 0.  0.
        -24    2    4    4    0    0  0.18828895950E+03  0.10382394842E+04 -0.87907470778E+03  0.13757072595E+04  0.80026016399E+02 0.  0.
         24    2    4    4    0    0  0.42753377913E+03  0.18648353813E+03  0.24975515576E+02  0.47341782104E+03  0.77067597670E+02 0.  0.
         11    1    3    3    0    0 -0.14455271344E+03 -0.34559079483E+03 -0.13749070274E+03  0.39903906798E+03  0.00000000000E+00 0. -1.
        -11    1    3    3    0    0 -0.47127002518E+03 -0.87913222749E+03 -0.24624155380E+03  0.10274258187E+04  0.00000000000E+00 0.  1.
          4    1    6    6  502    0  0.28091349602E+02  0.36539269458E+02  0.33707303106E+01  0.46212595230E+02  0.00000000000E+00 0. -1.
          3    1    5    5  503    0  0.10675987726E+03  0.63797365041E+03 -0.58764820285E+03  0.87392131243E+03  0.00000000000E+00 0. -1.
         -4    1    5    5    0  503  0.81529082236E+02  0.40026583379E+03 -0.29142650493E+03  0.50178594711E+03  0.00000000000E+00 0.  1.
         -3    1    6    6    0  502  0.39944242953E+03  0.14994426867E+03  0.21604785266E+02  0.42720522581E+03  0.00000000000E+00 0.  1.
<mgrwt>
<rscale>  0 0.30326990E+04</rscale>
<asrwt>0</asrwt>
<pdfrwt beam="1">  1        1 0.34718626E+00 0.30326990E+04</pdfrwt>
<pdfrwt beam="2">  1       -1 0.15675066E+00 0.30326990E+04</pdfrwt>
<totfact> 0.52312401E-01</totfact>
</mgrwt>
</event>
<event>
12    1  0.1496989E-007  0.2140890E+04  0.7818608E-02  0.8543442E-01
         -1   -1    0    0    0  501 -0.00000000000E+00  0.00000000000E+00  0.67160765099E+03  0.67160765099E+03  0.00000000000E+00 0.  1.
          1   -1    0    0  501    0  0.00000000000E+00 -0.00000000000E+00 -0.17061343973E+04  0.17061343973E+04  0.00000000000E+00 0. -1.
         23    2    1    2    0    0 -0.90504997225E+02  0.65134391906E+03  0.22515719859E+03  0.70098964868E+03  0.90833188063E+02 0.  0.
        254    2    1    2    0    0  0.90504997225E+02 -0.65134391906E+03 -0.12596839449E+04  0.16767523996E+04  0.89008702561E+03 0.  0.
        -24    2    4    4    0    0 -0.20959958779E+02  0.20905132736E+03 -0.35748916586E+03  0.42257429595E+03  0.81417163719E+02 0.  0.
         24    2    4    4    0    0  0.11146495600E+03 -0.86039524642E+03 -0.90219477900E+03  0.12541781036E+04  0.79390678958E+02 0.  0.
         13    1    3    3    0    0 -0.70767902315E+02  0.58104760781E+03  0.17013885316E+03  0.60956677066E+03  0.00000000000E+00 0.  1.
        -13    1    3    3    0    0 -0.19737094911E+02  0.70296311252E+02  0.55018345424E+02  0.91422878014E+02  0.00000000000E+00 0. -1.
          4    1    6    6  502    0  0.27741877446E+02 -0.44121369513E+03 -0.41991575213E+03  0.60972811598E+03  0.00000000000E+00 0. -1.
          1    1    5    5  503    0 -0.25195546113E+02  0.21573150714E+03 -0.34803309130E+03  0.41024618385E+03  0.00000000000E+00 0. -1.
         -2    1    5    5    0  503  0.42355873338E+01 -0.66801797846E+01 -0.94560745514E+01  0.12328112100E+02  0.00000000000E+00 0.  1.
         -3    1    6    6    0  502  0.83723078559E+02 -0.41918155129E+03 -0.48227902688E+03  0.64444998765E+03  0.00000000000E+00 0.  1.
<mgrwt>
<rscale>  0 0.21408904E+04</rscale>
<asrwt>0</asrwt>
<pdfrwt beam="1">  1        1 0.26248221E+00 0.21408904E+04</pdfrwt>
<pdfrwt beam="2">  1       -1 0.10332425E+00 0.21408904E+04</pdfrwt>
<totfact> 0.38228532E+00</totfact>
</mgrwt>
</event>
<event>
12    1  0.1496989E-007  0.1716996E+04  0.7818608E-02  0.8751730E-01
          2   -1    0    0  501    0  0.00000000000E+00  0.00000000000E+00  0.32054369371E+04  0.32054369371E+04  0.00000000000E+00 0. -1.
         -2   -1    0    0    0  501 -0.00000000000E+00 -0.00000000000E+00 -0.22992783162E+03  0.22992783162E+03  0.00000000000E+00 0.  1.
         23    2    1    2    0    0 -0.12241889343E+03  0.40430322001E+03  0.16866800487E+03  0.46286955342E+03  0.85742920635E+02 0.  0.
        254    2    1    2    0    0  0.12241889343E+03 -0.40430322001E+03  0.28068411006E+04  0.29724952153E+04  0.88256634973E+03 0.  0.
        -24    2    4    4    0    0  0.19013490262E+03 -0.47784776671E+03  0.27959839965E+04  0.28440054932E+04  0.79692957784E+02 0.  0.
         24    2    4    4    0    0 -0.67716009190E+02  0.73544546697E+02  0.10857104164E+02  0.12848972211E+03  0.79984209239E+02 0.  0.
         13    1    3    3    0    0 -0.39470352847E+02  0.16225946058E+03  0.23338768693E+02  0.16861417326E+03  0.00000000000E+00 0.  1.
        -13    1    3    3    0    0 -0.82948540584E+02  0.24204375943E+03  0.14532923618E+03  0.29425538016E+03  0.00000000000E+00 0. -1.
          2    1    6    6  502    0 -0.60079592430E+01 -0.14798999779E+02 -0.98387951419E+01  0.18759207301E+02  0.00000000000E+00 0. -1.
          1    1    5    5  503    0  0.41887445554E+02 -0.91102922911E+02  0.39313880620E+03  0.40572456371E+03  0.00000000000E+00 0. -1.
         -2    1    5    5    0  503  0.14824745707E+03 -0.38674484380E+03  0.24028451903E+04  0.24382809295E+04  0.00000000000E+00 0.  1.
         -1    1    6    6    0  502 -0.61708049947E+02  0.88343546476E+02  0.20695899306E+02  0.10973051481E+03  0.00000000000E+00 0.  1.
<mgrwt>
<rscale>  0 0.17169964E+04</rscale>
<asrwt>0</asrwt>
<pdfrwt beam="1">  1        2 0.49314411E+00 0.17169964E+04</pdfrwt>
<pdfrwt beam="2">  1       -2 0.35373515E-01 0.17169964E+04</pdfrwt>
<totfact> 0.92344252E+00</totfact>
</mgrwt>
</event>
<event>
12    1  0.1496989E-007  0.1576031E+04  0.7818608E-02  0.8835410E-01
         -2   -1    0    0    0  501 -0.00000000000E+00  0.00000000000E+00  0.49169258064E+03  0.49169258064E+03  0.00000000000E+00 0.  1.
          2   -1    0    0  501    0  0.00000000000E+00 -0.00000000000E+00 -0.12629202925E+04  0.12629202925E+04  0.00000000000E+00 0. -1.
         23    2    1    2    0    0 -0.33330456422E+03  0.28480505014E+03  0.63931814029E+02  0.45242302638E+03  0.91615876555E+02 0.  0.
        254    2    1    2    0    0  0.33330456422E+03 -0.28480505014E+03 -0.83515952591E+03  0.13021898468E+04  0.89777564806E+03 0.  0.
        -24    2    4    4    0    0  0.26281313432E+03 -0.43349111198E+02  0.12516556262E+03  0.30625992578E+03  0.84728006355E+02 0.  0.
         24    2    4    4    0    0  0.70491429902E+02 -0.24145593895E+03 -0.96032508854E+03  0.99592992101E+03  0.79888170248E+02 0.  0.
         13    1    3    3    0    0 -0.26098848857E+03  0.25776060206E+03  0.75056042050E+02  0.37441812000E+03  0.00000000000E+00 0.  1.
        -13    1    3    3    0    0 -0.72316075650E+02  0.27044448086E+02 -0.11124228021E+02  0.78004906377E+02  0.00000000000E+00 0. -1.
          4    1    6    6  502    0  0.42209596214E+02 -0.14398456706E+03 -0.41619245178E+03  0.44241311292E+03  0.00000000000E+00 0. -1.
          3    1    5    5  503    0  0.21225004471E+03 -0.22873519135E+00  0.85180003193E+02  0.22870454028E+03  0.00000000000E+00 0. -1.
         -4    1    5    5    0  503  0.50563089606E+02 -0.43120376006E+02  0.39985559432E+02  0.77555385503E+02  0.00000000000E+00 0.  1.
         -3    1    6    6    0  502  0.28281833688E+02 -0.97471371886E+02 -0.54413263676E+03  0.55351680809E+03  0.00000000000E+00 0.  1.
<mgrwt>
<rscale>  0 0.15760311E+04</rscale>
<asrwt>0</asrwt>
<pdfrwt beam="1">  1        2 0.19429543E+00 0.15760311E+04</pdfrwt>
<pdfrwt beam="2">  1       -2 0.75645013E-01 0.15760311E+04</pdfrwt>
<totfact> 0.26161080E+01</totfact>
</mgrwt>
</event>
<event>
12    1  0.1496989E-007  0.1990319E+04  0.7818608E-02  0.8611160E-01
         -2   -1    0    0    0  501 -0.00000000000E+00  0.00000000000E+00  0.41139411948E+03  0.41139411948E+03  0.00000000000E+00 0.  1.
          2   -1    0    0  501    0  0.00000000000E+00 -0.00000000000E+00 -0.24072850068E+04  0.24072850068E+04  0.00000000000E+00 0. -1.
         23    2    1    2    0    0  0.79281250281E+02  0.52430045495E+03 -0.16384847218E+04  0.17246869827E+04  0.93469358707E+02 0.  0.
        254    2    1    2    0    0 -0.79281250281E+02 -0.52430045495E+03 -0.35740616552E+03  0.10939921436E+04  0.88763909296E+03 0.  0.
        -24    2    4    4    0    0 -0.35812907382E+03 -0.54657241890E+03 -0.44018902788E+03  0.79172753066E+03  0.77899036724E+02 0.  0.
         24    2    4    4    0    0  0.27884782354E+03  0.22271963950E+02  0.82782862357E+02  0.30226461292E+03  0.79112229474E+02 0.  0.
         11    1    3    3    0    0  0.70343349394E+02  0.41766269568E+03 -0.11749040752E+04  0.12489154896E+04  0.00000000000E+00 0. -1.
        -11    1    3    3    0    0  0.89379008873E+01  0.10663775927E+03 -0.46358064655E+03  0.47577149308E+03  0.00000000000E+00 0.  1.
          4    1    6    6  502    0  0.25033843662E+03  0.64436470012E+01  0.48733302512E+02  0.25511916472E+03  0.00000000000E+00 0. -1.
          1    1    5    5  503    0 -0.33115686799E+03 -0.45624113460E+03 -0.38050089458E+03  0.68014834771E+03  0.00000000000E+00 0. -1.
         -2    1    5    5    0  503 -0.26972205828E+02 -0.90331284301E+02 -0.59688133296E+02  0.11157918295E+03  0.00000000000E+00 0.  1.
         -3    1    6    6    0  502  0.28509386923E+02  0.15828316949E+02  0.34049559845E+02  0.47145448198E+02  0.00000000000E+00 0.  1.
<mgrwt>
<rscale>  0 0.19903195E+04</rscale>
<asrwt>0</asrwt>
<pdfrwt beam="1">  1        2 0.37035155E+00 0.19903195E+04</pdfrwt>
<pdfrwt beam="2">  1       -2 0.63291402E-01 0.19903195E+04</pdfrwt>
<totfact> 0.84658176E+00</totfact>
</mgrwt>
</event>
<event>
12    1  0.1496989E-007  0.2727105E+04  0.7818608E-02  0.8326264E-01
          2   -1    0    0  501    0  0.00000000000E+00  0.00000000000E+00  0.23498609861E+04  0.23498609861E+04  0.00000000000E+00 0. -1.
         -2   -1    0    0    0  501 -0.00000000000E+00 -0.00000000000E+00 -0.79122762717E+03  0.79122762717E+03  0.00000000000E+00 0.  1.
         23    2    1    2    0    0  0.33623762676E+03 -0.90453472654E+03 -0.15458592374E+03  0.98139760650E+03  0.89474248032E+02 0.  0.
        254    2    1    2    0    0 -0.33623762676E+03  0.90453472654E+03  0.17132192826E+04  0.21596910067E+04  0.89325591015E+03 0.  0.
        -24    2    4    4    0    0 -0.52519672938E+03  0.39140157476E+03  0.13365615926E+04  0.14905446037E+04  0.79369561984E+02 0.  0.
         24    2    4    4    0    0  0.18895910262E+03  0.51313315178E+03  0.37665769001E+03  0.66914640307E+03  0.82913927486E+02 0.  0.
         13    1    3    3    0    0  0.84143630772E+02 -0.13805641587E+03 -0.13010908506E+02  0.16220051881E+03  0.00000000000E+00 0. -1.
        -13    1    3    3    0    0  0.25209399598E+03 -0.76647831067E+03 -0.14157501523E+03  0.81919708769E+03  0.00000000000E+00 0.  1.
          2    1    6    6  502    0  0.64031941124E+02  0.12190022265E+03  0.58379609311E+02  0.14955912727E+03  0.00000000000E+00 0. -1.
          1    1    5    5  503    0 -0.27899785907E+03  0.23385092351E+03  0.81630752677E+03  0.89380313160E+03  0.00000000000E+00 0. -1.
         -2    1    5    5    0  503 -0.24619887031E+03  0.15755065125E+03  0.52025406585E+03  0.59674147206E+03  0.00000000000E+00 0.  1.
         -1    1    6    6    0  502  0.12492716150E+03  0.39123292914E+03  0.31827808070E+03  0.51958727580E+03  0.00000000000E+00 0.  1.
<mgrwt>
<rscale>  0 0.27271046E+04</rscale>
<asrwt>0</asrwt>
<pdfrwt beam="1">  1        2 0.36151707E+00 0.27271046E+04</pdfrwt>
<pdfrwt beam="2">  1       -2 0.12172733E+00 0.27271046E+04</pdfrwt>
<totfact> 0.19046390E+00</totfact>
</mgrwt>
</event>
<event>
12    1  0.1496989E-007  0.1282376E+04  0.7818608E-02  0.9043659E-01
          1   -1    0    0  501    0  0.00000000000E+00  0.00000000000E+00  0.14532851130E+04  0.14532851130E+04  0.00000000000E+00 0. -1.
         -1   -1    0    0    0  501 -0.00000000000E+00 -0.00000000000E+00 -0.28289148040E+03  0.28289148040E+03  0.00000000000E+00 0.  1.
         23    2    1    2    0    0  0.49329285628E+02  0.18912977412E+03  0.62502817297E+03  0.66191351611E+03  0.96259212154E+02 0.  0.
        254    2    1    2    0    0 -0.49329285628E+02 -0.18912977412E+03  0.54536545964E+03  0.10742630773E+04  0.90466249221E+03 0.  0.
        -24    2    4    4    0    0  0.21797118762E+03 -0.35167838169E+03 -0.21957422937E+02  0.42135832520E+03  0.76626281443E+02 0.  0.
         24    2    4    4    0    0 -0.26730047325E+03  0.16254860757E+03  0.56732288258E+03  0.65290475211E+03  0.80980055595E+02 0.  0.
         11    1    3    3    0    0  0.71301366616E+02  0.94251279591E+02  0.38979019618E+03  0.40731263867E+03  0.00000000000E+00 0. -1.
        -11    1    3    3    0    0 -0.21972080988E+02  0.94878494529E+02  0.23523797679E+03  0.25460087743E+03  0.00000000000E+00 0.  1.
          4    1    6    6  502    0 -0.76953899063E+02  0.72725830276E+02  0.25680413069E+03  0.27777564779E+03  0.00000000000E+00 0. -1.
          1    1    5    5  503    0  0.89821622653E+02 -0.21712698350E+03 -0.12613391034E+02  0.23531074878E+03  0.00000000000E+00 0. -1.
         -2    1    5    5    0  503  0.12814956497E+03 -0.13455139820E+03 -0.93440319031E+01  0.18604757642E+03  0.00000000000E+00 0.  1.
         -3    1    6    6    0  502 -0.19034657419E+03  0.89822777298E+02  0.31051875189E+03  0.37512910431E+03  0.00000000000E+00 0.  1.
<mgrwt>
<rscale>  0 0.12823759E+04</rscale>
<asrwt>0</asrwt>
<pdfrwt beam="1">  1        1 0.22358232E+00 0.12823759E+04</pdfrwt>
<pdfrwt beam="2">  1       -1 0.43521767E-01 0.12823759E+04</pdfrwt>
<totfact> 0.36144190E+01</totfact>
</mgrwt>
</event>
<event>
12    1  0.1496989E-007  0.1807783E+04  0.7818608E-02  0.8702172E-01
         -1   -1    0    0    0  501 -0.00000000000E+00  0.00000000000E+00  0.76538774858E+03  0.76538774858E+03  0.00000000000E+00 0.  1.
          1   -1    0    0  501    0  0.00000000000E+00 -0.00000000000E+00 -0.10674585248E+04  0.10674585248E+04  0.00000000000E+00 0. -1.
         23    2    1    2    0    0 -0.13900089442E+03  0.36574133735E+03  0.44448064543E+03  0.59926702852E+03  0.92032346549E+02 0.  0.
        254    2    1    2    0    0  0.13900089442E+03 -0.36574133735E+03 -0.74655142167E+03  0.12335792449E+04  0.90071679995E+03 0.  0.
        -24    2    4    4    0    0 -0.24129299111E+03 -0.18299166411E+03 -0.74027416990E+03  0.80405490327E+03  0.82402573757E+02 0.  0.
         24    2    4    4    0    0  0.38029388554E+03 -0.18274967323E+03 -0.62772517776E+01  0.42952434161E+03  0.80192728512E+02 0.  0.
         11    1    3    3    0    0 -0.12376127644E+03  0.35989877835E+03  0.40113106370E+03  0.55294675555E+03  0.00000000000E+00 0.  1.
        -11    1    3    3    0    0 -0.15239617976E+02  0.58425589939E+01  0.43349581729E+02  0.46320272967E+02  0.00000000000E+00 0. -1.
          4    1    6    6  502    0  0.38444974160E+03 -0.18109018928E+03 -0.56258657596E+01  0.42500224803E+03  0.00000000000E+00 0. -1.
          1    1    5    5  503    0 -0.97464293210E+02 -0.29826399574E+02 -0.28373870408E+03  0.30149055500E+03  0.00000000000E+00 0. -1.
         -2    1    5    5    0  503 -0.14382869790E+03 -0.15316526454E+03 -0.45653546582E+03  0.50256434827E+03  0.00000000000E+00 0.  1.
         -3    1    6    6    0  502 -0.41558560624E+01 -0.16594839556E+01 -0.65138601797E+00  0.45220935809E+01  0.00000000000E+00 0.  1.
<mgrwt>
<rscale>  0 0.18077828E+04</rscale>
<asrwt>0</asrwt>
<pdfrwt beam="1">  1        1 0.16422439E+00 0.18077828E+04</pdfrwt>
<pdfrwt beam="2">  1       -1 0.11775196E+00 0.18077828E+04</pdfrwt>
<totfact> 0.82059010E+00</totfact>
</mgrwt>
</event>
<event>
12    1  0.1496989E-007  0.1808424E+04  0.7818608E-02  0.8701832E-01
         -1   -1    0    0    0  501 -0.00000000000E+00  0.00000000000E+00  0.38450703062E+03  0.38450703062E+03  0.00000000000E+00 0.  1.
          1   -1    0    0  501    0  0.00000000000E+00 -0.00000000000E+00 -0.21263582776E+04  0.21263582776E+04  0.00000000000E+00 0. -1.
         23    2    1    2    0    0 -0.12751884397E+03 -0.33799458776E+03  0.13819535197E+03  0.39717001543E+03  0.90247819524E+02 0.  0.
        254    2    1    2    0    0  0.12751884397E+03  0.33799458776E+03 -0.18800465990E+04  0.21136952928E+04  0.89589685770E+03 0.  0.
        -24    2    4    4    0    0 -0.33694559655E+03  0.35059314914E+03 -0.10073447122E+04  0.11212403802E+04  0.77386884131E+02 0.  0.
         24    2    4    4    0    0  0.46446444052E+03 -0.12598561388E+02 -0.87270188677E+03  0.99245491257E+03  0.86442061801E+02 0.  0.
         11    1    3    3    0    0 -0.87552900424E+02 -0.26998325246E+03  0.68656104785E+02  0.29201049246E+03  0.00000000000E+00 0.  1.
        -11    1    3    3    0    0 -0.39965943546E+02 -0.68011335297E+02  0.69539247183E+02  0.10515952297E+03  0.00000000000E+00 0. -1.
          2    1    6    6  502    0  0.10851238359E+03 -0.25262699121E+02 -0.27444787752E+03  0.29620057197E+03  0.00000000000E+00 0. -1.
          3    1    5    5  503    0 -0.10922704375E+03  0.81207323307E+02 -0.34386194797E+03  0.36981916623E+03  0.00000000000E+00 0. -1.
         -4    1    5    5    0  503 -0.22771855280E+03  0.26938582584E+03 -0.66348276422E+03  0.75142121402E+03  0.00000000000E+00 0.  1.
         -1    1    6    6    0  502  0.35595205693E+03  0.12664137732E+02 -0.59825400925E+03  0.69625434060E+03  0.00000000000E+00 0.  1.
<mgrwt>
<rscale>  0 0.18084244E+04</rscale>
<asrwt>0</asrwt>
<pdfrwt beam="1">  1        1 0.32713204E+00 0.18084244E+04</pdfrwt>
<pdfrwt beam="2">  1       -1 0.59154928E-01 0.18084244E+04</pdfrwt>
<totfact> 0.66810657E+00</totfact>
</mgrwt>
</event>
<event>
12    1  0.1496989E-007  0.1762474E+04  0.7818608E-02  0.8726514E-01
          1   -1    0    0  501    0  0.00000000000E+00  0.00000000000E+00  0.83926574480E+03  0.83926574480E+03  0.00000000000E+00 0. -1.
         -1   -1    0    0    0  501 -0.00000000000E+00 -0.00000000000E+00 -0.92530676153E+03  0.92530676153E+03  0.00000000000E+00 0.  1.
         23    2    1    2    0    0 -0.36378156491E+03  0.24601566703E+03  0.43988524385E+03  0.62757438895E+03  0.86543922468E+02 0.  0.
        254    2    1    2    0    0  0.36378156491E+03 -0.24601566703E+03 -0.52592626058E+03  0.11369981174E+04  0.90736186384E+03 0.  0.
        -24    2    4    4    0    0  0.34046321141E+02 -0.53011734975E+02  0.24951229608E+03  0.26878201029E+03  0.77575686485E+02 0.  0.
         24    2    4    4    0    0  0.32973524377E+03 -0.19300393206E+03 -0.77543855665E+03  0.86821610709E+03  0.80736637787E+02 0.  0.
         11    1    3    3    0    0 -0.19055893232E+03  0.77363453923E+02  0.21101740724E+03  0.29466278498E+03  0.00000000000E+00 0. -1.
        -11    1    3    3    0    0 -0.17322263259E+03  0.16865221311E+03  0.22886783661E+03  0.33291160397E+03  0.00000000000E+00 0.  1.
          2    1    6    6  502    0  0.20783768338E+03 -0.15576304502E+03 -0.46479913337E+03  0.53244423483E+03  0.00000000000E+00 0. -1.
          3    1    5    5  503    0  0.42523857461E+02 -0.69161766835E+02  0.19242571722E+03  0.20885230450E+03  0.00000000000E+00 0. -1.
         -4    1    5    5    0  503 -0.84775363197E+01  0.16150031860E+02  0.57086578855E+02  0.59929705794E+02  0.00000000000E+00 0.  1.
         -3    1    6    6    0  502  0.12189756040E+03 -0.37240887040E+02 -0.31063942329E+03  0.33577187226E+03  0.00000000000E+00 0.  1.
<mgrwt>
<rscale>  0 0.17624736E+04</rscale>
<asrwt>0</asrwt>
<pdfrwt beam="1">  1        1 0.12911781E+00 0.17624736E+04</pdfrwt>
<pdfrwt beam="2">  1       -1 0.14235489E+00 0.17624736E+04</pdfrwt>
<totfact> 0.77678368E+00</totfact>
</mgrwt>
</event>
<event>
12    1  0.1496989E-007  0.2365030E+04  0.7818608E-02  0.8452713E-01
         -1   -1    0    0    0  501 -0.00000000000E+00  0.00000000000E+00  0.85789816979E+03  0.85789816979E+03  0.00000000000E+00 0.  1.
          1   -1    0    0  501    0  0.00000000000E+00 -0.00000000000E+00 -0.16299617097E+04  0.16299617097E+04  0.00000000000E+00 0. -1.
         23    2    1    2    0    0 -0.66241674019E+03  0.41578763886E+03 -0.97614554486E+03  0.12541225885E+04  0.91038694651E+02 0.  0.
        254    2    1    2    0    0  0.66241674019E+03 -0.41578763886E+03  0.20408200499E+03  0.12337372910E+04  0.93208526435E+03 0.  0.
        -24    2    4    4    0    0 -0.92631760797E+02 -0.33353576267E+03  0.29766981850E+03  0.46426605659E+03  0.84314307025E+02 0.  0.
         24    2    4    4    0    0  0.75504850098E+03 -0.82251876191E+02 -0.93587813508E+02  0.76947123436E+03  0.80397087633E+02 0.  0.
         11    1    3    3    0    0 -0.49825962883E+03  0.34982982541E+03 -0.72119722297E+03  0.94380559380E+03  0.00000000000E+00 0. -1.
        -11    1    3    3    0    0 -0.16415711135E+03  0.65957813451E+02 -0.25494832190E+03  0.31031699471E+03  0.00000000000E+00 0.  1.
          2    1    6    6  502    0  0.74047331033E+03 -0.79390918339E+02 -0.10311944965E+03  0.75182262677E+03  0.00000000000E+00 0. -1.
          1    1    5    5  503    0 -0.70022039438E+02 -0.28610032424E+03  0.20888066401E+03  0.36109225045E+03  0.00000000000E+00 0. -1.
         -2    1    5    5    0  503 -0.22609721358E+02 -0.47435438431E+02  0.88789154490E+02  0.10317380614E+03  0.00000000000E+00 0.  1.
         -3    1    6    6    0  502  0.14575190649E+02 -0.28609578518E+01  0.95316361421E+01  0.17648607589E+02  0.00000000000E+00 0.  1.
<mgrwt>
<rscale>  0 0.23650295E+04</rscale>
<asrwt>0</asrwt>
<pdfrwt beam="1">  1        1 0.25076333E+00 0.23650295E+04</pdfrwt>
<pdfrwt beam="2">  1       -1 0.13198434E+00 0.23650295E+04</pdfrwt>
<totfact> 0.23344369E+00</totfact>
</mgrwt>
</event>
<event>
12    1  0.1496989E-007  0.3933867E+04  0.7818608E-02  0.8018022E-01
         -2   -1    0    0    0  501 -0.00000000000E+00  0.00000000000E+00  0.87513406949E+03  0.87513406949E+03  0.00000000000E+00 0. -1.
          2   -1    0    0  501    0  0.00000000000E+00 -0.00000000000E+00 -0.44208397073E+04  0.44208397073E+04  0.00000000000E+00 0.  1.
         23    2    1    2    0    0  0.58519994002E+03 -0.54388883226E+03 -0.39415689282E+04  0.40227202524E+04  0.89658138061E+02 0.  0.
        254    2    1    2    0    0 -0.58519994002E+03  0.54388883226E+03  0.39586329037E+03  0.12732535244E+04  0.90895146244E+03 0.  0.
        -24    2    4    4    0    0 -0.51889243489E+03  0.22862999340E+03  0.64155482328E+03  0.86001025198E+03  0.80647438630E+02 0.  0.
         24    2    4    4    0    0 -0.66307505133E+02  0.31525883886E+03 -0.24569153292E+03  0.41324327242E+03  0.81368618876E+02 0.  0.
         11    1    3    3    0    0  0.85594726804E+02 -0.47374312141E+02 -0.40034312167E+03  0.41212303719E+03  0.00000000000E+00 0. -1.
        -11    1    3    3    0    0  0.49960521322E+03 -0.49651452012E+03 -0.35412258065E+04  0.36105972152E+04  0.00000000000E+00 0.  1.
          4    1    6    6  502    0  0.81267455248E+01  0.98032618378E+01 -0.28231949214E+02  0.30970807091E+02  0.00000000000E+00 0. -1.
          1    1    5    5  503    0 -0.28651936226E+03  0.14707673347E+03  0.31015543282E+03  0.44712560091E+03  0.00000000000E+00 0. -1.
         -2    1    5    5    0  503 -0.23237307263E+03  0.81553259930E+02  0.33139939047E+03  0.41288465107E+03  0.00000000000E+00 0.  1.
         -3    1    6    6    0  502 -0.74434250658E+02  0.30545557702E+03 -0.21745958371E+03  0.38227246533E+03  0.00000000000E+00 0.  1.
<mgrwt>
<rscale>  0 0.39338670E+04</rscale>
<asrwt>0</asrwt>
<pdfrwt beam="1">  1        2 0.68012920E+00 0.39338670E+04</pdfrwt>
<pdfrwt beam="2">  1       -2 0.13463601E+00 0.39338670E+04</pdfrwt>
<totfact> 0.45925534E-02</totfact>
</mgrwt>
</event>
<event>
12    1  0.1496989E-007  0.1338937E+04  0.7818608E-02  0.8999245E-01
         -2   -1    0    0    0  501 -0.00000000000E+00  0.00000000000E+00  0.40558324065E+03  0.40558324065E+03  0.00000000000E+00 0. -1.
          2   -1    0    0  501    0  0.00000000000E+00 -0.00000000000E+00 -0.11050459005E+04  0.11050459005E+04  0.00000000000E+00 0.  1.
         23    2    1    2    0    0 -0.70172360684E+01 -0.28617840808E+03 -0.44392004029E+03  0.53631151407E+03  0.92831649249E+02 0.  0.
        254    2    1    2    0    0  0.70172360684E+01  0.28617840808E+03 -0.25554261955E+03  0.97431762708E+03  0.89556992199E+03 0.  0.
        -24    2    4    4    0    0 -0.42706508664E+02  0.53989181130E+03  0.68985603606E+02  0.55164603883E+03  0.79040020631E+02 0.  0.
         24    2    4    4    0    0  0.49723744732E+02 -0.25371340322E+03 -0.32452822316E+03  0.42267158825E+03  0.80559059863E+02 0.  0.
         11    1    3    3    0    0 -0.29952583270E+02 -0.33238317729E+02 -0.92140314300E+02  0.10242939290E+03  0.00000000000E+00 0. -1.
        -11    1    3    3    0    0  0.22935347201E+02 -0.25294009035E+03 -0.35177972599E+03  0.43388212118E+03  0.00000000000E+00 0.  1.
          4    1    6    6  502    0 -0.18026741810E+02 -0.78282705104E+02 -0.72477850570E+02  0.10819512079E+03  0.00000000000E+00 0. -1.
          1    1    5    5  503    0  0.21129503496E+02  0.70360397986E+02  0.92654029921E+01  0.74046534121E+02  0.00000000000E+00 0. -1.
         -2    1    5    5    0  503 -0.63836012160E+02  0.46953141331E+03  0.59720200614E+02  0.47759950471E+03  0.00000000000E+00 0.  1.
         -3    1    6    6    0  502  0.67750486542E+02 -0.17543069811E+03 -0.25205037259E+03  0.31447646747E+03  0.00000000000E+00 0.  1.
<mgrwt>
<rscale>  0 0.13389370E+04</rscale>
<asrwt>0</asrwt>
<pdfrwt beam="1">  1        2 0.17000706E+00 0.13389370E+04</pdfrwt>
<pdfrwt beam="2">  1       -2 0.62397423E-01 0.13389370E+04</pdfrwt>
<totfact> 0.50391024E+01</totfact>
</mgrwt>
</event>
<event>
12    1  0.1496989E-007  0.1955514E+04  0.7818608E-02  0.8627706E-01
          2   -1    0    0  501    0  0.00000000000E+00  0.00000000000E+00  0.22147356371E+04  0.22147356371E+04  0.00000000000E+00 0. -1.
         -2   -1    0    0    0  501 -0.00000000000E+00 -0.00000000000E+00 -0.43165838450E+03  0.43165838450E+03  0.00000000000E+00 0.  1.
         23    2    1    2    0    0  0.19487677108E+03  0.26114285117E+03  0.16448775062E+04  0.16792382249E+04  0.89702067975E+02 0.  0.
        254    2    1    2    0    0 -0.19487677108E+03 -0.26114285117E+03  0.13819974639E+03  0.96715579668E+03  0.90006589788E+03 0.  0.
        -24    2    4    4    0    0  0.85488725564E+02 -0.45773874362E+03 -0.16758191629E+03  0.50131313209E+03  0.79987987428E+02 0.  0.
         24    2    4    4    0    0 -0.28036549665E+03  0.19659589245E+03  0.30578166268E+03  0.46584266458E+03  0.79070893991E+02 0.  0.
         11    1    3    3    0    0  0.16970143776E+03  0.23580752028E+03  0.15650208996E+04  0.15917582042E+04  0.00000000000E+00 0. -1.
        -11    1    3    3    0    0  0.25175333319E+02  0.25335330891E+02  0.79856606592E+02  0.87480020665E+02  0.00000000000E+00 0.  1.
          4    1    6    6  502    0 -0.55305871458E+01  0.36289674461E+01 -0.49973858015E+01  0.82903958742E+01  0.00000000000E+00 0. -1.
          3    1    5    5  503    0 -0.34794011011E+01 -0.13863581429E+03 -0.73429083591E+02  0.15691980612E+03  0.00000000000E+00 0. -1.
         -4    1    5    5    0  503  0.88968126665E+02 -0.31910292934E+03 -0.94152832695E+02  0.34439332598E+03  0.00000000000E+00 0.  1.
         -3    1    6    6    0  502 -0.27483490950E+03  0.19296692500E+03  0.31077904848E+03  0.45755226871E+03  0.00000000000E+00 0.  1.
<mgrwt>
<rscale>  0 0.19555145E+04</rscale>
<asrwt>0</asrwt>
<pdfrwt beam="1">  1        2 0.34072855E+00 0.19555145E+04</pdfrwt>
<pdfrwt beam="2">  1       -2 0.66408983E-01 0.19555145E+04</pdfrwt>
<totfact> 0.98469931E+00</totfact>
</mgrwt>
</event>
<event>
12    1  0.1496989E-007  0.1851854E+04  0.7818608E-02  0.8679200E-01
          2   -1    0    0  501    0  0.00000000000E+00  0.00000000000E+00  0.20930552414E+04  0.20930552414E+04  0.00000000000E+00 0.  1.
         -2   -1    0    0    0  501 -0.00000000000E+00 -0.00000000000E+00 -0.40961204273E+03  0.40961204273E+03  0.00000000000E+00 0. -1.
         23    2    1    2    0    0 -0.21931208764E+03 -0.53058753646E+03  0.96503388414E+02  0.58937154143E+03  0.91787712888E+02 0.  0.
        254    2    1    2    0    0  0.21931208764E+03  0.53058753646E+03  0.15869398103E+04  0.19132957427E+04  0.90149970164E+03 0.  0.
        -24    2    4    4    0    0  0.24410324874E+03 -0.17933997275E+03  0.74920450278E+03  0.81193862736E+03  0.78662098574E+02 0.  0.
         24    2    4    4    0    0 -0.24791161096E+02  0.70992750921E+03  0.83773530752E+03  0.11013571154E+04  0.81088717659E+02 0.  0.
         11    1    3    3    0    0 -0.16081430966E+03 -0.44837457097E+03  0.10610286974E+03  0.48801518117E+03  0.00000000000E+00 0. -1.
        -11    1    3    3    0    0 -0.58497777982E+02 -0.82212965492E+02 -0.95994813232E+01  0.10135636026E+03  0.00000000000E+00 0.  1.
          2    1    6    6  502    0 -0.38066729798E+01  0.62947084170E+03  0.70915546317E+03  0.94823494043E+03  0.00000000000E+00 0. -1.
          1    1    5    5  503    0  0.23404395775E+03 -0.15640731066E+03  0.62843655969E+03  0.68860172128E+03  0.00000000000E+00 0. -1.
         -2    1    5    5    0  503  0.10059290984E+02 -0.22932662086E+02  0.12076794309E+03  0.12333690609E+03  0.00000000000E+00 0.  1.
         -1    1    6    6    0  502 -0.20984488117E+02  0.80456667513E+02  0.12857984435E+03  0.15312217495E+03  0.00000000000E+00 0.  1.
<mgrwt>
<rscale>  0 0.18518538E+04</rscale>
<asrwt>0</asrwt>
<pdfrwt beam="1">  1        2 0.32200849E+00 0.18518538E+04</pdfrwt>
<pdfrwt beam="2">  1       -2 0.63017239E-01 0.18518538E+04</pdfrwt>
<totfact> 0.13005529E+01</totfact>
</mgrwt>
</event>
<event>
12    1  0.1496989E-007  0.1763269E+04  0.7818608E-02  0.8726080E-01
         -3   -1    0    0    0  501 -0.00000000000E+00  0.00000000000E+00  0.17097689549E+04  0.17097689549E+04  0.00000000000E+00 0.  1.
          3   -1    0    0  501    0  0.00000000000E+00 -0.00000000000E+00 -0.45461055197E+03  0.45461055197E+03  0.00000000000E+00 0. -1.
         23    2    1    2    0    0  0.22945921410E+03 -0.36873633753E+03  0.96254253742E+03  0.10597785375E+04  0.89578986128E+02 0.  0.
        254    2    1    2    0    0 -0.22945921410E+03  0.36873633753E+03  0.29261586550E+03  0.11046009693E+04  0.97257454167E+03 0.  0.
        -24    2    4    4    0    0 -0.60620327546E+02  0.68096043550E+03  0.27294342349E+03  0.74033712403E+03  0.78860674384E+02 0.  0.
         24    2    4    4    0    0 -0.16883888655E+03 -0.31222409797E+03  0.19672442016E+02  0.36426384528E+03  0.79439832811E+02 0.  0.
         13    1    3    3    0    0  0.16079234584E+03 -0.22286281554E+03  0.50927951185E+03  0.57869476775E+03  0.00000000000E+00 0. -1.
        -13    1    3    3    0    0  0.68666868255E+02 -0.14587352199E+03  0.45326302557E+03  0.48108376979E+03  0.00000000000E+00 0.  1.
          4    1    6    6  502    0 -0.95281333649E+02 -0.17843580728E+03  0.50537196167E+02  0.20849910805E+03  0.00000000000E+00 0. -1.
          1    1    5    5  503    0 -0.67857923055E+02  0.66245526898E+03  0.27477245748E+03  0.72038294296E+03  0.00000000000E+00 0. -1.
         -2    1    5    5    0  503  0.72375955090E+01  0.18505166520E+02 -0.18290339970E+01  0.19954181067E+02  0.00000000000E+00 0.  1.
         -3    1    6    6    0  502 -0.73557552901E+02 -0.13378829069E+03 -0.30864754151E+02  0.15576473723E+03  0.00000000000E+00 0.  1.
<mgrwt>
<rscale>  0 0.17632686E+04</rscale>
<asrwt>0</asrwt>
<pdfrwt beam="1">  1        3 0.69940086E-01 0.17632686E+04</pdfrwt>
<pdfrwt beam="2">  1       -3 0.26304138E+00 0.17632686E+04</pdfrwt>
<totfact> 0.29825193E-01</totfact>
</mgrwt>
</event>
<event>
12    1  0.1496989E-007  0.2122822E+04  0.7818608E-02  0.8551256E-01
         -2   -1    0    0    0  501 -0.00000000000E+00  0.00000000000E+00  0.42544649190E+03  0.42544649190E+03  0.00000000000E+00 0. -1.
          2   -1    0    0  501    0  0.00000000000E+00 -0.00000000000E+00 -0.26480262646E+04  0.26480262646E+04  0.00000000000E+00 0.  1.
         23    2    1    2    0    0 -0.39755191759E+03 -0.25668911601E+03 -0.19419151646E+04  0.20008627322E+04  0.92088744602E+02 0.  0.
        254    2    1    2    0    0  0.39755191759E+03  0.25668911601E+03 -0.28066460804E+03  0.10726100243E+04  0.92075122187E+03 0.  0.
        -24    2    4    4    0    0  0.53643651561E+03  0.50006437385E+03 -0.25376567024E+03  0.78021912337E+03  0.80723923397E+02 0.  0.
         24    2    4    4    0    0 -0.13888459802E+03 -0.24337525784E+03 -0.26898937804E+02  0.29239090093E+03  0.79047064422E+02 0.  0.
         11    1    3    3    0    0 -0.27823593096E+03 -0.22702706984E+03 -0.14582921818E+04  0.15018563884E+04  0.00000000000E+00 0.  1.
        -11    1    3    3    0    0 -0.11931598663E+03 -0.29662046171E+02 -0.48362298283E+03  0.49900634381E+03  0.00000000000E+00 0. -1.
          4    1    6    6  502    0 -0.47117144701E+02 -0.62038530579E+02  0.26451121823E+02  0.82270690084E+02  0.00000000000E+00 0. -1.
          3    1    5    5  503    0  0.35564969022E+02  0.97586149870E+01 -0.13563930090E+02  0.39294755216E+02  0.00000000000E+00 0. -1.
         -4    1    5    5    0  503  0.50087154659E+03  0.49030575887E+03 -0.24020174015E+03  0.74092436816E+03  0.00000000000E+00 0.  1.
         -3    1    6    6    0  502 -0.91767453322E+02 -0.18133672727E+03 -0.53350059626E+02  0.21012021085E+03  0.00000000000E+00 0.  1.
<mgrwt>
<rscale>  0 0.21228222E+04</rscale>
<asrwt>0</asrwt>
<pdfrwt beam="1">  1        2 0.40738864E+00 0.21228222E+04</pdfrwt>
<pdfrwt beam="2">  1       -2 0.65453309E-01 0.21228222E+04</pdfrwt>
<totfact> 0.56434965E+00</totfact>
</mgrwt>
</event>
<event>
12    1  0.1496989E-007  0.2627216E+04  0.7818608E-02  0.8359015E-01
         -2   -1    0    0    0  501 -0.00000000000E+00  0.00000000000E+00  0.15144907205E+04  0.15144907205E+04  0.00000000000E+00 0.  1.
          2   -1    0    0  501    0  0.00000000000E+00 -0.00000000000E+00 -0.11393706457E+04  0.11393706457E+04  0.00000000000E+00 0. -1.
         23    2    1    2    0    0 -0.79718704283E+03  0.83741354400E+03  0.16194275808E+03  0.11694727577E+04  0.68355315821E+02 0.  0.
        254    2    1    2    0    0  0.79718704283E+03 -0.83741354400E+03  0.21317731677E+03  0.14843886085E+04  0.90619884555E+03 0.  0.
        -24    2    4    4    0    0  0.98836995472E+03 -0.75415134710E+03  0.17183537464E+03  0.12575516649E+04  0.79305562338E+02 0.  0.
         24    2    4    4    0    0 -0.19118291188E+03 -0.83262196908E+02  0.41341942123E+02  0.22683694358E+03  0.79134970551E+02 0.  0.
         13    1    3    3    0    0 -0.40069759424E+03  0.43952008017E+03  0.11525044162E+03  0.60582103562E+03  0.00000000000E+00 0. -1.
        -13    1    3    3    0    0 -0.39648944859E+03  0.39789346383E+03  0.46692316455E+02  0.56365172210E+03  0.00000000000E+00 0.  1.
          2    1    6    6  502    0 -0.17273263635E+03 -0.98727470885E+02  0.37422781069E+02  0.20244540427E+03  0.00000000000E+00 0. -1.
          1    1    5    5  503    0  0.93319076909E+03 -0.69036428876E+03  0.17009224860E+03  0.11731919007E+04  0.00000000000E+00 0. -1.
         -2    1    5    5    0  503  0.55179185623E+02 -0.63787058332E+02  0.17431260422E+01  0.84359764255E+02  0.00000000000E+00 0.  1.
         -1    1    6    6    0  502 -0.18450275530E+02  0.15465273977E+02  0.39191610541E+01  0.24391539306E+02  0.00000000000E+00 0.  1.
<mgrwt>
<rscale>  0 0.26272162E+04</rscale>
<asrwt>0</asrwt>
<pdfrwt beam="1">  1        2 0.17528779E+00 0.26272162E+04</pdfrwt>
<pdfrwt beam="2">  1       -2 0.23299857E+00 0.26272162E+04</pdfrwt>
<totfact> 0.14892002E+00</totfact>
</mgrwt>
</event>
<event>
12    1  0.1496989E-007  0.1476798E+04  0.7818608E-02  0.8900031E-01
         -1   -1    0    0    0  501 -0.00000000000E+00  0.00000000000E+00  0.22962629135E+03  0.22962629135E+03  0.00000000000E+00 0.  1.
          1   -1    0    0  501    0  0.00000000000E+00 -0.00000000000E+00 -0.23744354273E+04  0.23744354273E+04  0.00000000000E+00 0. -1.
         23    2    1    2    0    0  0.20884009142E+02  0.40363502913E+03 -0.10606583585E+04  0.11387197128E+04  0.91263641687E+02 0.  0.
        254    2    1    2    0    0 -0.20884009142E+02 -0.40363502913E+03 -0.10841507774E+04  0.14653420058E+04  0.89915899997E+03 0.  0.
        -24    2    4    4    0    0 -0.41980035221E+03 -0.63964234489E+02 -0.64938998661E+03  0.77981989454E+03  0.78025343353E+02 0.  0.
         24    2    4    4    0    0  0.39891634307E+03 -0.33967079465E+03 -0.43476079084E+03  0.68552211129E+03  0.80081972488E+02 0.  0.
         13    1    3    3    0    0  0.21114748942E+02  0.37304217049E+03 -0.10288099606E+04  0.10945575493E+04  0.00000000000E+00 0. -1.
        -13    1    3    3    0    0 -0.23073980024E+00  0.30592858646E+02 -0.31848397884E+02  0.44162163543E+02  0.00000000000E+00 0.  1.
          2    1    6    6  502    0  0.38599262928E+03 -0.30938387194E+03 -0.38985997143E+03  0.62984084291E+03  0.00000000000E+00 0. -1.
          3    1    5    5  503    0 -0.40642612911E+03 -0.66513163060E+02 -0.64545274672E+03  0.76564707766E+03  0.00000000000E+00 0. -1.
         -4    1    5    5    0  503 -0.13374223101E+02  0.25489285709E+01 -0.39372398910E+01  0.14172816882E+02  0.00000000000E+00 0.  1.
         -1    1    6    6    0  502  0.12923713791E+02 -0.30286922703E+02 -0.44900819411E+02  0.55681268383E+02  0.00000000000E+00 0.  1.
<mgrwt>
<rscale>  0 0.14767976E+04</rscale>
<asrwt>0</asrwt>
<pdfrwt beam="1">  1        1 0.36529776E+00 0.14767976E+04</pdfrwt>
<pdfrwt beam="2">  1       -1 0.35327121E-01 0.14767976E+04</pdfrwt>
<totfact> 0.12262387E+01</totfact>
</mgrwt>
</event>
<event>
12    1  0.1496989E-007  0.1704745E+04  0.7818608E-02  0.8758663E-01
          1   -1    0    0  501    0  0.00000000000E+00  0.00000000000E+00  0.23165984095E+04  0.23165984095E+04  0.00000000000E+00 0. -1.
         -1   -1    0    0    0  501 -0.00000000000E+00 -0.00000000000E+00 -0.31362324485E+03  0.31362324485E+03  0.00000000000E+00 0.  1.
         23    2    1    2    0    0 -0.50807851198E+03 -0.30596455537E+03  0.49620193414E+03  0.77917285072E+03  0.95581841242E+02 0.  0.
        254    2    1    2    0    0  0.50807851198E+03  0.30596455537E+03  0.15067732305E+04  0.18510488036E+04  0.89680433860E+03 0.  0.
        -24    2    4    4    0    0 -0.49541234177E+02  0.25359561458E+03  0.11507931501E+04  0.11821641959E+04  0.80138891850E+02 0.  0.
         24    2    4    4    0    0  0.55761974615E+03  0.52368940784E+02  0.35598008034E+03  0.66888460772E+03  0.83681022835E+02 0.  0.
         11    1    3    3    0    0 -0.30970805823E+02  0.11051909760E+01  0.43021238344E+02  0.53021120405E+02  0.00000000000E+00 0. -1.
        -11    1    3    3    0    0 -0.47710770616E+03 -0.30706974634E+03  0.45318069579E+03  0.72615173031E+03  0.00000000000E+00 0.  1.
          4    1    6    6  502    0  0.29253331668E+03  0.69414768086E+02  0.18932505867E+03  0.35530005522E+03  0.00000000000E+00 0. -1.
          1    1    5    5  503    0  0.27346913239E+01  0.15939800428E+03  0.59254926315E+03  0.61362026658E+03  0.00000000000E+00 0. -1.
         -2    1    5    5    0  503 -0.52275925501E+02  0.94197610308E+02  0.55824388699E+03  0.56854392930E+03  0.00000000000E+00 0.  1.
         -3    1    6    6    0  502  0.26508642947E+03 -0.17045827302E+02  0.16665502167E+03  0.31358455250E+03  0.00000000000E+00 0.  1.
<mgrwt>
<rscale>  0 0.17047453E+04</rscale>
<asrwt>0</asrwt>
<pdfrwt beam="1">  1        1 0.35639974E+00 0.17047453E+04</pdfrwt>
<pdfrwt beam="2">  1       -1 0.48249731E-01 0.17047453E+04</pdfrwt>
<totfact> 0.74142077E+00</totfact>
</mgrwt>
</event>
<event>
12    1  0.1496989E-007  0.2906714E+04  0.7818608E-02  0.8270883E-01
          1   -1    0    0  501    0  0.00000000000E+00  0.00000000000E+00  0.21491599985E+04  0.21491599985E+04  0.00000000000E+00 0. -1.
         -1   -1    0    0    0  501 -0.00000000000E+00 -0.00000000000E+00 -0.98282413794E+03  0.98282413794E+03  0.00000000000E+00 0.  1.
         23    2    1    2    0    0  0.60561673197E+03 -0.73079311294E+03 -0.46794586176E+03  0.10620336944E+04  0.90066855521E+02 0.  0.
        254    2    1    2    0    0 -0.60561673197E+03  0.73079311294E+03  0.16342817223E+04  0.20699504421E+04  0.84438609934E+03 0.  0.
        -24    2    4    4    0    0 -0.44526217295E+03  0.75528724290E+03  0.16678583466E+04  0.18859884075E+04  0.80520723421E+02 0.  0.
         24    2    4    4    0    0 -0.16035455902E+03 -0.24494129951E+02 -0.33576624267E+02  0.18396203460E+03  0.80006833933E+02 0.  0.
         13    1    3    3    0    0  0.14990415885E+03 -0.13014159201E+03 -0.78941510466E+02  0.21363485878E+03  0.00000000000E+00 0. -1.
        -13    1    3    3    0    0  0.45571257313E+03 -0.60065152093E+03 -0.38900435129E+03  0.84839883559E+03  0.00000000000E+00 0.  1.
          2    1    6    6  502    0  0.54609843033E+01  0.64384565593E+01 -0.10871534915E+02  0.13764677397E+02  0.00000000000E+00 0. -1.
          3    1    5    5  503    0 -0.36980669263E+03  0.56697474958E+03  0.13135843485E+04  0.14777419251E+04  0.00000000000E+00 0. -1.
         -4    1    5    5    0  503 -0.75455480325E+02  0.18831249332E+03  0.35427399810E+03  0.40824648239E+03  0.00000000000E+00 0.  1.
         -1    1    6    6    0  502 -0.16581554333E+03 -0.30932586511E+02 -0.22705089352E+02  0.17019735721E+03  0.00000000000E+00 0.  1.
<mgrwt>
<rscale>  0 0.29067138E+04</rscale>
<asrwt>0</asrwt>
<pdfrwt beam="1">  1        1 0.33064000E+00 0.29067138E+04</pdfrwt>
<pdfrwt beam="2">  1       -1 0.15120371E+00 0.29067138E+04</pdfrwt>
<totfact> 0.69101584E-01</totfact>
</mgrwt>
</event>
<event>
12    1  0.1496989E-007  0.2997303E+04  0.7818608E-02  0.8244502E-01
         -2   -1    0    0    0  501 -0.00000000000E+00  0.00000000000E+00  0.78357987713E+03  0.78357987713E+03  0.00000000000E+00 0. -1.
          2   -1    0    0  501    0  0.00000000000E+00 -0.00000000000E+00 -0.28662755818E+04  0.28662755818E+04  0.00000000000E+00 0.  1.
         23    2    1    2    0    0  0.33273252998E+03 -0.12885411682E+04 -0.58927519385E+03  0.14583109367E+04  0.91521885489E+02 0.  0.
        254    2    1    2    0    0 -0.33273252998E+03  0.12885411682E+04 -0.14934205108E+04  0.21915445222E+04  0.89527274733E+03 0.  0.
        -24    2    4    4    0    0 -0.38373923153E+03  0.80108990176E+03 -0.37446338452E+03  0.96732888888E+03  0.80632030808E+02 0.  0.
         24    2    4    4    0    0  0.51006701551E+02  0.48745126640E+03 -0.11189571262E+04  0.12242156333E+04  0.80177588422E+02 0.  0.
         11    1    3    3    0    0  0.52982867383E+01 -0.91985356601E+02 -0.25067720981E+02  0.95487005957E+02  0.00000000000E+00 0.  1.
        -11    1    3    3    0    0  0.32743424324E+03 -0.11965558116E+04 -0.56420747287E+03  0.13628239308E+04  0.00000000000E+00 0. -1.
          4    1    6    6  502    0  0.56153598454E+02  0.20608298924E+03 -0.53219862753E+03  0.57346212100E+03  0.00000000000E+00 0. -1.
          1    1    5    5  503    0 -0.17918965221E+03  0.41421812759E+03 -0.15063020957E+03  0.47578886990E+03  0.00000000000E+00 0. -1.
         -4    1    5    5    0  503 -0.20454957933E+03  0.38687177417E+03 -0.22383317495E+03  0.49154001898E+03  0.00000000000E+00 0.  1.
         -3    1    6    6    0  502 -0.51468969035E+01  0.28136827716E+03 -0.58675849871E+03  0.65075351229E+03  0.00000000000E+00 0.  1.
<mgrwt>
<rscale>  0 0.29973027E+04</rscale>
<asrwt>0</asrwt>
<pdfrwt beam="1">  1        2 0.44096548E+00 0.29973027E+04</pdfrwt>
<pdfrwt beam="2">  1       -2 0.12055075E+00 0.29973027E+04</pdfrwt>
<totfact> 0.94670620E-01</totfact>
</mgrwt>
</event>
<event>
12    1  0.1496989E-007  0.3179514E+04  0.7818608E-02  0.8194248E-01
         -2   -1    0    0    0  501 -0.00000000000E+00  0.00000000000E+00  0.23691501444E+04  0.23691501444E+04  0.00000000000E+00 0.  1.
          2   -1    0    0  501    0  0.00000000000E+00 -0.00000000000E+00 -0.10667655004E+04  0.10667655004E+04  0.00000000000E+00 0. -1.
         23    2    1    2    0    0 -0.10275168514E+03  0.28321530164E+03  0.21446791771E+04  0.21676758406E+04  0.91656759331E+02 0.  0.
        254    2    1    2    0    0  0.10275168514E+03 -0.28321530164E+03 -0.84229453313E+03  0.12682398042E+04  0.89900128169E+03 0.  0.
        -24    2    4    4    0    0  0.47615754115E+03 -0.17937696732E+03 -0.64763859837E+03  0.82739071295E+03  0.78978081609E+02 0.  0.
         24    2    4    4    0    0 -0.37340585601E+03 -0.10383833432E+03 -0.19465593476E+03  0.44084909124E+03  0.79010476081E+02 0.  0.
         13    1    3    3    0    0 -0.58714011415E+02  0.21915065332E+03  0.13215365686E+04  0.13408703315E+04  0.00000000000E+00 0.  1.
        -13    1    3    3    0    0 -0.44037673727E+02  0.64064648323E+02  0.82314260852E+03  0.82680550907E+03  0.00000000000E+00 0. -1.
          2    1    6    6  502    0 -0.30669355416E+03 -0.10238644186E+03 -0.13175159217E+03  0.34914524439E+03  0.00000000000E+00 0. -1.
          3    1    5    5  503    0  0.34960549861E+03 -0.10874492815E+03 -0.50754500226E+03  0.62582057603E+03  0.00000000000E+00 0. -1.
         -4    1    5    5    0  503  0.12655204253E+03 -0.70632039169E+02 -0.14009359611E+03  0.20157013692E+03  0.00000000000E+00 0.  1.
         -1    1    6    6    0  502 -0.66712301847E+02 -0.14518924622E+01 -0.62904342596E+02  0.91703846848E+02  0.00000000000E+00 0.  1.
<mgrwt>
<rscale>  0 0.31795142E+04</rscale>
<asrwt>0</asrwt>
<pdfrwt beam="1">  1        2 0.16411777E+00 0.31795142E+04</pdfrwt>
<pdfrwt beam="2">  1       -2 0.36448464E+00 0.31795142E+04</pdfrwt>
<totfact> 0.24254026E-01</totfact>
</mgrwt>
</event>
<event>
12    1  0.1496989E-007  0.1271867E+04  0.7818608E-02  0.9052177E-01
         -1   -1    0    0    0  501 -0.00000000000E+00  0.00000000000E+00  0.20703619872E+04  0.20703619872E+04  0.00000000000E+00 0.  1.
          1   -1    0    0  501    0  0.00000000000E+00 -0.00000000000E+00 -0.19533375826E+03  0.19533375826E+03  0.00000000000E+00 0. -1.
         23    2    1    2    0    0  0.71675869821E+02 -0.18112540274E+03  0.91011722637E+03  0.93523361803E+03  0.91677220347E+02 0.  0.
        254    2    1    2    0    0 -0.71675869821E+02  0.18112540274E+03  0.96491100257E+03  0.13304621274E+04  0.89505999118E+03 0.  0.
        -24    2    4    4    0    0 -0.21697294518E+03  0.35152679841E+03  0.10045136630E+04  0.10891008804E+04  0.80278762367E+02 0.  0.
         24    2    4    4    0    0  0.14529707536E+03 -0.17040139567E+03 -0.39602660426E+02  0.24136124699E+03  0.80864114913E+02 0.  0.
         11    1    3    3    0    0  0.70710583664E+02 -0.10776444514E+03  0.72009998189E+03  0.73154435696E+03  0.00000000000E+00 0.  1.
        -11    1    3    3    0    0  0.96528615701E+00 -0.73360957602E+02  0.19001724448E+03  0.20368926107E+03  0.00000000000E+00 0. -1.
          4    1    6    6  502    0  0.15288483717E+03 -0.15752438021E+03 -0.47291356633E+02  0.22455328145E+03  0.00000000000E+00 0. -1.
          3    1    5    5  503    0 -0.19354959195E+03  0.26284246700E+03  0.83153044298E+03  0.89330313142E+03  0.00000000000E+00 0. -1.
         -4    1    5    5    0  503 -0.23423353237E+02  0.88684331407E+02  0.17298322002E+03  0.19579774902E+03  0.00000000000E+00 0.  1.
         -3    1    6    6    0  502 -0.75877618045E+01 -0.12877015455E+02  0.76886962072E+01  0.16807965540E+02  0.00000000000E+00 0.  1.
<mgrwt>
<rscale>  0 0.12718673E+04</rscale>
<asrwt>0</asrwt>
<pdfrwt beam="1">  1        1 0.30051349E-01 0.12718673E+04</pdfrwt>
<pdfrwt beam="2">  1       -1 0.31851721E+00 0.12718673E+04</pdfrwt>
<totfact> 0.38061775E+00</totfact>
</mgrwt>
</event>
<event>
12    1  0.1496989E-007  0.1120294E+04  0.7818608E-02  0.9185635E-01
          2   -1    0    0  501    0  0.00000000000E+00  0.00000000000E+00  0.67553711124E+03  0.67553711124E+03  0.00000000000E+00 0. -1.
         -2   -1    0    0    0  501 -0.00000000000E+00 -0.00000000000E+00 -0.46446704898E+03  0.46446704898E+03  0.00000000000E+00 0.  1.
         23    2    1    2    0    0  0.36210760880E+00  0.14531355502E+03  0.13441537801E+03  0.21804098397E+03  0.91423281789E+02 0.  0.
        254    2    1    2    0    0 -0.36210760880E+00 -0.14531355502E+03  0.76654684258E+02  0.92196317625E+03  0.90720670046E+03 0.  0.
        -24    2    4    4    0    0 -0.21154152051E+03 -0.41371510187E+03 -0.16081736919E+03  0.49840094961E+03  0.81432671102E+02 0.  0.
         24    2    4    4    0    0  0.21117941290E+03  0.26840154685E+03  0.23747205345E+03  0.42356222665E+03  0.79848912886E+02 0.  0.
         11    1    3    3    0    0 -0.41824773023E+02  0.10587830639E+03  0.92540627456E+02  0.14670819722E+03  0.00000000000E+00 0. -1.
        -11    1    3    3    0    0  0.42186880632E+02  0.39435248628E+02  0.41874750551E+02  0.71332786750E+02  0.00000000000E+00 0.  1.
          4    1    6    6  502    0  0.40706654561E+02  0.10961137203E+03  0.93318821250E+02  0.14959975603E+03  0.00000000000E+00 0. -1.
          3    1    5    5  503    0  0.77867874967E+00 -0.11807922622E+02 -0.18753191697E+02  0.22174660675E+02  0.00000000000E+00 0. -1.
         -4    1    5    5    0  503 -0.21232019926E+03 -0.40190717925E+03 -0.14206417749E+03  0.47622628893E+03  0.00000000000E+00 0.  1.
         -3    1    6    6    0  502  0.17047275834E+03  0.15879017482E+03  0.14415323220E+03  0.27396247062E+03  0.00000000000E+00 0.  1.
<mgrwt>
<rscale>  0 0.11202941E+04</rscale>
<asrwt>0</asrwt>
<pdfrwt beam="1">  1        2 0.10392879E+00 0.11202941E+04</pdfrwt>
<pdfrwt beam="2">  1       -2 0.71456469E-01 0.11202941E+04</pdfrwt>
<totfact> 0.75556233E+01</totfact>
</mgrwt>
</event>
<event>
12    1  0.1496989E-007  0.2073092E+04  0.7818608E-02  0.8573190E-01
          1   -1    0    0  501    0  0.00000000000E+00  0.00000000000E+00  0.13266946368E+04  0.13266946368E+04  0.00000000000E+00 0. -1.
         -1   -1    0    0    0  501 -0.00000000000E+00 -0.00000000000E+00 -0.80985335110E+03  0.80985335110E+03  0.00000000000E+00 0.  1.
         23    2    1    2    0    0 -0.36829049393E+03 -0.69988492441E+03 -0.74594790573E+02  0.79917080774E+03  0.87365907717E+02 0.  0.
        254    2    1    2    0    0  0.36829049393E+03  0.69988492441E+03  0.59143607624E+03  0.13373771801E+04  0.90183385073E+03 0.  0.
        -24    2    4    4    0    0  0.59049880799E+03  0.17893141864E+03  0.24093972031E+03  0.66701963532E+03  0.78472608327E+02 0.  0.
         24    2    4    4    0    0 -0.22220831407E+03  0.52095350578E+03  0.35049635593E+03  0.67035754482E+03  0.75910818380E+02 0.  0.
         11    1    3    3    0    0 -0.23325420233E+03 -0.49563188682E+03 -0.83766782125E+02  0.55414381159E+03  0.00000000000E+00 0. -1.
        -11    1    3    3    0    0 -0.13503629160E+03 -0.20425303759E+03  0.91719915521E+01  0.24502699615E+03  0.00000000000E+00 0.  1.
          2    1    6    6  502    0  0.42039032460E+01  0.29804570716E+02  0.25085218404E+02  0.39182310045E+02  0.00000000000E+00 0. -1.
          1    1    5    5  503    0  0.21183034883E+03  0.62666941989E+02  0.46461751575E+02  0.22573864680E+03  0.00000000000E+00 0. -1.
         -2    1    5    5    0  503  0.37866845917E+03  0.11626447665E+03  0.19447796873E+03  0.44128098851E+03  0.00000000000E+00 0.  1.
         -1    1    6    6    0  502 -0.22641221731E+03  0.49114893506E+03  0.32541113753E+03  0.63117523477E+03  0.00000000000E+00 0.  1.
<mgrwt>
<rscale>  0 0.20730925E+04</rscale>
<asrwt>0</asrwt>
<pdfrwt beam="1">  1        1 0.20410687E+00 0.20730925E+04</pdfrwt>
<pdfrwt beam="2">  1       -1 0.12459282E+00 0.20730925E+04</pdfrwt>
<totfact> 0.45028182E+00</totfact>
</mgrwt>
</event>
<event>
12    1  0.1496989E-007  0.1448734E+04  0.7818608E-02  0.8919279E-01
         -1   -1    0    0    0  501 -0.00000000000E+00  0.00000000000E+00  0.75246633173E+03  0.75246633173E+03  0.00000000000E+00 0.  1.
          1   -1    0    0  501    0  0.00000000000E+00 -0.00000000000E+00 -0.69731672527E+03  0.69731672527E+03  0.00000000000E+00 0. -1.
         23    2    1    2    0    0  0.79699274630E+02 -0.30239324282E+03 -0.29216003605E+03  0.43756752401E+03  0.91182255559E+02 0.  0.
        254    2    1    2    0    0 -0.79699274630E+02  0.30239324282E+03  0.34730964250E+03  0.10122155330E+04  0.89786560785E+03 0.  0.
        -24    2    4    4    0    0  0.35371294016E+03  0.24908261552E+03 -0.13704569750E+02  0.44000105890E+03  0.79108300510E+02 0.  0.
         24    2    4    4    0    0 -0.43341221479E+03  0.53310627306E+02  0.36101421225E+03  0.57221447408E+03  0.80062300637E+02 0.  0.
         11    1    3    3    0    0  0.17654668390E+02 -0.83129280906E+02 -0.29783773341E+02  0.90051306566E+02  0.00000000000E+00 0.  1.
        -11    1    3    3    0    0  0.62044606240E+02 -0.21926396192E+03 -0.26237626270E+03  0.34751621745E+03  0.00000000000E+00 0. -1.
          2    1    6    6  502    0 -0.12099611663E+02 -0.12042517153E+02  0.88591168763E+01  0.19232960605E+02  0.00000000000E+00 0. -1.
          1    1    5    5  503    0  0.59563409555E-01  0.54932258794E+01 -0.90063593422E+01  0.10549577573E+02  0.00000000000E+00 0. -1.
         -2    1    5    5    0  503  0.35365337675E+03  0.24358938964E+03 -0.46982104076E+01  0.42945148133E+03  0.00000000000E+00 0.  1.
         -1    1    6    6    0  502 -0.42131260313E+03  0.65353144459E+02  0.35215509538E+03  0.55298151348E+03  0.00000000000E+00 0.  1.
<mgrwt>
<rscale>  0 0.14487337E+04</rscale>
<asrwt>0</asrwt>
<pdfrwt beam="1">  1        1 0.10727950E+00 0.14487337E+04</pdfrwt>
<pdfrwt beam="2">  1       -1 0.11576405E+00 0.14487337E+04</pdfrwt>
<totfact> 0.17988611E+01</totfact>
</mgrwt>
</event>
<event>
12    1  0.1496989E-007  0.2163275E+04  0.7818608E-02  0.8533871E-01
          2   -1    0    0  501    0  0.00000000000E+00  0.00000000000E+00  0.79573447241E+03  0.79573447241E+03  0.00000000000E+00 0. -1.
         -2   -1    0    0    0  501 -0.00000000000E+00 -0.00000000000E+00 -0.14702637553E+04  0.14702637553E+04  0.00000000000E+00 0.  1.
         23    2    1    2    0    0 -0.42974042052E+03  0.30096179258E+03 -0.10325824190E+04  0.11618789369E+04  0.92094421641E+02 0.  0.
        254    2    1    2    0    0  0.42974042052E+03 -0.30096179258E+03  0.35805313608E+03  0.11041192908E+04  0.90311822613E+03 0.  0.
        -24    2    4    4    0    0  0.66822966589E+03 -0.42390005659E+02  0.30298167651E+03  0.73917643714E+03  0.79095574931E+02 0.  0.
         24    2    4    4    0    0 -0.23848924536E+03 -0.25857178692E+03  0.55071459562E+02  0.36494285363E+03  0.80087025229E+02 0.  0.
         11    1    3    3    0    0 -0.43256639234E+03  0.30228510629E+03 -0.10313540268E+04  0.11585253980E+04  0.00000000000E+00 0.  1.
        -11    1    3    3    0    0  0.28259718165E+01 -0.13233137057E+01 -0.12283921599E+01  0.33535389023E+01  0.00000000000E+00 0. -1.
          4    1    6    6  502    0 -0.10527750157E+02  0.47202602307E+00 -0.91449226413E+01  0.13952990434E+02  0.00000000000E+00 0. -1.
          3    1    5    5  503    0  0.14609032108E+03  0.21946468225E+02  0.77205981072E+02  0.16668771069E+03  0.00000000000E+00 0. -1.
         -4    1    5    5    0  503  0.52213934480E+03 -0.64336473884E+02  0.22577569544E+03  0.57248872645E+03  0.00000000000E+00 0.  1.
         -3    1    6    6    0  502 -0.22796149521E+03 -0.25904381295E+03  0.64216382203E+02  0.35098986320E+03  0.00000000000E+00 0.  1.
<mgrwt>
<rscale>  0 0.21632749E+04</rscale>
<asrwt>0</asrwt>
<pdfrwt beam="1">  1        2 0.12242069E+00 0.21632749E+04</pdfrwt>
<pdfrwt beam="2">  1       -2 0.22619442E+00 0.21632749E+04</pdfrwt>
<totfact> 0.28718844E+00</totfact>
</mgrwt>
</event>
<event>
12    1  0.1496989E-007  0.2452035E+04  0.7818608E-02  0.8420275E-01
          2   -1    0    0  501    0  0.00000000000E+00  0.00000000000E+00  0.10563544444E+04  0.10563544444E+04  0.00000000000E+00 0. -1.
         -2   -1    0    0    0  501 -0.00000000000E+00 -0.00000000000E+00 -0.14229304055E+04  0.14229304055E+04  0.00000000000E+00 0.  1.
         23    2    1    2    0    0 -0.61715986405E+03  0.72137475716E+03  0.31506476766E+03  0.10048027931E+04  0.95367746701E+02 0.  0.
        254    2    1    2    0    0  0.61715986405E+03 -0.72137475716E+03 -0.68164072877E+03  0.14744820568E+04  0.89899689360E+03 0.  0.
        -24    2    4    4    0    0  0.54081128170E+03  0.17832296304E+02 -0.18403086327E+03  0.57673957748E+03  0.77242141291E+02 0.  0.
         24    2    4    4    0    0  0.76348582352E+02 -0.73920705346E+03 -0.49760986551E+03  0.89774247934E+03  0.77908966414E+02 0.  0.
         11    1    3    3    0    0 -0.61898424956E+02  0.12293438965E+03  0.51306608005E+02  0.14688991523E+03  0.00000000000E+00 0.  1.
        -11    1    3    3    0    0 -0.55526143910E+03  0.59844036751E+03  0.26375815965E+03  0.85791287786E+03  0.00000000000E+00 0. -1.
          4    1    6    6  502    0 -0.61994468463E+01 -0.17102395389E+03 -0.87824186445E+02  0.19235569570E+03  0.00000000000E+00 0. -1.
          3    1    5    5  503    0  0.22840503518E+03 -0.30553283319E+02 -0.80025271146E+02  0.24393935156E+03  0.00000000000E+00 0. -1.
         -4    1    5    5    0  503  0.31240624652E+03  0.48385579624E+02 -0.10400559212E+03  0.33280022592E+03  0.00000000000E+00 0.  1.
         -3    1    6    6    0  502  0.82548029198E+02 -0.56818309957E+03 -0.40978567906E+03  0.70538678363E+03  0.00000000000E+00 0.  1.
<mgrwt>
<rscale>  0 0.24520350E+04</rscale>
<asrwt>0</asrwt>
<pdfrwt beam="1">  1        2 0.16251607E+00 0.24520350E+04</pdfrwt>
<pdfrwt beam="2">  1       -2 0.21891237E+00 0.24520350E+04</pdfrwt>
<totfact> 0.20851610E+00</totfact>
</mgrwt>
</event>
<event>
12    1  0.1496989E-007  0.1437964E+04  0.7818608E-02  0.8926787E-01
          1   -1    0    0  501    0  0.00000000000E+00  0.00000000000E+00  0.67681141901E+03  0.67681141901E+03  0.00000000000E+00 0. -1.
         -1   -1    0    0    0  501 -0.00000000000E+00 -0.00000000000E+00 -0.76378030335E+03  0.76378030335E+03  0.00000000000E+00 0.  1.
         23    2    1    2    0    0 -0.33395633026E+03  0.25402855689E+03 -0.12486662155E+03  0.44722296991E+03  0.91429609012E+02 0.  0.
        254    2    1    2    0    0  0.33395633026E+03 -0.25402855689E+03  0.37897737206E+02  0.99336875244E+03  0.89960430280E+03 0.  0.
        -24    2    4    4    0    0 -0.14751527662E+03 -0.12094922162E+03 -0.31449491674E+03  0.37679218663E+03  0.81705741545E+02 0.  0.
         24    2    4    4    0    0  0.48147160688E+03 -0.13307933527E+03  0.35239265394E+03  0.61657656582E+03  0.80380726892E+02 0.  0.
         13    1    3    3    0    0 -0.23931665447E+03  0.22605216717E+03 -0.11184246387E+03  0.34767913385E+03  0.00000000000E+00 0.  1.
        -13    1    3    3    0    0 -0.94639675785E+02  0.27976389717E+02 -0.13024157685E+02  0.99543836060E+02  0.00000000000E+00 0. -1.
          2    1    6    6  502    0  0.35544867759E+03 -0.71998560366E+02  0.22195619164E+03  0.42519654997E+03  0.00000000000E+00 0. -1.
          3    1    5    5  503    0 -0.14777451004E+03 -0.12456017372E+03 -0.26941678646E+03  0.33156891821E+03  0.00000000000E+00 0. -1.
         -4    1    5    5    0  503  0.25923342214E+00  0.36109521000E+01 -0.45078130274E+02  0.45223268414E+02  0.00000000000E+00 0.  1.
         -1    1    6    6    0  502  0.12602292929E+03 -0.61080774900E+02  0.13043646230E+03  0.19138001585E+03  0.00000000000E+00 0.  1.
<mgrwt>
<rscale>  0 0.14379642E+04</rscale>
<asrwt>0</asrwt>
<pdfrwt beam="1">  1        1 0.10412483E+00 0.14379642E+04</pdfrwt>
<pdfrwt beam="2">  1       -1 0.11750466E+00 0.14379642E+04</pdfrwt>
<totfact> 0.18169104E+01</totfact>
</mgrwt>
</event>
<event>
12    1  0.1496989E-007  0.1492393E+04  0.7818608E-02  0.8889528E-01
         -2   -1    0    0    0  501 -0.00000000000E+00  0.00000000000E+00  0.39697135262E+03  0.39697135262E+03  0.00000000000E+00 0.  1.
          2   -1    0    0  501    0  0.00000000000E+00 -0.00000000000E+00 -0.14026425682E+04  0.14026425682E+04  0.00000000000E+00 0. -1.
         23    2    1    2    0    0 -0.12045055869E+03  0.29158293117E+03 -0.73621117553E+03  0.80613695887E+03  0.91219288770E+02 0.  0.
        254    2    1    2    0    0  0.12045055869E+03 -0.29158293117E+03 -0.26946004001E+03  0.99347696190E+03  0.90269530730E+03 0.  0.
        -24    2    4    4    0    0  0.30893111398E+03 -0.41454270871E+03 -0.45258450754E+03  0.69170292091E+03  0.79599647013E+02 0.  0.
         24    2    4    4    0    0 -0.18848055529E+03  0.12295977754E+03  0.18312446753E+03  0.30177404099E+03  0.82999846945E+02 0.  0.
         11    1    3    3    0    0 -0.36898163573E+02  0.20384595359E+03 -0.45534317266E+03  0.50025198866E+03  0.00000000000E+00 0. -1.
        -11    1    3    3    0    0 -0.83552395119E+02  0.87736977581E+02 -0.28086800287E+03  0.30588497021E+03  0.00000000000E+00 0.  1.
          2    1    6    6  502    0 -0.11387085450E+03  0.77943926275E+02  0.16066104709E+03  0.21178715542E+03  0.00000000000E+00 0. -1.
          1    1    5    5  503    0  0.28032906579E+03 -0.35216101815E+03 -0.42040148176E+03  0.61590516615E+03  0.00000000000E+00 0. -1.
         -2    1    5    5    0  503  0.28602048188E+02 -0.62381690562E+02 -0.32183025780E+02  0.75797754757E+02  0.00000000000E+00 0.  1.
         -3    1    6    6    0  502 -0.74609700790E+02  0.45015851264E+02  0.22463420436E+02  0.89986885570E+02  0.00000000000E+00 0.  1.
<mgrwt>
<rscale>  0 0.14923926E+04</rscale>
<asrwt>0</asrwt>
<pdfrwt beam="1">  1        2 0.21579117E+00 0.14923926E+04</pdfrwt>
<pdfrwt beam="2">  1       -2 0.61072515E-01 0.14923926E+04</pdfrwt>
<totfact> 0.34770557E+01</totfact>
</mgrwt>
</event>
<event>
12    1  0.1496989E-007  0.1582891E+04  0.7818608E-02  0.8831128E-01
         -1   -1    0    0    0  501 -0.00000000000E+00  0.00000000000E+00  0.83804783471E+03  0.83804783471E+03  0.00000000000E+00 0.  1.
          1   -1    0    0  501    0  0.00000000000E+00 -0.00000000000E+00 -0.74743492705E+03  0.74743492705E+03  0.00000000000E+00 0. -1.
         23    2    1    2    0    0 -0.49701443954E+03  0.25015275649E+03 -0.94708035222E+02  0.57212488422E+03  0.93581603482E+02 0.  0.
        254    2    1    2    0    0  0.49701443954E+03 -0.25015275649E+03  0.18532094289E+03  0.10133578775E+04  0.82640824138E+03 0.  0.
        -24    2    4    4    0    0  0.18035019754E+03  0.29688527390E+03  0.97777391790E+02  0.37020256833E+03  0.82598206036E+02 0.  0.
         24    2    4    4    0    0  0.31666424200E+03 -0.54703803039E+03  0.87543551097E+02  0.64315530922E+03  0.80361866430E+02 0.  0.
         11    1    3    3    0    0 -0.39765809154E+03  0.15870971770E+03 -0.57073544376E+02  0.43194689688E+03  0.00000000000E+00 0.  1.
        -11    1    3    3    0    0 -0.99356348005E+02  0.91443038789E+02 -0.37634490846E+02  0.14017798733E+03  0.00000000000E+00 0. -1.
          4    1    6    6  502    0  0.96641756735E+02 -0.21249015372E+03  0.63999007243E+02  0.24204868828E+03  0.00000000000E+00 0. -1.
          3    1    5    5  503    0  0.14239370605E+03  0.16842728891E+03  0.39216888832E+02  0.22401268612E+03  0.00000000000E+00 0. -1.
         -4    1    5    5    0  503  0.37956491490E+02  0.12845798499E+03  0.58560502958E+02  0.14618988221E+03  0.00000000000E+00 0.  1.
         -3    1    6    6    0  502  0.22002248527E+03 -0.33454787667E+03  0.23544543854E+02  0.40110662093E+03  0.00000000000E+00 0.  1.
<mgrwt>
<rscale>  0 0.15828913E+04</rscale>
<asrwt>0</asrwt>
<pdfrwt beam="1">  1        1 0.11498999E+00 0.15828913E+04</pdfrwt>
<pdfrwt beam="2">  1       -1 0.12893044E+00 0.15828913E+04</pdfrwt>
<totfact> 0.12255180E+01</totfact>
</mgrwt>
</event>
<event>
12    1  0.1496989E-007  0.2149694E+04  0.7818608E-02  0.8539663E-01
          2   -1    0    0  501    0  0.00000000000E+00  0.00000000000E+00  0.45126046229E+04  0.45126046229E+04  0.00000000000E+00 0. -1.
         -2   -1    0    0    0  501 -0.00000000000E+00 -0.00000000000E+00 -0.25601532646E+03  0.25601532646E+03  0.00000000000E+00 0.  1.
         23    2    1    2    0    0  0.64506616124E+03  0.46829883288E+03  0.25518080191E+04  0.26749831874E+04  0.91633714379E+02 0.  0.
        254    2    1    2    0    0 -0.64506616124E+03 -0.46829883288E+03  0.17047812774E+04  0.20936367620E+04  0.91739933399E+03 0.  0.
        -24    2    4    4    0    0  0.10926953297E+03  0.46861113633E+02 -0.16420297468E+02  0.14345750125E+03  0.78578837404E+02 0.  0.
         24    2    4    4    0    0 -0.75433569421E+03 -0.51515994651E+03  0.17212015749E+04  0.19501792607E+04  0.79070712241E+02 0.  0.
         11    1    3    3    0    0  0.47663661216E+03  0.34755923754E+03  0.20146102540E+04  0.20991985040E+04  0.00000000000E+00 0. -1.
        -11    1    3    3    0    0  0.16842954909E+03  0.12073959534E+03  0.53719776504E+03  0.57578468341E+03  0.00000000000E+00 0.  1.
          2    1    6    6  502    0 -0.67234966313E+03 -0.47636865377E+03  0.15875508043E+04  0.17886583575E+04  0.00000000000E+00 0. -1.
          1    1    5    5  503    0  0.97263990900E+02  0.63198532720E+02 -0.29044794167E+02  0.11957398769E+03  0.00000000000E+00 0. -1.
         -2    1    5    5    0  503  0.12005542072E+02 -0.16337419087E+02  0.12624496699E+02  0.23883513556E+02  0.00000000000E+00 0.  1.
         -1    1    6    6    0  502 -0.81986031084E+02 -0.38791292746E+02  0.13365077060E+03  0.16152090319E+03  0.00000000000E+00 0.  1.
<mgrwt>
<rscale>  0 0.21496939E+04</rscale>
<asrwt>0</asrwt>
<pdfrwt beam="1">  1        2 0.69424681E+00 0.21496939E+04</pdfrwt>
<pdfrwt beam="2">  1       -2 0.39386977E-01 0.21496939E+04</pdfrwt>
<totfact> 0.67797569E-01</totfact>
</mgrwt>
</event>
<event>
12    1  0.1496989E-007  0.1835625E+04  0.7818608E-02  0.8687581E-01
         -1   -1    0    0    0  501 -0.00000000000E+00  0.00000000000E+00  0.40364661934E+03  0.40364661934E+03  0.00000000000E+00 0.  1.
          1   -1    0    0  501    0  0.00000000000E+00 -0.00000000000E+00 -0.20869234103E+04  0.20869234103E+04  0.00000000000E+00 0. -1.
         23    2    1    2    0    0 -0.40981266226E+02  0.90477179476E+02  0.28630148342E+03  0.31661254293E+03  0.91702664895E+02 0.  0.
        254    2    1    2    0    0  0.40981266226E+02 -0.90477179476E+02 -0.19695782744E+04  0.21739574867E+04  0.91486993116E+03 0.  0.
        -24    2    4    4    0    0  0.45987745877E+03 -0.14379213279E+03 -0.98294639141E+03  0.10976808235E+04  0.80969916878E+02 0.  0.
         24    2    4    4    0    0 -0.41889619254E+03  0.53314953317E+02 -0.98663188299E+03  0.10762766632E+04  0.81317149696E+02 0.  0.
         13    1    3    3    0    0 -0.35878727863E+02  0.65755973294E+02  0.28100873631E+03  0.29082132147E+03  0.00000000000E+00 0.  1.
        -13    1    3    3    0    0 -0.51025383626E+01  0.24721206182E+02  0.52927471066E+01  0.25791221467E+02  0.00000000000E+00 0. -1.
          4    1    6    6  502    0 -0.13423562017E+03  0.55775890373E+02 -0.33285668398E+03  0.36321305558E+03  0.00000000000E+00 0. -1.
          3    1    5    5  503    0  0.37152226944E+02 -0.36429418352E+02 -0.91512111568E+02  0.10527039970E+03  0.00000000000E+00 0. -1.
         -4    1    5    5    0  503  0.42272523182E+03 -0.10736271444E+03 -0.89143427984E+03  0.99241042384E+03  0.00000000000E+00 0.  1.
         -3    1    6    6    0  502 -0.28466057237E+03 -0.24609370562E+01 -0.65377519901E+03  0.71306360762E+03  0.00000000000E+00 0.  1.
<mgrwt>
<rscale>  0 0.18356248E+04</rscale>
<asrwt>0</asrwt>
<pdfrwt beam="1">  1        1 0.32106514E+00 0.18356248E+04</pdfrwt>
<pdfrwt beam="2">  1       -1 0.62099481E-01 0.18356248E+04</pdfrwt>
<totfact> 0.64371168E+00</totfact>
</mgrwt>
</event>
<event>
12    1  0.1496989E-007  0.1818561E+04  0.7818608E-02  0.8696491E-01
         -2   -1    0    0    0  501 -0.00000000000E+00  0.00000000000E+00  0.36446691940E+03  0.36446691940E+03  0.00000000000E+00 0.  1.
          2   -1    0    0  501    0  0.00000000000E+00 -0.00000000000E+00 -0.22684933337E+04  0.22684933337E+04  0.00000000000E+00 0. -1.
         23    2    1    2    0    0 -0.28460752495E+02  0.21319219695E+03  0.21757906014E+03  0.31953774372E+03  0.92210601215E+02 0.  0.
        254    2    1    2    0    0  0.28460752495E+02 -0.21319219695E+03 -0.21216054745E+04  0.23134225094E+04  0.89691303392E+03 0.  0.
        -24    2    4    4    0    0 -0.19487515202E+03 -0.15410263043E+03 -0.20390267282E+04  0.20555225440E+04  0.76282269581E+02 0.  0.
         24    2    4    4    0    0  0.22333590452E+03 -0.59089566520E+02 -0.82578746240E+02  0.25789996545E+03  0.79515028335E+02 0.  0.
         13    1    3    3    0    0 -0.39938695595E+02  0.14723526952E+03  0.19766736762E+03  0.24969123377E+03  0.00000000000E+00 0.  1.
        -13    1    3    3    0    0  0.11477943099E+02  0.65956927431E+02  0.19911692520E+02  0.69846509956E+02  0.00000000000E+00 0. -1.
          2    1    6    6  502    0  0.98219037714E+02 -0.80127505397E+01  0.18332898306E+01  0.98562388832E+02  0.00000000000E+00 0. -1.
          3    1    5    5  503    0 -0.19762293355E+03 -0.15338186616E+03 -0.20362191361E+04  0.20515285011E+04  0.00000000000E+00 0. -1.
         -4    1    5    5    0  503  0.27477815319E+01 -0.72076427341E+00 -0.28075921491E+01  0.39940428340E+01  0.00000000000E+00 0.  1.
         -1    1    6    6    0  502  0.12511686680E+03 -0.51076815980E+02 -0.84412036071E+02  0.15933757662E+03  0.00000000000E+00 0.  1.
<mgrwt>
<rscale>  0 0.18185607E+04</rscale>
<asrwt>0</asrwt>
<pdfrwt beam="1">  1        2 0.34899897E+00 0.18185607E+04</pdfrwt>
<pdfrwt beam="2">  1       -2 0.56071834E-01 0.18185607E+04</pdfrwt>
<totfact> 0.13303828E+01</totfact>
</mgrwt>
</event>
<event>
12    1  0.1496989E-007  0.1792944E+04  0.7818608E-02  0.8710061E-01
          2   -1    0    0  501    0  0.00000000000E+00  0.00000000000E+00  0.20565195501E+04  0.20565195501E+04  0.00000000000E+00 0. -1.
         -2   -1    0    0    0  501 -0.00000000000E+00 -0.00000000000E+00 -0.39078764698E+03  0.39078764698E+03  0.00000000000E+00 0.  1.
         23    2    1    2    0    0 -0.31640305672E+03 -0.43019423099E+03  0.11731722804E+04  0.12923788295E+04  0.93444469055E+02 0.  0.
        254    2    1    2    0    0  0.31640305672E+03  0.43019423099E+03  0.49255962274E+03  0.11549283676E+04  0.89781210820E+03 0.  0.
        -24    2    4    4    0    0  0.52181370730E+03 -0.28672853949E+02  0.18383704235E+03  0.55983264159E+03  0.80652655133E+02 0.  0.
         24    2    4    4    0    0 -0.20541065058E+03  0.45886708494E+03  0.30872258039E+03  0.59509572599E+03  0.77953540281E+02 0.  0.
         13    1    3    3    0    0 -0.81737023037E+02 -0.15403536733E+03  0.47016736889E+03  0.50146304958E+03  0.00000000000E+00 0. -1.
        -13    1    3    3    0    0 -0.23466603368E+03 -0.27615886366E+03  0.70300491148E+03  0.79091577991E+03  0.00000000000E+00 0.  1.
          4    1    6    6  502    0 -0.19256335965E+02  0.71475561827E+02  0.77004668717E+02  0.10681423790E+03  0.00000000000E+00 0. -1.
          1    1    5    5  503    0  0.15685760494E+03  0.15533014978E+02  0.25985631589E+02  0.15975242042E+03  0.00000000000E+00 0. -1.
         -2    1    5    5    0  503  0.36495610235E+03 -0.44205868927E+02  0.15785141076E+03  0.40008022117E+03  0.00000000000E+00 0.  1.
         -3    1    6    6    0  502 -0.18615431461E+03  0.38739152311E+03  0.23171791167E+03  0.48828148810E+03  0.00000000000E+00 0.  1.
<mgrwt>
<rscale>  0 0.17929444E+04</rscale>
<asrwt>0</asrwt>
<pdfrwt beam="1">  1        2 0.31638762E+00 0.17929444E+04</pdfrwt>
<pdfrwt beam="2">  1       -2 0.60121178E-01 0.17929444E+04</pdfrwt>
<totfact> 0.15138093E+01</totfact>
</mgrwt>
</event>
<event>
12    1  0.1496989E-007  0.1931287E+04  0.7818608E-02  0.8639437E-01
          2   -1    0    0  501    0  0.00000000000E+00  0.00000000000E+00  0.12547694590E+04  0.12547694590E+04  0.00000000000E+00 0. -1.
         -2   -1    0    0    0  501 -0.00000000000E+00 -0.00000000000E+00 -0.74313870458E+03  0.74313870458E+03  0.00000000000E+00 0.  1.
         23    2    1    2    0    0  0.12758817691E+02  0.69828117670E+03 -0.90270527430E+02  0.71011896511E+03  0.91437340953E+02 0.  0.
        254    2    1    2    0    0 -0.12758817691E+02 -0.69828117670E+03  0.60190128190E+03  0.12877891985E+04  0.89908646831E+03 0.  0.
        -24    2    4    4    0    0  0.10520542667E+02 -0.53637992723E+03 -0.10837573034E+03  0.55428049227E+03  0.87564016752E+02 0.  0.
         24    2    4    4    0    0 -0.23279360358E+02 -0.16190124948E+03  0.71027701224E+03  0.73350870625E+03  0.82387164216E+02 0.  0.
         13    1    3    3    0    0  0.53275710210E+01  0.69445096500E+03 -0.83722891874E+02  0.69949985591E+03  0.00000000000E+00 0. -1.
        -13    1    3    3    0    0  0.74312466695E+01  0.38302117055E+01 -0.65476355557E+01  0.10619109197E+02  0.00000000000E+00 0.  1.
          2    1    6    6  502    0 -0.37234772417E+02 -0.23661001022E+02  0.18085605409E+03  0.18615902758E+03  0.00000000000E+00 0. -1.
          3    1    5    5  503    0  0.87630353136E+01 -0.20061945335E+03  0.20563033949E+01  0.20082127436E+03  0.00000000000E+00 0. -1.
         -4    1    5    5    0  503  0.17575073534E+01 -0.33576047387E+03 -0.11043203374E+03  0.35345921791E+03  0.00000000000E+00 0.  1.
         -1    1    6    6    0  502  0.13955412059E+02 -0.13824024846E+03  0.52942095815E+03  0.54734967867E+03  0.00000000000E+00 0.  1.
<mgrwt>
<rscale>  0 0.19312874E+04</rscale>
<asrwt>0</asrwt>
<pdfrwt beam="1">  1        2 0.19304146E+00 0.19312874E+04</pdfrwt>
<pdfrwt beam="2">  1       -2 0.11432903E+00 0.19312874E+04</pdfrwt>
<totfact> 0.98215823E+00</totfact>
</mgrwt>
</event>
<event>
12    1  0.1496989E-007  0.2239768E+04  0.7818608E-02  0.8502056E-01
          1   -1    0    0  501    0  0.00000000000E+00  0.00000000000E+00  0.13255268153E+04  0.13255268153E+04  0.00000000000E+00 0.  1.
         -1   -1    0    0    0  501 -0.00000000000E+00 -0.00000000000E+00 -0.94614477654E+03  0.94614477654E+03  0.00000000000E+00 0. -1.
         23    2    1    2    0    0  0.18464449991E+03  0.94001391129E+03  0.12673606699E+03  0.97058026343E+03  0.90797975349E+02 0.  0.
        254    2    1    2    0    0 -0.18464449991E+03 -0.94001391129E+03  0.25264597180E+03  0.13010913284E+04  0.84337945975E+03 0.  0.
        -24    2    4    4    0    0 -0.10755418879E+03 -0.30410378973E+03 -0.30295667242E+03  0.44951222901E+03  0.78939725181E+02 0.  0.
         24    2    4    4    0    0 -0.77090311121E+02 -0.63591012156E+03  0.55560264422E+03  0.85157909943E+03  0.78537033030E+02 0.  0.
         13    1    3    3    0    0  0.15564141755E+03  0.62234765422E+03  0.56863056102E+02  0.64402970484E+03  0.00000000000E+00 0. -1.
        -13    1    3    3    0    0  0.29003082369E+02  0.31766625707E+03  0.69873010887E+02  0.32655055859E+03  0.00000000000E+00 0.  1.
          2    1    6    6  502    0  0.52357497298E+01 -0.11078987839E+03  0.66903775720E+02  0.12952963149E+03  0.00000000000E+00 0. -1.
          3    1    5    5  503    0 -0.20428889723E+02 -0.19127633306E+02 -0.56142238923E+01  0.28543395052E+02  0.00000000000E+00 0. -1.
         -4    1    5    5    0  503 -0.87125299071E+02 -0.28497615642E+03 -0.29734244853E+03  0.42096883396E+03  0.00000000000E+00 0.  1.
         -1    1    6    6    0  502 -0.82326060851E+02 -0.52512024317E+03  0.48869886850E+03  0.72204946794E+03  0.00000000000E+00 0.  1.
<mgrwt>
<rscale>  0 0.22397681E+04</rscale>
<asrwt>0</asrwt>
<pdfrwt beam="1">  1        1 0.20392720E+00 0.22397681E+04</pdfrwt>
<pdfrwt beam="2">  1       -1 0.14556074E+00 0.22397681E+04</pdfrwt>
<totfact> 0.29806009E+00</totfact>
</mgrwt>
</event>
<event>
12    1  0.1496989E-007  0.1671815E+04  0.7818608E-02  0.8777605E-01
         -2   -1    0    0    0  501 -0.00000000000E+00  0.00000000000E+00  0.85220988792E+03  0.85220988792E+03  0.00000000000E+00 0.  1.
          2   -1    0    0  501    0  0.00000000000E+00 -0.00000000000E+00 -0.81991655475E+03  0.81991655475E+03  0.00000000000E+00 0. -1.
         23    2    1    2    0    0  0.40346402756E+03 -0.30580025153E+02 -0.36696143126E+03  0.55417340806E+03  0.93429731277E+02 0.  0.
        254    2    1    2    0    0 -0.40346402756E+03  0.30580025153E+02  0.39925476443E+03  0.11179530346E+04  0.96265064338E+03 0.  0.
        -24    2    4    4    0    0 -0.41802665549E+03  0.17790863181E+03  0.66179416742E+03  0.80650300243E+03  0.77960290670E+02 0.  0.
         24    2    4    4    0    0  0.14562627925E+02 -0.14732860666E+03 -0.26253940300E+03  0.31145003218E+03  0.78462704177E+02 0.  0.
         11    1    3    3    0    0  0.14525885626E+03 -0.20716723941E+01 -0.19286195339E+03  0.24145426112E+03  0.00000000000E+00 0.  1.
        -11    1    3    3    0    0  0.25820517130E+03 -0.28508352759E+02 -0.17409947787E+03  0.31271914693E+03  0.00000000000E+00 0. -1.
          4    1    6    6  502    0 -0.29442022075E+02 -0.32742295867E+02 -0.83097142964E+02  0.94042680584E+02  0.00000000000E+00 0. -1.
          1    1    5    5  503    0 -0.33289329301E+01 -0.32246608466E+01  0.24200992578E+02  0.24640784764E+02  0.00000000000E+00 0. -1.
         -2    1    5    5    0  503 -0.41469772256E+03  0.18113329266E+03  0.63759317485E+03  0.78186221767E+03  0.00000000000E+00 0.  1.
         -3    1    6    6    0  502  0.44004650000E+02 -0.11458631079E+03 -0.17944226003E+03  0.21740735160E+03  0.00000000000E+00 0.  1.
<mgrwt>
<rscale>  0 0.16718146E+04</rscale>
<asrwt>0</asrwt>
<pdfrwt beam="1">  1        2 0.12614101E+00 0.16718146E+04</pdfrwt>
<pdfrwt beam="2">  1       -2 0.13110921E+00 0.16718146E+04</pdfrwt>
<totfact> 0.13507266E+01</totfact>
</mgrwt>
</event>
<event>
12    1  0.1624016E-007  0.2721179E+04  0.7818608E-02  0.8328166E-01
         -2   -1    0    0    0  501 -0.00000000000E+00  0.00000000000E+00  0.93256559440E+03  0.93256559440E+03  0.00000000000E+00 0.  1.
          2   -1    0    0  501    0  0.00000000000E+00 -0.00000000000E+00 -0.19850660422E+04  0.19850660422E+04  0.00000000000E+00 0. -1.
         23    2    1    2    0    0  0.65208310398E+03  0.42049229235E+03  0.52493003440E+03  0.94138053989E+03  0.92842002657E+02 0.  0.
        254    2    1    2    0    0 -0.65208310398E+03 -0.42049229235E+03 -0.15774304822E+04  0.19762510967E+04  0.90291490665E+03 0.  0.
        -24    2    4    4    0    0 -0.42220047489E+03  0.23466850649E+03 -0.69114966684E+03  0.84758006869E+03  0.85916016713E+02 0.  0.
         24    2    4    4    0    0 -0.22988262909E+03 -0.65516079884E+03 -0.88628081533E+03  0.11286710280E+04  0.79516729776E+02 0.  0.
         11    1    3    3    0    0  0.27387809538E+02  0.37232844630E+02  0.15199591839E+02  0.48655980337E+02  0.00000000000E+00 0. -1.
        -11    1    3    3    0    0  0.62469529444E+03  0.38325944772E+03  0.50973044256E+03  0.89272455956E+03  0.00000000000E+00 0.  1.
          4    1    6    6  502    0  0.22770511708E+01 -0.43624490457E+02 -0.71737526602E+02  0.83991391539E+02  0.00000000000E+00 0. -1.
          3    1    5    5  503    0 -0.77602192592E+02  0.97453594469E+01 -0.13003611810E+03  0.15174473413E+03  0.00000000000E+00 0. -1.
         -4    1    5    5    0  503 -0.34459828230E+03  0.22492314705E+03 -0.56111354874E+03  0.69583533456E+03  0.00000000000E+00 0.  1.
         -3    1    6    6    0  502 -0.23215968026E+03 -0.61153630839E+03 -0.81454328873E+03  0.10446796365E+04  0.00000000000E+00 0.  1.
<mgrwt>
<rscale>  0 0.27211794E+04</rscale>
<asrwt>0</asrwt>
<pdfrwt beam="1">  1        2 0.30539477E+00 0.27211794E+04</pdfrwt>
<pdfrwt beam="2">  1       -2 0.14347163E+00 0.27211794E+04</pdfrwt>
<totfact> 0.20096046E+00</totfact>
</mgrwt>
</event>
<event>
12    1  0.1496989E-007  0.1724706E+04  0.7818608E-02  0.8747398E-01
          2   -1    0    0  501    0  0.00000000000E+00  0.00000000000E+00  0.28667214510E+04  0.28667214510E+04  0.00000000000E+00 0. -1.
         -2   -1    0    0    0  501 -0.00000000000E+00 -0.00000000000E+00 -0.25940881277E+03  0.25940881277E+03  0.00000000000E+00 0.  1.
         23    2    1    2    0    0 -0.39015902948E+03  0.38638159076E+02  0.16777779712E+04  0.17253195457E+04  0.89842298959E+02 0.  0.
        254    2    1    2    0    0  0.39015902948E+03 -0.38638159076E+02  0.92953466709E+03  0.14008107181E+04  0.97186367096E+03 0.  0.
        -24    2    4    4    0    0  0.58563256612E+02 -0.45895240203E+03  0.24910910606E+03  0.53137351709E+03  0.78965217584E+02 0.  0.
         24    2    4    4    0    0  0.33159577287E+03  0.42031424296E+03  0.68042556102E+03  0.86943720098E+03  0.79512784759E+02 0.  0.
         13    1    3    3    0    0 -0.38832993126E+03  0.41691833727E+02  0.16767196585E+04  0.17216059821E+04  0.00000000000E+00 0. -1.
        -13    1    3    3    0    0 -0.18290982183E+01 -0.30536746506E+01  0.10583127371E+01  0.37135636541E+01  0.00000000000E+00 0.  1.
          4    1    6    6  502    0  0.24855214347E+03  0.36052018459E+03  0.57162034756E+03  0.72007138068E+03  0.00000000000E+00 0. -1.
          3    1    5    5  503    0  0.69408768892E+02 -0.27714008337E+03  0.17284671619E+03  0.33391644210E+03  0.00000000000E+00 0. -1.
         -4    1    5    5    0  503 -0.10845512281E+02 -0.18181231867E+03  0.76262389873E+02  0.19745707499E+03  0.00000000000E+00 0.  1.
         -3    1    6    6    0  502  0.83043629394E+02  0.59794058366E+02  0.10880521346E+03  0.14936582030E+03  0.00000000000E+00 0.  1.
<mgrwt>
<rscale>  0 0.17247061E+04</rscale>
<asrwt>0</asrwt>
<pdfrwt beam="1">  1        2 0.44103405E+00 0.17247061E+04</pdfrwt>
<pdfrwt beam="2">  1       -2 0.39909050E-01 0.17247061E+04</pdfrwt>
<totfact> 0.11924177E+01</totfact>
</mgrwt>
</event>
<event>
12    1  0.1496989E-007  0.1489567E+04  0.7818608E-02  0.8891421E-01
         -2   -1    0    0    0  501 -0.00000000000E+00  0.00000000000E+00  0.15478585863E+03  0.15478585863E+03  0.00000000000E+00 0.  1.
          2   -1    0    0  501    0  0.00000000000E+00 -0.00000000000E+00 -0.35836759960E+04  0.35836759960E+04  0.00000000000E+00 0. -1.
         23    2    1    2    0    0 -0.28388001469E+03 -0.32588771194E+03 -0.15393136640E+04  0.16014375034E+04  0.91240656101E+02 0.  0.
        254    2    1    2    0    0  0.28388001469E+03  0.32588771194E+03 -0.18895764733E+04  0.21370243512E+04  0.89976839566E+03 0.  0.
        -24    2    4    4    0    0  0.51904009235E+03  0.29182778686E+03 -0.17499274860E+04  0.18501688925E+04  0.79452186969E+02 0.  0.
         24    2    4    4    0    0 -0.23516007766E+03  0.34059925082E+02 -0.13964898731E+03  0.28685545872E+03  0.79522788675E+02 0.  0.
         11    1    3    3    0    0 -0.15971402281E+03 -0.12917028454E+03 -0.82560628825E+03  0.85077569000E+03  0.00000000000E+00 0.  1.
        -11    1    3    3    0    0 -0.12416599188E+03 -0.19671742740E+03 -0.71370737580E+03  0.75066181337E+03  0.00000000000E+00 0. -1.
          2    1    6    6  502    0 -0.15664757727E+03  0.26427228437E+02 -0.48043612591E+02  0.16596701654E+03  0.00000000000E+00 0. -1.
          1    1    5    5  503    0  0.14881723598E+03  0.57735469949E+02 -0.55452125035E+03  0.57703879532E+03  0.00000000000E+00 0. -1.
         -2    1    5    5    0  503  0.37022285637E+03  0.23409231691E+03 -0.11954062356E+04  0.12731300972E+04  0.00000000000E+00 0.  1.
         -1    1    6    6    0  502 -0.78512500390E+02  0.76326966450E+01 -0.91605374724E+02  0.12088844218E+03  0.00000000000E+00 0.  1.
<mgrwt>
<rscale>  0 0.14895669E+04</rscale>
<asrwt>0</asrwt>
<pdfrwt beam="1">  1        2 0.55133475E+00 0.14895669E+04</pdfrwt>
<pdfrwt beam="2">  1       -2 0.23813210E-01 0.14895669E+04</pdfrwt>
<totfact> 0.10916477E+01</totfact>
</mgrwt>
</event>
<event>
12    1  0.1496989E-007  0.1403417E+04  0.7818608E-02  0.8951349E-01
         -1   -1    0    0    0  501 -0.00000000000E+00  0.00000000000E+00  0.11305306193E+04  0.11305306193E+04  0.00000000000E+00 0.  1.
          1   -1    0    0  501    0  0.00000000000E+00 -0.00000000000E+00 -0.43554337533E+03  0.43554337533E+03  0.00000000000E+00 0. -1.
         23    2    1    2    0    0  0.28360388350E+03  0.18079954309E+03 -0.50604774108E+02  0.35668951118E+03  0.10745662708E+03 0.  0.
        254    2    1    2    0    0 -0.28360388350E+03 -0.18079954309E+03  0.74559201811E+03  0.12093844835E+04  0.89083316839E+03 0.  0.
        -24    2    4    4    0    0 -0.59049096488E+03 -0.12271721825E+03  0.36158774009E+03  0.70777542592E+03  0.80381991085E+02 0.  0.
         24    2    4    4    0    0  0.30688708138E+03 -0.58082324845E+02  0.38400427802E+03  0.50160905757E+03  0.81234991958E+02 0.  0.
         11    1    3    3    0    0  0.11158510631E+03  0.12959124334E+03 -0.31427663970E+01  0.17104094037E+03  0.00000000000E+00 0. -1.
        -11    1    3    3    0    0  0.17201877719E+03  0.51208299754E+02 -0.47462007711E+02  0.18564857081E+03  0.00000000000E+00 0.  1.
          4    1    6    6  502    0  0.17495506538E+03 -0.21194942606E+02  0.15470307903E+03  0.23450275725E+03  0.00000000000E+00 0. -1.
          3    1    5    5  503    0 -0.23267938002E+02 -0.52266851328E+01 -0.18812942693E+01  0.23921840324E+02  0.00000000000E+00 0. -1.
         -4    1    5    5    0  503 -0.56722302688E+03 -0.11749053311E+03  0.36346903436E+03  0.68385358560E+03  0.00000000000E+00 0.  1.
         -3    1    6    6    0  502  0.13193201600E+03 -0.36887382239E+02  0.22930119899E+03  0.26710630032E+03  0.00000000000E+00 0.  1.
<mgrwt>
<rscale>  0 0.14034174E+04</rscale>
<asrwt>0</asrwt>
<pdfrwt beam="1">  1        1 0.67006673E-01 0.14034174E+04</pdfrwt>
<pdfrwt beam="2">  1       -1 0.17392779E+00 0.14034174E+04</pdfrwt>
<totfact> 0.12013107E+01</totfact>
</mgrwt>
</event>
<event>
12    1  0.1496989E-007  0.1366732E+04  0.7818608E-02  0.8978258E-01
         -1   -1    0    0    0  501 -0.00000000000E+00  0.00000000000E+00  0.93486451651E+03  0.93486451651E+03  0.00000000000E+00 0.  1.
          1   -1    0    0  501    0  0.00000000000E+00 -0.00000000000E+00 -0.49952623328E+03  0.49952623328E+03  0.00000000000E+00 0. -1.
         23    2    1    2    0    0 -0.96667129445E+02  0.23165928908E+03  0.41885886447E+03  0.50465467635E+03  0.12736967411E+03 0.  0.
        254    2    1    2    0    0  0.96667129445E+02 -0.23165928908E+03  0.16479418763E+02  0.92973607345E+03  0.89505700092E+03 0.  0.
        -24    2    4    4    0    0 -0.22898597541E+03 -0.19107510893E+03 -0.32631407531E+03  0.44909554463E+03  0.79130640571E+02 0.  0.
         24    2    4    4    0    0  0.32565310486E+03 -0.40584180147E+02  0.34279349407E+03  0.48064052882E+03  0.76229377427E+02 0.  0.
         11    1    3    3    0    0 -0.71086067214E+02  0.29848594813E+02  0.13437418085E+03  0.15492123174E+03  0.00000000000E+00 0. -1.
        -11    1    3    3    0    0 -0.25581062230E+02  0.20181069426E+03  0.28448468362E+03  0.34973344461E+03  0.00000000000E+00 0.  1.
          4    1    6    6  502    0  0.21627050943E+03 -0.62278402808E+02  0.23922458657E+03  0.32845081142E+03  0.00000000000E+00 0. -1.
          3    1    5    5  503    0 -0.22763288144E+03 -0.17592592813E+03 -0.28452490921E+03  0.40462462217E+03  0.00000000000E+00 0. -1.
         -4    1    5    5    0  503 -0.13530939749E+01 -0.15149180800E+02 -0.41789166095E+02  0.44470922468E+02  0.00000000000E+00 0.  1.
         -3    1    6    6    0  502  0.10938259543E+03  0.21694222662E+02  0.10356890750E+03  0.15218971739E+03  0.00000000000E+00 0.  1.
<mgrwt>
<rscale>  0 0.13667324E+04</rscale>
<asrwt>0</asrwt>
<pdfrwt beam="1">  1        1 0.76850190E-01 0.13667324E+04</pdfrwt>
<pdfrwt beam="2">  1       -1 0.14382531E+00 0.13667324E+04</pdfrwt>
<totfact> 0.16940822E+01</totfact>
</mgrwt>
</event>
<event>
12    1  0.1496989E-007  0.1423774E+04  0.7818608E-02  0.8936787E-01
          1   -1    0    0  501    0  0.00000000000E+00  0.00000000000E+00  0.40924065234E+03  0.40924065234E+03  0.00000000000E+00 0. -1.
         -1   -1    0    0    0  501 -0.00000000000E+00 -0.00000000000E+00 -0.12383492604E+04  0.12383492604E+04  0.00000000000E+00 0.  1.
         23    2    1    2    0    0 -0.19545637822E+03  0.28826715301E+01  0.17993801457E+03  0.28076968038E+03  0.90787767612E+02 0.  0.
        254    2    1    2    0    0  0.19545637822E+03 -0.28826715301E+01 -0.10090466226E+04  0.13668202323E+04  0.90100552459E+03 0.  0.
        -24    2    4    4    0    0  0.33230670356E+02  0.43641699485E+03 -0.52564558802E+03  0.68903656436E+03  0.83090504714E+02 0.  0.
         24    2    4    4    0    0  0.16222570787E+03 -0.43929966638E+03 -0.48340103460E+03  0.67778366798E+03  0.80079729972E+02 0.  0.
         13    1    3    3    0    0 -0.49789007172E+02  0.31094761007E+02  0.89413037916E+02  0.10696036998E+03  0.00000000000E+00 0. -1.
        -13    1    3    3    0    0 -0.14566737105E+03 -0.28212089477E+02  0.90524976655E+02  0.17380931040E+03  0.00000000000E+00 0.  1.
          4    1    6    6  502    0  0.13901360481E+03 -0.36444153169E+03 -0.44073333606E+03  0.58854760713E+03  0.00000000000E+00 0. -1.
          1    1    5    5  503    0  0.18803469329E+02  0.41802704335E+03 -0.51438171780E+03  0.66309028875E+03  0.00000000000E+00 0. -1.
         -2    1    5    5    0  503  0.14427201027E+02  0.18389951500E+02 -0.11263870225E+02  0.25946275611E+02  0.00000000000E+00 0.  1.
         -3    1    6    6    0  502  0.23212103058E+02 -0.74858134690E+02 -0.42667698545E+02  0.89236060854E+02  0.00000000000E+00 0.  1.
<mgrwt>
<rscale>  0 0.14237737E+04</rscale>
<asrwt>0</asrwt>
<pdfrwt beam="1">  1        1 0.62960101E-01 0.14237737E+04</pdfrwt>
<pdfrwt beam="2">  1       -1 0.19051527E+00 0.14237737E+04</pdfrwt>
<totfact> 0.99230712E+00</totfact>
</mgrwt>
</event>
<event>
12    1  0.1496989E-007  0.2849693E+04  0.7818608E-02  0.8288005E-01
          1   -1    0    0  501    0  0.00000000000E+00  0.00000000000E+00  0.15122392649E+04  0.15122392649E+04  0.00000000000E+00 0. -1.
         -1   -1    0    0    0  501 -0.00000000000E+00 -0.00000000000E+00 -0.13425041648E+04  0.13425041648E+04  0.00000000000E+00 0.  1.
         23    2    1    2    0    0  0.69484472351E+03 -0.75231635450E+03 -0.69734733757E+03  0.12414114004E+04  0.77587813303E+02 0.  0.
        254    2    1    2    0    0 -0.69484472351E+03  0.75231635450E+03  0.86708243772E+03  0.16133320293E+04  0.89566690011E+03 0.  0.
        -24    2    4    4    0    0 -0.18565967928E+03  0.70362822264E+03  0.18132000137E+03  0.75422733467E+03  0.80123262921E+02 0.  0.
         24    2    4    4    0    0 -0.50918504423E+03  0.48688131862E+02  0.68576243635E+03  0.85910469464E+03  0.78427124051E+02 0.  0.
         11    1    3    3    0    0  0.15824819597E+03 -0.13484442677E+03 -0.11885452683E+03  0.23948258707E+03  0.00000000000E+00 0. -1.
        -11    1    3    3    0    0  0.53659652754E+03 -0.61747192773E+03 -0.57849281074E+03  0.10019288133E+04  0.00000000000E+00 0.  1.
          4    1    6    6  502    0  0.24384131802E+01 -0.16731368431E+01  0.72261945116E+01  0.78078891419E+01  0.00000000000E+00 0. -1.
          1    1    5    5  503    0 -0.14045021383E+03  0.39534111206E+03  0.84767688430E+02  0.42802618898E+03  0.00000000000E+00 0. -1.
         -2    1    5    5    0  503 -0.45209465446E+02  0.30828711058E+03  0.96552312938E+02  0.32620114569E+03  0.00000000000E+00 0.  1.
         -3    1    6    6    0  502 -0.51162345741E+03  0.50361268705E+02  0.67853624184E+03  0.85129680550E+03  0.00000000000E+00 0.  1.
<mgrwt>
<rscale>  0 0.28496930E+04</rscale>
<asrwt>0</asrwt>
<pdfrwt beam="1">  1        1 0.23265220E+00 0.28496930E+04</pdfrwt>
<pdfrwt beam="2">  1       -1 0.20653910E+00 0.28496930E+04</pdfrwt>
<totfact> 0.75061810E-01</totfact>
</mgrwt>
</event>
<event>
12    1  0.1496989E-007  0.2278394E+04  0.7818608E-02  0.8486489E-01
         -2   -1    0    0    0  501 -0.00000000000E+00  0.00000000000E+00  0.88814476342E+03  0.88814476342E+03  0.00000000000E+00 0. -1.
          2   -1    0    0  501    0  0.00000000000E+00 -0.00000000000E+00 -0.14612146166E+04  0.14612146166E+04  0.00000000000E+00 0.  1.
         23    2    1    2    0    0  0.14535209982E+03  0.19476297401E+03  0.71464966923E+03  0.75991510592E+03  0.87675364330E+02 0.  0.
        254    2    1    2    0    0 -0.14535209982E+03 -0.19476297401E+03 -0.12877195225E+04  0.15894442741E+04  0.89947300299E+03 0.  0.
        -24    2    4    4    0    0 -0.22150612721E+03 -0.70716319236E+02  0.41830464216E+02  0.24936294922E+03  0.79789288185E+02 0.  0.
         24    2    4    4    0    0  0.76154027391E+02 -0.12404665478E+03 -0.13295499867E+04  0.13400813249E+04  0.83233297870E+02 0.  0.
         13    1    3    3    0    0  0.24453026562E+02 -0.47680200077E+00  0.11994392997E+03  0.12241210800E+03  0.00000000000E+00 0.  1.
        -13    1    3    3    0    0  0.12089907326E+03  0.19523977601E+03  0.59470573926E+03  0.63750299792E+03  0.00000000000E+00 0. -1.
          4    1    6    6  502    0  0.65270772749E+02 -0.69474638909E+02 -0.52317439901E+03  0.53178797562E+03  0.00000000000E+00 0. -1.
          3    1    5    5  503    0 -0.18504774507E+03 -0.81086911859E+02  0.54743019250E+02  0.20931926187E+03  0.00000000000E+00 0. -1.
         -4    1    5    5    0  503 -0.36458382142E+02  0.10370592622E+02 -0.12912555034E+02  0.40043687358E+02  0.00000000000E+00 0.  1.
         -3    1    6    6    0  502  0.10883254643E+02 -0.54572015867E+02 -0.80637558766E+03  0.80829334930E+03  0.00000000000E+00 0.  1.
<mgrwt>
<rscale>  0 0.22783943E+04</rscale>
<asrwt>0</asrwt>
<pdfrwt beam="1">  1        2 0.22480225E+00 0.22783943E+04</pdfrwt>
<pdfrwt beam="2">  1       -2 0.13663766E+00 0.22783943E+04</pdfrwt>
<totfact> 0.46395986E+00</totfact>
</mgrwt>
</event>
<event>
12    1  0.1496989E-007  0.1610215E+04  0.7818608E-02  0.8814297E-01
          2   -1    0    0  501    0  0.00000000000E+00  0.00000000000E+00  0.94503456959E+03  0.94503456959E+03  0.00000000000E+00 0. -1.
         -2   -1    0    0    0  501 -0.00000000000E+00 -0.00000000000E+00 -0.68589922824E+03  0.68589922824E+03  0.00000000000E+00 0.  1.
         23    2    1    2    0    0  0.51428696166E+03  0.93408062711E+02  0.26765995261E+03  0.59429840851E+03  0.91283092654E+02 0.  0.
        254    2    1    2    0    0 -0.51428696166E+03 -0.93408062711E+02 -0.85246112641E+01  0.10366353893E+04  0.89516708848E+03 0.  0.
        -24    2    4    4    0    0 -0.72489801765E+03  0.39438694790E+02  0.12743030024E+03  0.74127675496E+03  0.78868240682E+02 0.  0.
         24    2    4    4    0    0  0.21061105598E+03 -0.13284675750E+03 -0.13595491150E+03  0.29535863437E+03  0.82144428030E+02 0.  0.
         11    1    3    3    0    0  0.72913708566E+02  0.19049615827E+01  0.73351394280E+02  0.10344305109E+03  0.00000000000E+00 0.  1.
        -11    1    3    3    0    0  0.44137325310E+03  0.91503101128E+02  0.19430855833E+03  0.49085535742E+03  0.00000000000E+00 0. -1.
          2    1    6    6  502    0  0.30364393296E+02 -0.22542753267E+02 -0.59762927082E+02  0.70723260378E+02  0.00000000000E+00 0. -1.
          1    1    5    5  503    0 -0.28413026201E+03  0.51253593701E+02  0.65130708490E+02  0.29597119090E+03  0.00000000000E+00 0. -1.
         -2    1    5    5    0  503 -0.44076775564E+03 -0.11814898910E+02  0.62299591747E+02  0.44530556406E+03  0.00000000000E+00 0.  1.
         -1    1    6    6    0  502  0.18024666269E+03 -0.11030400423E+03 -0.76191984419E+02  0.22463537399E+03  0.00000000000E+00 0.  1.
<mgrwt>
<rscale>  0 0.16102155E+04</rscale>
<asrwt>0</asrwt>
<pdfrwt beam="1">  1        2 0.14538993E+00 0.16102155E+04</pdfrwt>
<pdfrwt beam="2">  1       -2 0.10552296E+00 0.16102155E+04</pdfrwt>
<totfact> 0.19042093E+01</totfact>
</mgrwt>
</event>
<event>
12    1  0.1496989E-007  0.2064458E+04  0.7818608E-02  0.8577063E-01
         -2   -1    0    0    0  501 -0.00000000000E+00  0.00000000000E+00  0.80562904025E+03  0.80562904025E+03  0.00000000000E+00 0.  1.
          2   -1    0    0  501    0  0.00000000000E+00 -0.00000000000E+00 -0.13225650966E+04  0.13225650966E+04  0.00000000000E+00 0. -1.
         23    2    1    2    0    0  0.10262703474E+03 -0.23091748584E+03 -0.99904314852E+03  0.10345494734E+04  0.91379466186E+02 0.  0.
        254    2    1    2    0    0 -0.10262703474E+03  0.23091748584E+03  0.48210709217E+03  0.10936446634E+04  0.94856534196E+03 0.  0.
        -24    2    4    4    0    0 -0.43112931256E+03 -0.53611463828E+02  0.13284943185E+01  0.44033516188E+03  0.71739923962E+02 0.  0.
         24    2    4    4    0    0  0.32850227782E+03  0.28452894967E+03  0.48077859785E+03  0.65330950153E+03  0.82430424656E+02 0.  0.
         11    1    3    3    0    0  0.93077616003E+02 -0.99449370035E+02 -0.54456739028E+03  0.56134415679E+03  0.00000000000E+00 0. -1.
        -11    1    3    3    0    0  0.95494187408E+01 -0.13146811580E+03 -0.45447575824E+03  0.47320531664E+03  0.00000000000E+00 0.  1.
          4    1    6    6  502    0  0.32652166618E+03  0.26827859860E+03  0.44354142287E+03  0.61263267849E+03  0.00000000000E+00 0. -1.
          1    1    5    5  503    0 -0.39421384282E+03 -0.36650314757E+02  0.18231721941E+02  0.39633343932E+03  0.00000000000E+00 0. -1.
         -2    1    5    5    0  503 -0.36915469745E+02 -0.16961149071E+02 -0.16903227622E+02  0.44001722562E+02  0.00000000000E+00 0.  1.
         -3    1    6    6    0  502  0.19806116388E+01  0.16250351068E+02  0.37237174978E+02  0.40676823040E+02  0.00000000000E+00 0.  1.
<mgrwt>
<rscale>  0 0.20644581E+04</rscale>
<asrwt>0</asrwt>
<pdfrwt beam="1">  1        2 0.20347155E+00 0.20644581E+04</pdfrwt>
<pdfrwt beam="2">  1       -2 0.12394293E+00 0.20644581E+04</pdfrwt>
<totfact> 0.72618154E+00</totfact>
</mgrwt>
</event>
<event>
12    1  0.1496989E-007  0.1311552E+04  0.7818608E-02  0.9020454E-01
         -2   -1    0    0    0  501 -0.00000000000E+00  0.00000000000E+00  0.36676842828E+03  0.36676842828E+03  0.00000000000E+00 0.  1.
          2   -1    0    0  501    0  0.00000000000E+00 -0.00000000000E+00 -0.11725174921E+04  0.11725174921E+04  0.00000000000E+00 0. -1.
         23    2    1    2    0    0 -0.74320891871E+02 -0.23788557158E+03  0.71749233603E+02  0.27461638250E+03  0.90294323626E+02 0.  0.
        254    2    1    2    0    0  0.74320891871E+02  0.23788557158E+03 -0.87749829743E+03  0.12646695379E+04  0.87594100140E+03 0.  0.
        -24    2    4    4    0    0  0.26799995157E+03  0.44177242688E+03 -0.26557827484E+03  0.58643685023E+03  0.79934398413E+02 0.  0.
         24    2    4    4    0    0 -0.19367905969E+03 -0.20388685530E+03 -0.61192002259E+03  0.67823268766E+03  0.80448969112E+02 0.  0.
         13    1    3    3    0    0 -0.23734506505E+01 -0.46451139126E+02  0.51053482594E+02  0.69063736353E+02  0.00000000000E+00 0. -1.
        -13    1    3    3    0    0 -0.71947441220E+02 -0.19143443246E+03  0.20695751009E+02  0.20555264615E+03  0.00000000000E+00 0.  1.
          4    1    6    6  502    0 -0.86886359242E+01 -0.21954432960E+02 -0.11769345482E+03  0.12003848894E+03  0.00000000000E+00 0. -1.
          3    1    5    5  503    0  0.87971036950E+01  0.16999740465E+02 -0.30697207925E+02  0.36175942056E+02  0.00000000000E+00 0. -1.
         -4    1    5    5    0  503  0.25920284787E+03  0.42477268642E+03 -0.23488106692E+03  0.55026090818E+03  0.00000000000E+00 0.  1.
         -3    1    6    6    0  502 -0.18499042377E+03 -0.18193242234E+03 -0.49422656777E+03  0.55819419871E+03  0.00000000000E+00 0.  1.
<mgrwt>
<rscale>  0 0.13115524E+04</rscale>
<asrwt>0</asrwt>
<pdfrwt beam="1">  1        2 0.18038731E+00 0.13115524E+04</pdfrwt>
<pdfrwt beam="2">  1       -2 0.56425912E-01 0.13115524E+04</pdfrwt>
<totfact> 0.56788763E+01</totfact>
</mgrwt>
</event>
<event>
12    1  0.1496989E-007  0.1196370E+04  0.7818608E-02  0.9116040E-01
         -2   -1    0    0    0  501 -0.00000000000E+00  0.00000000000E+00  0.14040655336E+03  0.14040655336E+03  0.00000000000E+00 0.  1.
          2   -1    0    0  501    0  0.00000000000E+00 -0.00000000000E+00 -0.25484924576E+04  0.25484924576E+04  0.00000000000E+00 0. -1.
         23    2    1    2    0    0 -0.10781212402E+03  0.20352196155E+03 -0.71245821194E+03  0.75435995848E+03  0.91747481024E+02 0.  0.
        254    2    1    2    0    0  0.10781212402E+03 -0.20352196155E+03 -0.16956276923E+04  0.19345390525E+04  0.90235438257E+03 0.  0.
        -24    2    4    4    0    0  0.20239131181E+03 -0.45484452536E+03 -0.51457363089E+03  0.72039372405E+03  0.79594665051E+02 0.  0.
         24    2    4    4    0    0 -0.94579187783E+02  0.25132256382E+03 -0.11810540614E+04  0.12141453284E+04  0.84569076555E+02 0.  0.
         13    1    3    3    0    0 -0.49021143030E+02  0.15860427203E+03 -0.57205952230E+03  0.59565970539E+03  0.00000000000E+00 0. -1.
        -13    1    3    3    0    0 -0.58790980992E+02  0.44917689514E+02 -0.14039868964E+03  0.15870025309E+03  0.00000000000E+00 0.  1.
          2    1    6    6  502    0 -0.40202069369E+01  0.11367144964E+03 -0.39742593072E+03  0.41338206412E+03  0.00000000000E+00 0. -1.
          1    1    5    5  503    0  0.17531548495E+02 -0.45528008141E+02 -0.89891146136E+02  0.10227694203E+03  0.00000000000E+00 0. -1.
         -2    1    5    5    0  503  0.18485976331E+03 -0.40931651722E+03 -0.42468248475E+03  0.61811678202E+03  0.00000000000E+00 0.  1.
         -1    1    6    6    0  502 -0.90558980846E+02  0.13765111417E+03 -0.78362813068E+03  0.80076326429E+03  0.00000000000E+00 0.  1.
<mgrwt>
<rscale>  0 0.11963696E+04</rscale>
<asrwt>0</asrwt>
<pdfrwt beam="1">  1        2 0.39207578E+00 0.11963696E+04</pdfrwt>
<pdfrwt beam="2">  1       -2 0.21601007E-01 0.11963696E+04</pdfrwt>
<totfact> 0.60488128E+01</totfact>
</mgrwt>
</event>
<event>
12    1  0.1496989E-007  0.1890973E+04  0.7818608E-02  0.8659363E-01
          2   -1    0    0  501    0  0.00000000000E+00  0.00000000000E+00  0.17294777937E+04  0.17294777937E+04  0.00000000000E+00 0.  1.
         -2   -1    0    0    0  501 -0.00000000000E+00 -0.00000000000E+00 -0.51688698606E+03  0.51688698606E+03  0.00000000000E+00 0. -1.
         23    2    1    2    0    0 -0.47487823232E+03  0.49116995051E+03  0.17700264832E+03  0.71083432875E+03  0.84842498792E+02 0.  0.
        254    2    1    2    0    0  0.47487823232E+03 -0.49116995051E+03  0.10355881594E+04  0.15355304510E+04  0.90479482450E+03 0.  0.
        -24    2    4    4    0    0  0.55540433848E+03  0.53590795244E+02  0.40218469057E+03  0.69244813417E+03  0.79912080744E+02 0.  0.
         24    2    4    4    0    0 -0.80526106155E+02 -0.54476074576E+03  0.63340346879E+03  0.84308231687E+03  0.79618558524E+02 0.  0.
         13    1    3    3    0    0 -0.41721435392E+03  0.41247833118E+03  0.12342649410E+03  0.59953339378E+03  0.00000000000E+00 0. -1.
        -13    1    3    3    0    0 -0.57663878403E+02  0.78691619335E+02  0.53576154213E+02  0.11130093498E+03  0.00000000000E+00 0.  1.
          4    1    6    6  502    0 -0.79808419272E+02 -0.30905812347E+03  0.39474067399E+03  0.50764801504E+03  0.00000000000E+00 0. -1.
          1    1    5    5  503    0  0.53805909134E+03  0.52244971424E+02  0.36759652245E+03  0.65373108090E+03  0.00000000000E+00 0. -1.
         -2    1    5    5    0  503  0.17345247132E+02  0.13458238206E+01  0.34588168118E+02  0.38717053266E+02  0.00000000000E+00 0.  1.
         -3    1    6    6    0  502 -0.71768688254E+00 -0.23570262228E+03  0.23866279480E+03  0.33543430183E+03  0.00000000000E+00 0.  1.
<mgrwt>
<rscale>  0 0.18909728E+04</rscale>
<asrwt>0</asrwt>
<pdfrwt beam="1">  1        2 0.26607350E+00 0.18909728E+04</pdfrwt>
<pdfrwt beam="2">  1       -2 0.79521076E-01 0.18909728E+04</pdfrwt>
<totfact> 0.12399886E+01</totfact>
</mgrwt>
</event>
<event>
12    1  0.1835672E-007  0.1340465E+04  0.7818608E-02  0.8998078E-01
         -2   -1    0    0    0  501 -0.00000000000E+00  0.00000000000E+00  0.13978253131E+03  0.13978253131E+03  0.00000000000E+00 0.  1.
          2   -1    0    0  501    0  0.00000000000E+00 -0.00000000000E+00 -0.32136451176E+04  0.32136451176E+04  0.00000000000E+00 0. -1.
         23    2    1    2    0    0  0.73411085527E+02  0.82209483199E+02 -0.17185549474E+04  0.17244741080E+04  0.90731777310E+02 0.  0.
        254    2    1    2    0    0 -0.73411085527E+02 -0.82209483199E+02 -0.13553076389E+04  0.16289535408E+04  0.89692990566E+03 0.  0.
        -24    2    4    4    0    0 -0.61019789246E+02  0.34390430267E+03 -0.23588258587E+03  0.42832435953E+03  0.76338578590E+02 0.  0.
         24    2    4    4    0    0 -0.12391296280E+02 -0.42611378586E+03 -0.11194250530E+04  0.12006291813E+04  0.81679122356E+02 0.  0.
         13    1    3    3    0    0  0.67249778262E+02  0.10084880536E+03 -0.15613498381E+04  0.15660479977E+04  0.00000000000E+00 0. -1.
        -13    1    3    3    0    0  0.61613072649E+01 -0.18639322158E+02 -0.15720510929E+03  0.15842611030E+03  0.00000000000E+00 0.  1.
          4    1    6    6  502    0 -0.61768324244E+01 -0.14985982091E+03 -0.29174484143E+03  0.32804141763E+03  0.00000000000E+00 0. -1.
          1    1    5    5  503    0 -0.16974362620E+02  0.74133969761E+02 -0.92199856105E+02  0.11951898562E+03  0.00000000000E+00 0. -1.
         -2    1    5    5    0  503 -0.44045426627E+02  0.26977033291E+03 -0.14368272976E+03  0.30880537391E+03  0.00000000000E+00 0.  1.
         -3    1    6    6    0  502 -0.62144638557E+01 -0.27625396496E+03 -0.82768021156E+03  0.87258776368E+03  0.00000000000E+00 0.  1.
<mgrwt>
<rscale>  0 0.13404648E+04</rscale>
<asrwt>0</asrwt>
<pdfrwt beam="1">  1        2 0.49440692E+00 0.13404648E+04</pdfrwt>
<pdfrwt beam="2">  1       -2 0.21505006E-01 0.13404648E+04</pdfrwt>
<totfact> 0.23672920E+01</totfact>
</mgrwt>
</event>
<event>
12    1  0.1496989E-007  0.1267834E+04  0.7818608E-02  0.9055469E-01
         -1   -1    0    0    0  501 -0.00000000000E+00  0.00000000000E+00  0.32024083594E+03  0.32024083594E+03  0.00000000000E+00 0.  1.
          1   -1    0    0  501    0  0.00000000000E+00 -0.00000000000E+00 -0.12548399929E+04  0.12548399929E+04  0.00000000000E+00 0. -1.
         23    2    1    2    0    0  0.24092683858E+03 -0.16965409152E+03 -0.28213216614E+03  0.41827936014E+03  0.92362392940E+02 0.  0.
        254    2    1    2    0    0 -0.24092683858E+03  0.16965409152E+03 -0.65246699081E+03  0.11568014687E+04  0.90865186489E+03 0.  0.
        -24    2    4    4    0    0 -0.21458747809E+03 -0.71612073627E+02  0.17114961845E+03  0.29471090562E+03  0.79914023481E+02 0.  0.
         24    2    4    4    0    0 -0.26339360490E+02  0.24126616514E+03 -0.82361660927E+03  0.86209056308E+03  0.77153713754E+02 0.  0.
         11    1    3    3    0    0  0.41189760561E+02 -0.56142500573E+02 -0.11402319729E+03  0.13360339167E+03  0.00000000000E+00 0. -1.
        -11    1    3    3    0    0  0.19973707802E+03 -0.11351159094E+03 -0.16810896885E+03  0.28467596847E+03  0.00000000000E+00 0.  1.
          4    1    6    6  502    0  0.25366145947E+02  0.99035739182E+02 -0.37198315006E+03  0.38577581952E+03  0.00000000000E+00 0. -1.
          1    1    5    5  503    0 -0.19656857542E+02  0.14842830098E+02  0.70022408536E+01  0.25607284720E+02  0.00000000000E+00 0. -1.
         -2    1    5    5    0  503 -0.19493062055E+03 -0.86454903725E+02  0.16414737760E+03  0.26910362090E+03  0.00000000000E+00 0.  1.
         -3    1    6    6    0  502 -0.51705506437E+02  0.14223042596E+03 -0.45163345921E+03  0.47631474357E+03  0.00000000000E+00 0.  1.
<mgrwt>
<rscale>  0 0.12678344E+04</rscale>
<asrwt>0</asrwt>
<pdfrwt beam="1">  1        1 0.19305230E+00 0.12678344E+04</pdfrwt>
<pdfrwt beam="2">  1       -1 0.49267822E-01 0.12678344E+04</pdfrwt>
<totfact> 0.39622720E+01</totfact>
</mgrwt>
</event>
<event>
12    1  0.1496989E-007  0.1827845E+04  0.7818608E-02  0.8691631E-01
          2   -1    0    0  501    0  0.00000000000E+00  0.00000000000E+00  0.21771187113E+04  0.21771187113E+04  0.00000000000E+00 0. -1.
         -2   -1    0    0    0  501 -0.00000000000E+00 -0.00000000000E+00 -0.38365116205E+03  0.38365116205E+03  0.00000000000E+00 0.  1.
         23    2    1    2    0    0  0.33429609102E+02  0.55880963784E+03  0.12101100415E+03  0.57995907587E+03  0.91231115619E+02 0.  0.
        254    2    1    2    0    0 -0.33429609102E+02 -0.55880963784E+03  0.16724565451E+04  0.19808107975E+04  0.90172876744E+03 0.  0.
        -24    2    4    4    0    0 -0.32831922226E+03 -0.18459052794E+03  0.20641203552E+03  0.43720978170E+03  0.81726923921E+02 0.  0.
         24    2    4    4    0    0  0.29488961316E+03 -0.37421910990E+03  0.14660445096E+04  0.15436010158E+04  0.80110958567E+02 0.  0.
         11    1    3    3    0    0  0.52392873834E+02  0.31467631110E+03  0.99414481188E+02  0.33413984058E+03  0.00000000000E+00 0.  1.
        -11    1    3    3    0    0 -0.18963264733E+02  0.24413332674E+03  0.21596522959E+02  0.24581923529E+03  0.00000000000E+00 0. -1.
          2    1    6    6  502    0  0.26266126017E+02 -0.76651830639E+02  0.20778612135E+03  0.22302574906E+03  0.00000000000E+00 0. -1.
          3    1    5    5  503    0 -0.47670044916E+02 -0.44591584875E+01  0.62938790764E+01  0.48290063062E+02  0.00000000000E+00 0. -1.
         -4    1    5    5    0  503 -0.28064917734E+03 -0.18013136945E+03  0.20011815644E+03  0.38891971863E+03  0.00000000000E+00 0.  1.
         -1    1    6    6    0  502  0.26862348714E+03 -0.29756727926E+03  0.12582583882E+04  0.13205752667E+04  0.00000000000E+00 0.  1.
<mgrwt>
<rscale>  0 0.18278448E+04</rscale>
<asrwt>0</asrwt>
<pdfrwt beam="1">  1        2 0.33494133E+00 0.18278448E+04</pdfrwt>
<pdfrwt beam="2">  1       -2 0.59023257E-01 0.18278448E+04</pdfrwt>
<totfact> 0.13437575E+01</totfact>
</mgrwt>
</event>
<event>
12    1  0.1496989E-007  0.1484606E+04  0.7818608E-02  0.8894755E-01
         -2   -1    0    0    0  501 -0.00000000000E+00  0.00000000000E+00  0.64211345624E+03  0.64211345624E+03  0.00000000000E+00 0.  1.
          2   -1    0    0  501    0  0.00000000000E+00 -0.00000000000E+00 -0.85812477695E+03  0.85812477695E+03  0.00000000000E+00 0. -1.
         23    2    1    2    0    0  0.29162895743E+03  0.17122086707E+03 -0.38915115914E+03  0.52385600322E+03  0.92857166211E+02 0.  0.
        254    2    1    2    0    0 -0.29162895743E+03 -0.17122086707E+03  0.17313983843E+03  0.97638222997E+03  0.89943361135E+03 0.  0.
        -24    2    4    4    0    0  0.19832131159E+03  0.15960441973E+02 -0.22638192039E+03  0.31222512090E+03  0.81545532688E+02 0.  0.
         24    2    4    4    0    0 -0.48995026902E+03 -0.18718130905E+03  0.39952175882E+03  0.66415710908E+03  0.79993257188E+02 0.  0.
         11    1    3    3    0    0  0.55607761699E+01  0.66802000233E+01 -0.49595311680E+02  0.50351189108E+02  0.00000000000E+00 0.  1.
        -11    1    3    3    0    0  0.28606818126E+03  0.16454066705E+03 -0.33955584746E+03  0.47350481411E+03  0.00000000000E+00 0. -1.
          2    1    6    6  502    0 -0.49271604783E+03 -0.18688245861E+03  0.39400036457E+03  0.65797450134E+03  0.00000000000E+00 0. -1.
          3    1    5    5  503    0  0.11789773218E+03  0.37976953199E+02 -0.92862713537E+02  0.15480829368E+03  0.00000000000E+00 0. -1.
         -4    1    5    5    0  503  0.80423579407E+02 -0.22016511226E+02 -0.13351920686E+03  0.15741682722E+03  0.00000000000E+00 0.  1.
         -1    1    6    6    0  502  0.27657788096E+01 -0.29885043552E+00  0.55213942512E+01  0.61826077414E+01  0.00000000000E+00 0.  1.
<mgrwt>
<rscale>  0 0.14846056E+04</rscale>
<asrwt>0</asrwt>
<pdfrwt beam="1">  1        2 0.13201920E+00 0.14846056E+04</pdfrwt>
<pdfrwt beam="2">  1       -2 0.98786686E-01 0.14846056E+04</pdfrwt>
<totfact> 0.25769874E+01</totfact>
</mgrwt>
</event>
<event>
12    1  0.1496989E-007  0.1850813E+04  0.7818608E-02  0.8679735E-01
          2   -1    0    0  501    0  0.00000000000E+00  0.00000000000E+00  0.18277939229E+04  0.18277939229E+04  0.00000000000E+00 0. -1.
         -2   -1    0    0    0  501 -0.00000000000E+00 -0.00000000000E+00 -0.46853036144E+03  0.46853036144E+03  0.00000000000E+00 0.  1.
         23    2    1    2    0    0 -0.43930133201E+03  0.53556747430E+03  0.67975002259E+03  0.97327012012E+03  0.73324304687E+02 0.  0.
        254    2    1    2    0    0  0.43930133201E+03 -0.53556747430E+03  0.67951353889E+03  0.13230541643E+04  0.89939729384E+03 0.  0.
        -24    2    4    4    0    0 -0.13957668053E+03  0.52126952550E+02 -0.89065298313E+02  0.19282446896E+03  0.83962965258E+02 0.  0.
         24    2    4    4    0    0  0.57887801254E+03 -0.58769442685E+03  0.76857883721E+03  0.11302296953E+04  0.78874852608E+02 0.  0.
         13    1    3    3    0    0 -0.84725386847E+01 -0.87008705430E+00  0.90714160660E+01  0.12443132752E+02  0.00000000000E+00 0. -1.
        -13    1    3    3    0    0 -0.43082879333E+03  0.53643756136E+03  0.67067860652E+03  0.96082698736E+03  0.00000000000E+00 0.  1.
          4    1    6    6  502    0  0.97328048579E+02 -0.13325318103E+03  0.18175197193E+03  0.24548510871E+03  0.00000000000E+00 0. -1.
          3    1    5    5  503    0  0.46468429694E+01  0.92764186747E+01  0.85781545084E+01  0.13462162820E+02  0.00000000000E+00 0. -1.
         -4    1    5    5    0  503 -0.14422352350E+03  0.42850533875E+02 -0.97643452822E+02  0.17936230614E+03  0.00000000000E+00 0.  1.
         -3    1    6    6    0  502  0.48154996396E+03 -0.45444124582E+03  0.58682686527E+03  0.88474458659E+03  0.00000000000E+00 0.  1.
<mgrwt>
<rscale>  0 0.18508127E+04</rscale>
<asrwt>0</asrwt>
<pdfrwt beam="1">  1        2 0.28119906E+00 0.18508127E+04</pdfrwt>
<pdfrwt beam="2">  1       -2 0.72081595E-01 0.18508127E+04</pdfrwt>
<totfact> 0.13647739E+01</totfact>
</mgrwt>
</event>
<event>
12    1  0.1496989E-007  0.1394512E+04  0.7818608E-02  0.8957801E-01
          2   -1    0    0  501    0  0.00000000000E+00  0.00000000000E+00  0.13926694658E+04  0.13926694658E+04  0.00000000000E+00 0. -1.
         -2   -1    0    0    0  501 -0.00000000000E+00 -0.00000000000E+00 -0.34908906496E+03  0.34908906496E+03  0.00000000000E+00 0.  1.
         23    2    1    2    0    0 -0.24274499466E+03  0.71528929987E+02 -0.81469865626E+02  0.28069388887E+03  0.90056648760E+02 0.  0.
        254    2    1    2    0    0  0.24274499466E+03 -0.71528929987E+02  0.11250502665E+04  0.14610646419E+04  0.89717905986E+03 0.  0.
        -24    2    4    4    0    0 -0.28998859634E+03  0.13300881000E+03  0.59021466364E+03  0.67472593201E+03  0.71533241278E+02 0.  0.
         24    2    4    4    0    0  0.53273359099E+03 -0.20453773999E+03  0.53483560283E+03  0.78633870989E+03  0.81478086363E+02 0.  0.
         13    1    3    3    0    0 -0.13073243138E+03  0.82149658202E+02 -0.31496623632E+02  0.15758036761E+03  0.00000000000E+00 0.  1.
        -13    1    3    3    0    0 -0.11201256328E+03 -0.10620728216E+02 -0.49973241994E+02  0.12311352125E+03  0.00000000000E+00 0. -1.
          2    1    6    6  502    0  0.23081961715E+03 -0.13020698344E+03  0.22989501592E+03  0.35083225699E+03  0.00000000000E+00 0. -1.
          3    1    5    5  503    0 -0.13262011854E+01  0.15069219275E+02  0.26579233930E+02  0.30582607074E+02  0.00000000000E+00 0. -1.
         -4    1    5    5    0  503 -0.28866239515E+03  0.11793959073E+03  0.56363542971E+03  0.64414332494E+03  0.00000000000E+00 0.  1.
         -1    1    6    6    0  502  0.30191397384E+03 -0.74330756550E+02  0.30494058692E+03  0.43550645290E+03  0.00000000000E+00 0.  1.
<mgrwt>
<rscale>  0 0.13945116E+04</rscale>
<asrwt>0</asrwt>
<pdfrwt beam="1">  1        2 0.21425684E+00 0.13945116E+04</pdfrwt>
<pdfrwt beam="2">  1       -2 0.53706011E-01 0.13945116E+04</pdfrwt>
<totfact> 0.46464655E+01</totfact>
</mgrwt>
</event>
<event>
12    1  0.1496989E-007  0.1543401E+04  0.7818608E-02  0.8856094E-01
         -2   -1    0    0    0  501 -0.00000000000E+00  0.00000000000E+00  0.55100584688E+03  0.55100584688E+03  0.00000000000E+00 0.  1.
          2   -1    0    0  501    0  0.00000000000E+00 -0.00000000000E+00 -0.10807895640E+04  0.10807895640E+04  0.00000000000E+00 0. -1.
         23    2    1    2    0    0  0.76022237635E+02 -0.27436674140E+03  0.26138546012E+03  0.39719807490E+03  0.91583090930E+02 0.  0.
        254    2    1    2    0    0 -0.76022237635E+02  0.27436674140E+03 -0.79116917725E+03  0.12345973360E+04  0.90400521324E+03 0.  0.
        -24    2    4    4    0    0  0.39862370043E+03  0.21761162717E+03 -0.37859211650E+03  0.59809661158E+03  0.90176999706E+02 0.  0.
         24    2    4    4    0    0 -0.47464593807E+03  0.56755114229E+02 -0.41257706075E+03  0.63650072441E+03  0.80021444607E+02 0.  0.
         11    1    3    3    0    0  0.89264817097E+02 -0.26140688721E+03  0.25873962736E+03  0.37848112637E+03  0.00000000000E+00 0.  1.
        -11    1    3    3    0    0 -0.13242579462E+02 -0.12959854188E+02  0.26458327598E+01  0.18716948533E+02  0.00000000000E+00 0. -1.
          4    1    6    6  502    0 -0.21964780957E+03  0.50643412513E+01 -0.23369699926E+03  0.32075706580E+03  0.00000000000E+00 0. -1.
          1    1    5    5  503    0  0.38918815739E+03  0.19590653239E+03 -0.33936173025E+03  0.55227997904E+03  0.00000000000E+00 0. -1.
         -2    1    5    5    0  503  0.94355430426E+01  0.21705094778E+02 -0.39230386253E+02  0.45816632540E+02  0.00000000000E+00 0.  1.
         -3    1    6    6    0  502 -0.25499812849E+03  0.51690772978E+02 -0.17888006150E+03  0.31574365860E+03  0.00000000000E+00 0.  1.
<mgrwt>
<rscale>  0 0.15434006E+04</rscale>
<asrwt>0</asrwt>
<pdfrwt beam="1">  1        2 0.16627532E+00 0.15434006E+04</pdfrwt>
<pdfrwt beam="2">  1       -2 0.84770131E-01 0.15434006E+04</pdfrwt>
<totfact> 0.26149763E+01</totfact>
</mgrwt>
</event>
<event>
12    1  0.1496989E-007  0.1822212E+04  0.7818608E-02  0.8694576E-01
          2   -1    0    0  501    0  0.00000000000E+00  0.00000000000E+00  0.17529498127E+04  0.17529498127E+04  0.00000000000E+00 0. -1.
         -2   -1    0    0    0  501 -0.00000000000E+00 -0.00000000000E+00 -0.47355253233E+03  0.47355253233E+03  0.00000000000E+00 0.  1.
         23    2    1    2    0    0 -0.44133457563E+03  0.49832012029E+03  0.28754526183E+03  0.73073850314E+03  0.90539120967E+02 0.  0.
        254    2    1    2    0    0  0.44133457563E+03 -0.49832012029E+03  0.99185201851E+03  0.14957638419E+04  0.90024435244E+03 0.  0.
        -24    2    4    4    0    0  0.30404186537E+03 -0.48255522988E+03  0.93439193091E+02  0.58327070650E+03  0.78567349897E+02 0.  0.
         24    2    4    4    0    0  0.13729271026E+03 -0.15764890416E+02  0.89841282542E+03  0.91249313538E+03  0.80001857342E+02 0.  0.
         11    1    3    3    0    0 -0.41356683316E+03  0.46144230918E+03  0.29073439311E+03  0.68446549769E+03  0.00000000000E+00 0. -1.
        -11    1    3    3    0    0 -0.27767742476E+02  0.36877811115E+02 -0.31891312806E+01  0.46273005448E+02  0.00000000000E+00 0.  1.
          2    1    6    6  502    0  0.10717545195E+03 -0.41589745358E+02  0.75465822001E+03  0.76336446960E+03  0.00000000000E+00 0. -1.
          1    1    5    5  503    0  0.30014023948E+03 -0.48265420325E+03  0.85952620341E+02  0.57482788399E+03  0.00000000000E+00 0. -1.
         -2    1    5    5    0  503  0.39016258918E+01  0.98973371648E-01  0.74865727494E+01  0.84428225056E+01  0.00000000000E+00 0.  1.
         -1    1    6    6    0  502  0.30117258314E+02  0.25824854942E+02  0.14375460541E+03  0.14912866578E+03  0.00000000000E+00 0.  1.
<mgrwt>
<rscale>  0 0.18222116E+04</rscale>
<asrwt>0</asrwt>
<pdfrwt beam="1">  1        2 0.26968458E+00 0.18222116E+04</pdfrwt>
<pdfrwt beam="2">  1       -2 0.72854237E-01 0.18222116E+04</pdfrwt>
<totfact> 0.14703346E+01</totfact>
</mgrwt>
</event>
<event>
12    1  0.1496989E-007  0.1559507E+04  0.7818608E-02  0.8845818E-01
         -1   -1    0    0    0  501 -0.00000000000E+00  0.00000000000E+00  0.56885631429E+03  0.56885631429E+03  0.00000000000E+00 0.  1.
          1   -1    0    0  501    0  0.00000000000E+00 -0.00000000000E+00 -0.10688380474E+04  0.10688380474E+04  0.00000000000E+00 0. -1.
         23    2    1    2    0    0 -0.44152498990E+03  0.58292057200E+02  0.95086632686E+02  0.46454110017E+03  0.91731594314E+02 0.  0.
        254    2    1    2    0    0  0.44152498990E+03 -0.58292057200E+02 -0.59506836583E+03  0.11731532616E+04  0.90765628652E+03 0.  0.
        -24    2    4    4    0    0  0.31877584114E+03  0.47457480045E+02  0.17987515375E+03  0.37765488101E+03  0.79986804599E+02 0.  0.
         24    2    4    4    0    0  0.12274914876E+03 -0.10574953724E+03 -0.77494351958E+03  0.79549838055E+03  0.77652409892E+02 0.  0.
         11    1    3    3    0    0 -0.13715166044E+03 -0.20748459380E+02  0.11701126947E+02  0.13920485947E+03  0.00000000000E+00 0. -1.
        -11    1    3    3    0    0 -0.30437332946E+03  0.79040516579E+02  0.83385505739E+02  0.32533624070E+03  0.00000000000E+00 0.  1.
          2    1    6    6  502    0  0.51518339190E+02 -0.78210226614E+02 -0.29477907914E+03  0.30929869757E+03  0.00000000000E+00 0. -1.
          3    1    5    5  503    0  0.28749090503E+03  0.53246622384E+02  0.18417035938E+03  0.34555020554E+03  0.00000000000E+00 0. -1.
         -4    1    5    5    0  503  0.31284936104E+02 -0.57891423384E+01 -0.42952056274E+01  0.32104675476E+02  0.00000000000E+00 0.  1.
         -1    1    6    6    0  502  0.71230809572E+02 -0.27539310631E+02 -0.48016444044E+03  0.48619968298E+03  0.00000000000E+00 0.  1.
<mgrwt>
<rscale>  0 0.15595067E+04</rscale>
<asrwt>0</asrwt>
<pdfrwt beam="1">  1        1 0.16443662E+00 0.15595067E+04</pdfrwt>
<pdfrwt beam="2">  1       -1 0.87516356E-01 0.15595067E+04</pdfrwt>
<totfact> 0.16560406E+01</totfact>
</mgrwt>
</event>
<event>
12    1  0.1496989E-007  0.1570586E+04  0.7818608E-02  0.8838825E-01
         -1   -1    0    0    0  501 -0.00000000000E+00  0.00000000000E+00  0.24147021389E+03  0.24147021389E+03  0.00000000000E+00 0. -1.
          1   -1    0    0  501    0  0.00000000000E+00 -0.00000000000E+00 -0.25538753314E+04  0.25538753314E+04  0.00000000000E+00 0.  1.
         23    2    1    2    0    0 -0.20603637264E+03 -0.27585633892E+03 -0.15055760121E+04  0.15471785693E+04  0.91949390975E+02 0.  0.
        254    2    1    2    0    0  0.20603637264E+03  0.27585633892E+03 -0.80682910541E+03  0.12481669760E+04  0.88791885218E+03 0.  0.
        -24    2    4    4    0    0  0.54383025946E+01  0.47524404516E+03 -0.82385824845E+03  0.95412152959E+03  0.75624083992E+02 0.  0.
         24    2    4    4    0    0  0.20059807005E+03 -0.19938770624E+03  0.17029143049E+02  0.29404544640E+03  0.78598280713E+02 0.  0.
         11    1    3    3    0    0  0.51231479318E+01 -0.20614937464E+02 -0.48966944754E+02  0.53375874418E+02  0.00000000000E+00 0. -1.
        -11    1    3    3    0    0 -0.21115952057E+03 -0.25524140146E+03 -0.14566090674E+04  0.14938026949E+04  0.00000000000E+00 0.  1.
          4    1    6    6  502    0  0.16583429360E+02 -0.30051876992E+01 -0.15582343097E+02  0.22953228506E+02  0.00000000000E+00 0. -1.
          3    1    5    5  503    0 -0.28836241271E+02  0.26502593595E+03 -0.49710801568E+03  0.56408036199E+03  0.00000000000E+00 0. -1.
         -4    1    5    5    0  503  0.34274543866E+02  0.21021810921E+03 -0.32675023278E+03  0.39004116760E+03  0.00000000000E+00 0.  1.
         -3    1    6    6    0  502  0.18401464069E+03 -0.19638251854E+03  0.32611486146E+02  0.27109221790E+03  0.00000000000E+00 0.  1.
<mgrwt>
<rscale>  0 0.15705857E+04</rscale>
<asrwt>0</asrwt>
<pdfrwt beam="1">  1        1 0.39290389E+00 0.15705857E+04</pdfrwt>
<pdfrwt beam="2">  1       -1 0.37149265E-01 0.15705857E+04</pdfrwt>
<totfact> 0.83506031E+00</totfact>
</mgrwt>
</event>
<event>
12    1  0.1496989E-007  0.1745148E+04  0.7818608E-02  0.8736026E-01
         -2   -1    0    0    0  501 -0.00000000000E+00  0.00000000000E+00  0.16966089349E+03  0.16966089349E+03  0.00000000000E+00 0.  1.
          2   -1    0    0  501    0  0.00000000000E+00 -0.00000000000E+00 -0.44876885302E+04  0.44876885302E+04  0.00000000000E+00 0. -1.
         23    2    1    2    0    0  0.44625822102E+03 -0.10525094719E+03 -0.26686562117E+04  0.27092292856E+04  0.89292686310E+02 0.  0.
        254    2    1    2    0    0 -0.44625822102E+03  0.10525094719E+03 -0.16493714250E+04  0.19481201381E+04  0.92979665152E+03 0.  0.
        -24    2    4    4    0    0 -0.30614751739E+03  0.38331689269E+03 -0.15238567880E+04  0.16029609776E+04  0.81769450173E+02 0.  0.
         24    2    4    4    0    0 -0.14011070364E+03 -0.27806594550E+03 -0.12551463702E+03  0.34515916045E+03  0.80182558057E+02 0.  0.
         13    1    3    3    0    0  0.75545431653E+01 -0.16776879804E+02 -0.73571997602E+02  0.75837811477E+02  0.00000000000E+00 0.  1.
        -13    1    3    3    0    0  0.43870367786E+03 -0.88474067381E+02 -0.25950842141E+04  0.26333914741E+04  0.00000000000E+00 0. -1.
          2    1    6    6  502    0  0.27220785703E+00  0.51595971702E+01 -0.36714291207E+00  0.51798005747E+01  0.00000000000E+00 0. -1.
          1    1    5    5  503    0 -0.20735748243E+03  0.28065434999E+03 -0.96235858919E+03  0.10236689132E+04  0.00000000000E+00 0. -1.
         -2    1    5    5    0  503 -0.98790034958E+02  0.10266254270E+03 -0.56149819878E+03  0.57929206443E+03  0.00000000000E+00 0.  1.
         -1    1    6    6    0  502 -0.14038291149E+03 -0.28322554267E+03 -0.12514749411E+03  0.33997935988E+03  0.00000000000E+00 0.  1.
<mgrwt>
<rscale>  0 0.17451478E+04</rscale>
<asrwt>0</asrwt>
<pdfrwt beam="1">  1        2 0.69041354E+00 0.17451478E+04</pdfrwt>
<pdfrwt beam="2">  1       -2 0.26101679E-01 0.17451478E+04</pdfrwt>
<totfact> 0.16304952E+00</totfact>
</mgrwt>
</event>
<event>
12    1  0.1496989E-007  0.1897529E+04  0.7818608E-02  0.8656087E-01
         -2   -1    0    0    0  501 -0.00000000000E+00  0.00000000000E+00  0.28705855789E+03  0.28705855789E+03  0.00000000000E+00 0.  1.
          2   -1    0    0  501    0  0.00000000000E+00 -0.00000000000E+00 -0.31357860206E+04  0.31357860206E+04  0.00000000000E+00 0. -1.
         23    2    1    2    0    0 -0.38584494731E+03 -0.53436324564E+03 -0.16853444910E+04  0.18118645484E+04  0.89703324856E+02 0.  0.
        254    2    1    2    0    0  0.38584494731E+03  0.53436324564E+03 -0.11633829717E+04  0.16109800302E+04  0.89854121613E+03 0.  0.
        -24    2    4    4    0    0  0.20675063618E+03  0.69741176327E+03 -0.11396901919E+04  0.13543513704E+04  0.79024730411E+02 0.  0.
         24    2    4    4    0    0  0.17909431113E+03 -0.16304851764E+03 -0.23692779840E+02  0.25662865974E+03  0.81469809133E+02 0.  0.
         13    1    3    3    0    0 -0.19096077589E+03 -0.24751747108E+03 -0.91874326715E+03  0.97047416624E+03  0.00000000000E+00 0. -1.
        -13    1    3    3    0    0 -0.19488417142E+03 -0.28684577456E+03 -0.76660122388E+03  0.84139038211E+03  0.00000000000E+00 0.  1.
          2    1    6    6  502    0  0.32859224588E+02 -0.68975328326E+02  0.16498668881E+02  0.78163486572E+02  0.00000000000E+00 0. -1.
          3    1    5    5  503    0  0.38977913742E+02  0.12420956691E+03 -0.26437385673E+03  0.29468768280E+03  0.00000000000E+00 0. -1.
         -4    1    5    5    0  503  0.16777272244E+03  0.57320219637E+03 -0.87531633515E+03  0.10596636876E+04  0.00000000000E+00 0.  1.
         -1    1    6    6    0  502  0.14623508655E+03 -0.94073189309E+02 -0.40191448722E+02  0.17846517317E+03  0.00000000000E+00 0.  1.
<mgrwt>
<rscale>  0 0.18975291E+04</rscale>
<asrwt>0</asrwt>
<pdfrwt beam="1">  1        2 0.48242858E+00 0.18975291E+04</pdfrwt>
<pdfrwt beam="2">  1       -2 0.44162858E-01 0.18975291E+04</pdfrwt>
<totfact> 0.65268403E+00</totfact>
</mgrwt>
</event>
<event>
12    1  0.1496989E-007  0.1418792E+04  0.7818608E-02  0.8940327E-01
         -1   -1    0    0    0  501 -0.00000000000E+00  0.00000000000E+00  0.19202511641E+03  0.19202511641E+03  0.00000000000E+00 0.  1.
          1   -1    0    0  501    0  0.00000000000E+00 -0.00000000000E+00 -0.26207114405E+04  0.26207114405E+04  0.00000000000E+00 0. -1.
         23    2    1    2    0    0  0.20471370237E+03 -0.13129203027E+03 -0.14172345257E+04  0.14409073671E+04  0.92276989050E+02 0.  0.
        254    2    1    2    0    0 -0.20471370237E+03  0.13129203027E+03 -0.10114517985E+04  0.13718291898E+04  0.89427920043E+03 0.  0.
        -24    2    4    4    0    0  0.15578641725E+03  0.24574437453E+03 -0.13405741702E+02  0.30164652589E+03  0.78429632546E+02 0.  0.
         24    2    4    4    0    0 -0.36050011962E+03 -0.11445234425E+03 -0.99804605677E+03  0.10701826639E+04  0.78328330949E+02 0.  0.
         13    1    3    3    0    0  0.37771606706E+02  0.19953196931E+01 -0.10972076436E+03  0.11605740694E+03  0.00000000000E+00 0.  1.
        -13    1    3    3    0    0  0.16694209566E+03 -0.13328734997E+03 -0.13075137613E+04  0.13248499602E+04  0.00000000000E+00 0. -1.
          4    1    6    6  502    0 -0.46147477910E+02 -0.39909370611E+02 -0.12069221753E+03  0.13523667754E+03  0.00000000000E+00 0. -1.
          1    1    5    5  503    0  0.58016612600E+02  0.38750950273E+02 -0.20169191379E+02  0.72624787542E+02  0.00000000000E+00 0. -1.
         -2    1    5    5    0  503  0.97769804651E+02  0.20699342425E+03  0.67634496765E+01  0.22902173835E+03  0.00000000000E+00 0.  1.
         -3    1    6    6    0  502 -0.31435264171E+03 -0.74542973641E+02 -0.87735383923E+03  0.93494598640E+03  0.00000000000E+00 0.  1.
<mgrwt>
<rscale>  0 0.14187916E+04</rscale>
<asrwt>0</asrwt>
<pdfrwt beam="1">  1        1 0.40318637E+00 0.14187916E+04</pdfrwt>
<pdfrwt beam="2">  1       -1 0.29542326E-01 0.14187916E+04</pdfrwt>
<totfact> 0.11437764E+01</totfact>
</mgrwt>
</event>
<event>
12    1  0.1496989E-007  0.1320770E+04  0.7818608E-02  0.9013254E-01
          1   -1    0    0  501    0  0.00000000000E+00  0.00000000000E+00  0.23893854925E+03  0.23893854925E+03  0.00000000000E+00 0.  1.
         -1   -1    0    0    0  501 -0.00000000000E+00 -0.00000000000E+00 -0.18251912081E+04  0.18251912081E+04  0.00000000000E+00 0. -1.
         23    2    1    2    0    0 -0.10458106158E+03 -0.26153685018E+02 -0.95062935816E+03  0.96099559865E+03  0.90527069629E+02 0.  0.
        254    2    1    2    0    0  0.10458106158E+03  0.26153685018E+02 -0.63562330065E+03  0.11031341587E+04  0.89513506132E+03 0.  0.
        -24    2    4    4    0    0 -0.85330158938E+02 -0.40588798248E+03 -0.31803185275E+03  0.52880237422E+03  0.80382841938E+02 0.  0.
         24    2    4    4    0    0  0.18991122052E+03  0.43204166749E+03 -0.31759144790E+03  0.57433178445E+03  0.79160575503E+02 0.  0.
         13    1    3    3    0    0 -0.53024300538E+02 -0.43045566856E+02 -0.75184352838E+03  0.75493919520E+03  0.00000000000E+00 0. -1.
        -13    1    3    3    0    0 -0.51556761043E+02  0.16891881838E+02 -0.19878582978E+03  0.20605640345E+03  0.00000000000E+00 0.  1.
          4    1    6    6  502    0  0.65978132935E+02  0.23495312624E+03 -0.13851109514E+03  0.28060899671E+03  0.00000000000E+00 0. -1.
          1    1    5    5  503    0 -0.97479743228E+02 -0.32364408822E+03 -0.27139880478E+03  0.43348022725E+03  0.00000000000E+00 0. -1.
         -2    1    5    5    0  503  0.12149584290E+02 -0.82243894252E+02 -0.46633047962E+02  0.95322146968E+02  0.00000000000E+00 0.  1.
         -3    1    6    6    0  502  0.12393308759E+03  0.19708854125E+03 -0.17908035276E+03  0.29372278774E+03  0.00000000000E+00 0.  1.
<mgrwt>
<rscale>  0 0.13207703E+04</rscale>
<asrwt>0</asrwt>
<pdfrwt beam="1">  1        1 0.36759778E-01 0.13207703E+04</pdfrwt>
<pdfrwt beam="2">  1       -1 0.28079864E+00 0.13207703E+04</pdfrwt>
<totfact> 0.51055625E+00</totfact>
</mgrwt>
</event>
<event>
12    1  0.1496989E-007  0.1202174E+04  0.7818608E-02  0.9110956E-01
          2   -1    0    0  501    0  0.00000000000E+00  0.00000000000E+00  0.17839636175E+04  0.17839636175E+04  0.00000000000E+00 0. -1.
         -2   -1    0    0    0  501 -0.00000000000E+00 -0.00000000000E+00 -0.20252958636E+03  0.20252958636E+03  0.00000000000E+00 0.  1.
         23    2    1    2    0    0  0.73959675282E+02 -0.21150913156E+03  0.51823065502E+03  0.57140720239E+03  0.87960404952E+02 0.  0.
        254    2    1    2    0    0 -0.73959675282E+02  0.21150913156E+03  0.10632033761E+04  0.14150860015E+04  0.90656540099E+03 0.  0.
        -24    2    4    4    0    0 -0.64695019581E+02  0.48268460875E+03  0.24846464788E+03  0.55240743874E+03  0.79053273472E+02 0.  0.
         24    2    4    4    0    0 -0.92646557012E+01 -0.27117547719E+03  0.81473872825E+03  0.86267856274E+03  0.82420470902E+02 0.  0.
         13    1    3    3    0    0  0.60445300009E+01 -0.10614426413E+03  0.31671367256E+03  0.33408186353E+03  0.00000000000E+00 0. -1.
        -13    1    3    3    0    0  0.67915145281E+02 -0.10536486743E+03  0.20151698246E+03  0.23732533886E+03  0.00000000000E+00 0.  1.
          2    1    6    6  502    0 -0.25515337095E+01 -0.22229858076E+03  0.54732555770E+03  0.59075243160E+03  0.00000000000E+00 0. -1.
          1    1    5    5  503    0 -0.75056887327E+02  0.34919869954E+03  0.15636618144E+03  0.38990210411E+03  0.00000000000E+00 0. -1.
         -2    1    5    5    0  503  0.10361867746E+02  0.13348590921E+03  0.92098466441E+02  0.16250533463E+03  0.00000000000E+00 0.  1.
         -1    1    6    6    0  502 -0.67131219917E+01 -0.48876896433E+02  0.26741317055E+03  0.27192613114E+03  0.00000000000E+00 0.  1.
<mgrwt>
<rscale>  0 0.12021737E+04</rscale>
<asrwt>0</asrwt>
<pdfrwt beam="1">  1        2 0.27445593E+00 0.12021737E+04</pdfrwt>
<pdfrwt beam="2">  1       -2 0.31158399E-01 0.12021737E+04</pdfrwt>
<totfact> 0.83013299E+01</totfact>
</mgrwt>
</event>
<event>
12    1  0.1496989E-007  0.2660886E+04  0.7818608E-02  0.8347809E-01
         -2   -1    0    0    0  501 -0.00000000000E+00  0.00000000000E+00  0.46993074324E+03  0.46993074324E+03  0.00000000000E+00 0.  1.
          2   -1    0    0  501    0  0.00000000000E+00 -0.00000000000E+00 -0.37666796667E+04  0.37666796667E+04  0.00000000000E+00 0. -1.
         23    2    1    2    0    0 -0.30871744723E+03  0.15087133828E+03 -0.32419746792E+04  0.32614933399E+04  0.94182603378E+02 0.  0.
        254    2    1    2    0    0  0.30871744723E+03 -0.15087133828E+03 -0.54774244296E+02  0.97511707006E+03  0.91092505704E+03 0.  0.
        -24    2    4    4    0    0  0.47054639909E+03  0.65923099563E+02  0.26421682493E+03  0.54943349825E+03  0.79415802381E+02 0.  0.
         24    2    4    4    0    0 -0.16182895185E+03 -0.21679443784E+03 -0.31899106923E+03  0.42568357182E+03  0.79137621466E+02 0.  0.
         11    1    3    3    0    0 -0.29712843634E+03  0.13163716631E+03 -0.31539745805E+04  0.31706733205E+04  0.00000000000E+00 0. -1.
        -11    1    3    3    0    0 -0.11589010890E+02  0.19234171973E+02 -0.88000098687E+02  0.90820019345E+02  0.00000000000E+00 0.  1.
          2    1    6    6  502    0 -0.14685078041E+03 -0.16230517366E+03 -0.21216407073E+03  0.30483063169E+03  0.00000000000E+00 0. -1.
          3    1    5    5  503    0  0.35059752867E+03  0.48926665707E+02  0.23473586273E+03  0.42475095171E+03  0.00000000000E+00 0. -1.
         -4    1    5    5    0  503  0.11994887042E+03  0.16996433856E+02  0.29480962200E+02  0.12468254654E+03  0.00000000000E+00 0.  1.
         -1    1    6    6    0  502 -0.14978171441E+02 -0.54489264180E+02 -0.10682699850E+03  0.12085294013E+03  0.00000000000E+00 0.  1.
<mgrwt>
<rscale>  0 0.26608860E+04</rscale>
<asrwt>0</asrwt>
<pdfrwt beam="1">  1        2 0.57948917E+00 0.26608860E+04</pdfrwt>
<pdfrwt beam="2">  1       -2 0.72297038E-01 0.26608860E+04</pdfrwt>
<totfact> 0.79416772E-01</totfact>
</mgrwt>
</event>
<event>
12    1  0.1496989E-007  0.1554599E+04  0.7818608E-02  0.8848935E-01
          1   -1    0    0  501    0  0.00000000000E+00  0.00000000000E+00  0.80605388904E+03  0.80605388904E+03  0.00000000000E+00 0. -1.
         -1   -1    0    0    0  501 -0.00000000000E+00 -0.00000000000E+00 -0.74957122305E+03  0.74957122305E+03  0.00000000000E+00 0.  1.
         23    2    1    2    0    0  0.34177263847E+03 -0.37936520722E+03 -0.34507770661E+02  0.51945600336E+03  0.88978965720E+02 0.  0.
        254    2    1    2    0    0 -0.34177263847E+03  0.37936520722E+03  0.90990436656E+02  0.10361691087E+04  0.89701765058E+03 0.  0.
        -24    2    4    4    0    0 -0.36085730457E+03  0.28040115113E+03  0.45537773520E+03  0.64978940610E+03  0.77553792616E+02 0.  0.
         24    2    4    4    0    0  0.19084666104E+02  0.98964056089E+02 -0.36438729854E+03  0.38637970262E+03  0.79706100033E+02 0.  0.
         13    1    3    3    0    0  0.61769394593E+02 -0.55960833907E+02  0.26254337893E+02  0.87386287816E+02  0.00000000000E+00 0. -1.
        -13    1    3    3    0    0  0.28000324387E+03 -0.32340437331E+03 -0.60762108554E+02  0.43206971555E+03  0.00000000000E+00 0.  1.
          2    1    6    6  502    0  0.39205354871E+02  0.47383929615E+02 -0.27032610227E+03  0.27723365273E+03  0.00000000000E+00 0. -1.
          1    1    5    5  503    0 -0.23107235484E+03  0.15761955436E+03  0.22961312039E+03  0.36188470836E+03  0.00000000000E+00 0. -1.
         -2    1    5    5    0  503 -0.12978494973E+03  0.12278159678E+03  0.22576461481E+03  0.28790469774E+03  0.00000000000E+00 0.  1.
         -1    1    6    6    0  502 -0.20120688767E+02  0.51580126474E+02 -0.94061196268E+02  0.10914604989E+03  0.00000000000E+00 0.  1.
<mgrwt>
<rscale>  0 0.15545994E+04</rscale>
<asrwt>0</asrwt>
<pdfrwt beam="1">  1        1 0.12400829E+00 0.15545994E+04</pdfrwt>
<pdfrwt beam="2">  1       -1 0.11531865E+00 0.15545994E+04</pdfrwt>
<totfact> 0.14347943E+01</totfact>
</mgrwt>
</event>
<event>
12    1  0.1496989E-007  0.2093436E+04  0.7818608E-02  0.8564141E-01
          1   -1    0    0  501    0  0.00000000000E+00  0.00000000000E+00  0.79313356550E+03  0.79313356550E+03  0.00000000000E+00 0. -1.
         -1   -1    0    0    0  501 -0.00000000000E+00 -0.00000000000E+00 -0.13813790841E+04  0.13813790841E+04  0.00000000000E+00 0.  1.
         23    2    1    2    0    0 -0.12254715071E+03  0.59168976737E+03  0.38221069573E+03  0.72082132982E+03  0.91563030976E+02 0.  0.
        254    2    1    2    0    0  0.12254715071E+03 -0.59168976737E+03 -0.97045621430E+03  0.14536913198E+04  0.89795245103E+03 0.  0.
        -24    2    4    4    0    0 -0.24191892699E+03 -0.15224266659E+03  0.29762031584E+02  0.29916586007E+03  0.83137455697E+02 0.  0.
         24    2    4    4    0    0  0.36446607770E+03 -0.43944710077E+03 -0.10002182459E+04  0.11545254597E+04  0.80890181754E+02 0.  0.
         11    1    3    3    0    0 -0.42869791233E+02  0.71155993513E+02  0.35525254292E+02  0.90349532958E+02  0.00000000000E+00 0.  1.
        -11    1    3    3    0    0 -0.79677359478E+02  0.52053377385E+03  0.34668544144E+03  0.63047179686E+03  0.00000000000E+00 0. -1.
          2    1    6    6  502    0  0.18049391529E+02 -0.11599303723E+02 -0.15837391669E+02  0.26667346255E+02  0.00000000000E+00 0. -1.
          1    1    5    5  503    0 -0.11634824512E+03 -0.67485136055E+02 -0.27356813897E+02  0.13725725116E+03  0.00000000000E+00 0. -1.
         -2    1    5    5    0  503 -0.12557068187E+03 -0.84757530535E+02  0.57118845481E+02  0.16190860890E+03  0.00000000000E+00 0.  1.
         -1    1    6    6    0  502  0.34641668617E+03 -0.42784779705E+03 -0.98438085421E+03  0.11278581134E+04  0.00000000000E+00 0.  1.
<mgrwt>
<rscale>  0 0.20934356E+04</rscale>
<asrwt>0</asrwt>
<pdfrwt beam="1">  1        1 0.12202055E+00 0.20934356E+04</pdfrwt>
<pdfrwt beam="2">  1       -1 0.21251986E+00 0.20934356E+04</pdfrwt>
<totfact> 0.25493428E+00</totfact>
</mgrwt>
</event>
<event>
12    1  0.1496989E-007  0.1893316E+04  0.7818608E-02  0.8658191E-01
          2   -1    0    0  501    0  0.00000000000E+00  0.00000000000E+00  0.17040487146E+04  0.17040487146E+04  0.00000000000E+00 0. -1.
         -2   -1    0    0    0  501 -0.00000000000E+00 -0.00000000000E+00 -0.52590116668E+03  0.52590116668E+03  0.00000000000E+00 0.  1.
         23    2    1    2    0    0 -0.62656270900E+03 -0.19031628202E+03  0.56155497711E+03  0.86750288511E+03  0.91739565340E+02 0.  0.
        254    2    1    2    0    0  0.62656270900E+03  0.19031628202E+03  0.61659257084E+03  0.13624469962E+04  0.10233642086E+04 0.  0.
        -24    2    4    4    0    0  0.10726088008E+03 -0.13455800854E+03 -0.24035484845E+03  0.30628889933E+03  0.80197771933E+02 0.  0.
         24    2    4    4    0    0  0.51930182892E+03  0.32487429056E+03  0.85694741929E+03  0.10561580969E+04  0.76768170253E+02 0.  0.
         13    1    3    3    0    0 -0.58250081981E+02 -0.80988515318E+01  0.87020515810E+02  0.10502967970E+03  0.00000000000E+00 0. -1.
        -13    1    3    3    0    0 -0.56831262702E+03 -0.18221743048E+03  0.47453446130E+03  0.76247320541E+03  0.00000000000E+00 0.  1.
          2    1    6    6  502    0  0.35363296725E+03  0.26161114216E+03  0.62017753615E+03  0.76033995132E+03  0.00000000000E+00 0. -1.
          1    1    5    5  503    0  0.10415716372E+03 -0.11360275384E+03 -0.15592352187E+03  0.21924061008E+03  0.00000000000E+00 0. -1.
         -2    1    5    5    0  503  0.31037163609E+01 -0.20955254703E+02 -0.84431326575E+02  0.87048289254E+02  0.00000000000E+00 0.  1.
         -1    1    6    6    0  502  0.16566886167E+03  0.63263148397E+02  0.23676988314E+03  0.29581814555E+03  0.00000000000E+00 0.  1.
<mgrwt>
<rscale>  0 0.18933158E+04</rscale>
<asrwt>0</asrwt>
<pdfrwt beam="1">  1        2 0.26216134E+00 0.18933158E+04</pdfrwt>
<pdfrwt beam="2">  1       -2 0.80907873E-01 0.18933158E+04</pdfrwt>
<totfact> 0.12319031E+01</totfact>
</mgrwt>
</event>
<event>
12    1  0.1496989E-007  0.1112418E+04  0.7818608E-02  0.9193173E-01
         -1   -1    0    0    0  501 -0.00000000000E+00  0.00000000000E+00  0.11219254646E+04  0.11219254646E+04  0.00000000000E+00 0.  1.
          1   -1    0    0  501    0  0.00000000000E+00 -0.00000000000E+00 -0.27574761350E+03  0.27574761350E+03  0.00000000000E+00 0. -1.
         23    2    1    2    0    0  0.16039035288E+03  0.17468367063E+02  0.31043153757E+03  0.36196709290E+03  0.92855951201E+02 0.  0.
        254    2    1    2    0    0 -0.16039035288E+03 -0.17468367063E+02  0.53574631356E+03  0.10357059852E+04  0.87156902551E+03 0.  0.
        -24    2    4    4    0    0  0.31969348285E+03 -0.12431229065E+03  0.82606956971E+02  0.36168571286E+03  0.79593824918E+02 0.  0.
         24    2    4    4    0    0 -0.48008383573E+03  0.10684392358E+03  0.45313935659E+03  0.67402027239E+03  0.84094814153E+02 0.  0.
         13    1    3    3    0    0  0.50756689693E+02 -0.18648099504E+02  0.38000479810E+02  0.66091070725E+02  0.00000000000E+00 0. -1.
        -13    1    3    3    0    0  0.10963366319E+03  0.36116466568E+02  0.27243105776E+03  0.29587602217E+03  0.00000000000E+00 0.  1.
          2    1    6    6  502    0 -0.15722604927E+02  0.20026660724E+02  0.14131329146E+02  0.29119785522E+02  0.00000000000E+00 0. -1.
          1    1    5    5  503    0  0.59373144515E+02 -0.39245849390E+02 -0.11513583177E+02  0.72096945715E+02  0.00000000000E+00 0. -1.
         -2    1    5    5    0  503  0.26032033833E+03 -0.85066441256E+02  0.94120540149E+02  0.28958876714E+03  0.00000000000E+00 0.  1.
         -1    1    6    6    0  502 -0.46436123080E+03  0.86817262858E+02  0.43900802744E+03  0.64490048687E+03  0.00000000000E+00 0.  1.
<mgrwt>
<rscale>  0 0.11124177E+04</rscale>
<asrwt>0</asrwt>
<pdfrwt beam="1">  1        1 0.42422710E-01 0.11124177E+04</pdfrwt>
<pdfrwt beam="2">  1       -1 0.17260392E+00 0.11124177E+04</pdfrwt>
<totfact> 0.22950961E+01</totfact>
</mgrwt>
</event>
<event>
12    1  0.1496989E-007  0.1944350E+04  0.7818608E-02  0.8633090E-01
          1   -1    0    0  501    0  0.00000000000E+00  0.00000000000E+00  0.12704317256E+04  0.12704317256E+04  0.00000000000E+00 0. -1.
         -1   -1    0    0    0  501 -0.00000000000E+00 -0.00000000000E+00 -0.74393937866E+03  0.74393937866E+03  0.00000000000E+00 0.  1.
         23    2    1    2    0    0  0.80252566911E+02 -0.75551669358E+03  0.28878021072E+03  0.81985085543E+03  0.10731014053E+03 0.  0.
        254    2    1    2    0    0 -0.80252566911E+02  0.75551669358E+03  0.23771213618E+03  0.11945202488E+04  0.89057600255E+03 0.  0.
        -24    2    4    4    0    0  0.12826275427E+03 -0.10263964536E+03  0.24741854179E+03  0.30764895072E+03  0.80285186225E+02 0.  0.
         24    2    4    4    0    0 -0.20851532118E+03  0.85815633894E+03 -0.97064056145E+01  0.88687129807E+03  0.80842710285E+02 0.  0.
         13    1    3    3    0    0  0.81661862712E+02 -0.39655353628E+03  0.11413283576E+03  0.42065386145E+03  0.00000000000E+00 0.  1.
        -13    1    3    3    0    0 -0.14092958017E+01 -0.35896315730E+03  0.17464737496E+03  0.39919699397E+03  0.00000000000E+00 0. -1.
          2    1    6    6  502    0 -0.32248741297E+02  0.71579719201E+02 -0.18827829530E+02  0.80734903734E+02  0.00000000000E+00 0. -1.
          1    1    5    5  503    0  0.48300811850E+02 -0.67012188475E+01  0.31012656615E+02  0.57789788283E+02  0.00000000000E+00 0. -1.
         -2    1    5    5    0  503  0.79961942419E+02 -0.95938426509E+02  0.21640588518E+03  0.24985916244E+03  0.00000000000E+00 0.  1.
         -1    1    6    6    0  502 -0.17626657988E+03  0.78657661974E+03  0.91214239154E+01  0.80613639434E+03  0.00000000000E+00 0.  1.
<mgrwt>
<rscale>  0 0.19443500E+04</rscale>
<asrwt>0</asrwt>
<pdfrwt beam="1">  1        1 0.19545103E+00 0.19443500E+04</pdfrwt>
<pdfrwt beam="2">  1       -1 0.11445221E+00 0.19443500E+04</pdfrwt>
<totfact> 0.61476664E+00</totfact>
</mgrwt>
</event>
<event>
12    1  0.1496989E-007  0.2920029E+04  0.7818608E-02  0.8266943E-01
         -2   -1    0    0    0  501 -0.00000000000E+00  0.00000000000E+00  0.15156272136E+04  0.15156272136E+04  0.00000000000E+00 0.  1.
          2   -1    0    0  501    0  0.00000000000E+00 -0.00000000000E+00 -0.14064425719E+04  0.14064425719E+04  0.00000000000E+00 0. -1.
         23    2    1    2    0    0 -0.11646868590E+04  0.50968936597E+03 -0.30424683828E+03  0.13103481064E+04  0.90373072403E+02 0.  0.
        254    2    1    2    0    0  0.11646868590E+04 -0.50968936597E+03  0.41343147998E+03  0.16117216791E+04  0.90024577376E+03 0.  0.
        -24    2    4    4    0    0  0.60900132962E+03 -0.21691378256E+03 -0.24712476254E+03  0.69675485141E+03  0.80389465489E+02 0.  0.
         24    2    4    4    0    0  0.55568552935E+03 -0.29277558341E+03  0.66055624251E+03  0.91496682774E+03  0.79534876461E+02 0.  0.
         13    1    3    3    0    0 -0.11148808431E+04  0.50637436998E+03 -0.28864107837E+03  0.12580492713E+04  0.00000000000E+00 0. -1.
        -13    1    3    3    0    0 -0.49806015872E+02  0.33149959856E+01 -0.15605759916E+02  0.52298835149E+02  0.00000000000E+00 0.  1.
          2    1    6    6  502    0  0.42090462232E+03 -0.21944789098E+03  0.44710326578E+03  0.65208849722E+03  0.00000000000E+00 0. -1.
          3    1    5    5  503    0  0.32043926999E+03 -0.73762118293E+02 -0.13873855335E+03  0.35689012599E+03  0.00000000000E+00 0. -1.
         -4    1    5    5    0  503  0.28856205963E+03 -0.14315166426E+03 -0.10838620919E+03  0.33986472542E+03  0.00000000000E+00 0.  1.
         -1    1    6    6    0  502  0.13478090703E+03 -0.73327692433E+02  0.21345297674E+03  0.26287833052E+03  0.00000000000E+00 0.  1.
<mgrwt>
<rscale>  0 0.29200292E+04</rscale>
<asrwt>0</asrwt>
<pdfrwt beam="1">  1        2 0.21637578E+00 0.29200292E+04</pdfrwt>
<pdfrwt beam="2">  1       -2 0.23317342E+00 0.29200292E+04</pdfrwt>
<totfact> 0.10098662E+00</totfact>
</mgrwt>
</event>
<event>
12    1  0.1496989E-007  0.1444950E+04  0.7818608E-02  0.8921909E-01
         -1   -1    0    0    0  501 -0.00000000000E+00  0.00000000000E+00  0.83850328095E+03  0.83850328095E+03  0.00000000000E+00 0.  1.
          1   -1    0    0  501    0  0.00000000000E+00 -0.00000000000E+00 -0.62250193580E+03  0.62250193580E+03  0.00000000000E+00 0. -1.
         23    2    1    2    0    0 -0.20019370323E+03 -0.18945489651E+03  0.40580962987E+03  0.49869405168E+03  0.89686257919E+02 0.  0.
        254    2    1    2    0    0  0.20019370323E+03  0.18945489651E+03 -0.18980828473E+03  0.96231116507E+03  0.90224437756E+03 0.  0.
        -24    2    4    4    0    0  0.37249893292E+03  0.42238515060E+03 -0.29892514931E+03  0.64261079987E+03  0.80173092451E+02 0.  0.
         24    2    4    4    0    0 -0.17230522969E+03 -0.23293025409E+03  0.10911686459E+03  0.31970036520E+03  0.79726017855E+02 0.  0.
         11    1    3    3    0    0 -0.31753334513E+02 -0.64347049406E+02  0.56994592337E+02  0.91636240514E+02  0.00000000000E+00 0. -1.
        -11    1    3    3    0    0 -0.16844036872E+03 -0.12510784711E+03  0.34881503754E+03  0.40705781117E+03  0.00000000000E+00 0.  1.
          2    1    6    6  502    0 -0.20329286640E+02 -0.12286167312E+02  0.33954044943E+02  0.41437989460E+02  0.00000000000E+00 0. -1.
          3    1    5    5  503    0  0.12945522129E+03  0.13279906142E+03 -0.14063475533E+03  0.23274960674E+03  0.00000000000E+00 0. -1.
         -4    1    5    5    0  503  0.24304371163E+03  0.28958608918E+03 -0.15829039399E+03  0.40986119313E+03  0.00000000000E+00 0.  1.
         -1    1    6    6    0  502 -0.15197594305E+03 -0.22064408677E+03  0.75162819643E+02  0.27826237574E+03  0.00000000000E+00 0.  1.
<mgrwt>
<rscale>  0 0.14449497E+04</rscale>
<asrwt>0</asrwt>
<pdfrwt beam="1">  1        1 0.95769529E-01 0.14449497E+04</pdfrwt>
<pdfrwt beam="2">  1       -1 0.12900050E+00 0.14449497E+04</pdfrwt>
<totfact> 0.16314336E+01</totfact>
</mgrwt>
</event>
<event>
12    1  0.1496989E-007  0.1243676E+04  0.7818608E-02  0.9075463E-01
         -1   -1    0    0    0  501 -0.00000000000E+00  0.00000000000E+00  0.53226874620E+03  0.53226874620E+03  0.00000000000E+00 0.  1.
          1   -1    0    0  501    0  0.00000000000E+00 -0.00000000000E+00 -0.72648027177E+03  0.72648027177E+03  0.00000000000E+00 0. -1.
         23    2    1    2    0    0 -0.83320318163E+02 -0.86680554494E+02 -0.30784409909E+03  0.34326770382E+03  0.92784337007E+02 0.  0.
        254    2    1    2    0    0  0.83320318163E+02  0.86680554494E+02  0.11363257353E+03  0.91548131415E+03  0.90040984049E+03 0.  0.
        -24    2    4    4    0    0  0.39757158479E+03  0.17260507813E+03 -0.17506451396E+03  0.47385782769E+03  0.77704432233E+02 0.  0.
         24    2    4    4    0    0 -0.31425126662E+03 -0.85924523633E+02  0.28869708748E+03  0.44162348646E+03  0.74487671061E+02 0.  0.
         13    1    3    3    0    0 -0.58651054615E+02 -0.10520266605E+03 -0.23234149393E+03  0.26170616529E+03  0.00000000000E+00 0. -1.
        -13    1    3    3    0    0 -0.24669263549E+02  0.18522111555E+02 -0.75502605165E+02  0.81561538529E+02  0.00000000000E+00 0.  1.
          4    1    6    6  502    0 -0.15167657885E+03 -0.72111106268E+02  0.11645501135E+03  0.20437114740E+03  0.00000000000E+00 0. -1.
          3    1    5    5  503    0  0.13203486591E+03  0.68052208974E+02 -0.22429255047E+02  0.15022443358E+03  0.00000000000E+00 0. -1.
         -4    1    5    5    0  503  0.26553671888E+03  0.10455286915E+03 -0.15263525891E+03  0.32363339411E+03  0.00000000000E+00 0.  1.
         -3    1    6    6    0  502 -0.16257468777E+03 -0.13813417365E+02  0.17224207613E+03  0.23725233907E+03  0.00000000000E+00 0.  1.
<mgrwt>
<rscale>  0 0.12436764E+04</rscale>
<asrwt>0</asrwt>
<pdfrwt beam="1">  1        1 0.11176620E+00 0.12436764E+04</pdfrwt>
<pdfrwt beam="2">  1       -1 0.81887500E-01 0.12436764E+04</pdfrwt>
<totfact> 0.37697557E+01</totfact>
</mgrwt>
</event>
<event>
12    1  0.1496989E-007  0.1272581E+04  0.7818608E-02  0.9051595E-01
          2   -1    0    0  501    0  0.00000000000E+00  0.00000000000E+00  0.23781874819E+04  0.23781874819E+04  0.00000000000E+00 0. -1.
         -2   -1    0    0    0  501 -0.00000000000E+00 -0.00000000000E+00 -0.17024136934E+03  0.17024136934E+03  0.00000000000E+00 0.  1.
         23    2    1    2    0    0  0.16784610632E+03  0.12773097623E+03  0.10024673427E+04  0.10284870513E+04  0.91418399380E+02 0.  0.
        254    2    1    2    0    0 -0.16784610632E+03 -0.12773097623E+03  0.12054787698E+04  0.15199417999E+04  0.90141915499E+03 0.  0.
        -24    2    4    4    0    0  0.23843310245E+03 -0.35300017285E+03  0.73949068238E+03  0.85700297937E+03  0.78410273208E+02 0.  0.
         24    2    4    4    0    0 -0.40627920877E+03  0.22526919662E+03  0.46598808741E+03  0.66293882053E+03  0.80833011410E+02 0.  0.
         13    1    3    3    0    0  0.15763393839E+03  0.12594882261E+03  0.99608063333E+03  0.10163110708E+04  0.00000000000E+00 0. -1.
        -13    1    3    3    0    0  0.10212167927E+02  0.17821536197E+01  0.63867094204E+01  0.12175980556E+02  0.00000000000E+00 0.  1.
          2    1    6    6  502    0 -0.26618180834E+03  0.16400763120E+03  0.26143933195E+03  0.40755586424E+03  0.00000000000E+00 0. -1.
          3    1    5    5  503    0  0.17543350151E+03 -0.25038654182E+03  0.59472538233E+03  0.66870667274E+03  0.00000000000E+00 0. -1.
         -4    1    5    5    0  503  0.62999600943E+02 -0.10261363104E+03  0.14476530004E+03  0.18829630663E+03  0.00000000000E+00 0.  1.
         -1    1    6    6    0  502 -0.14009740043E+03  0.61261565422E+02  0.20454875546E+03  0.25538295630E+03  0.00000000000E+00 0.  1.
<mgrwt>
<rscale>  0 0.12725815E+04</rscale>
<asrwt>0</asrwt>
<pdfrwt beam="1">  1        2 0.36587497E+00 0.12725815E+04</pdfrwt>
<pdfrwt beam="2">  1       -2 0.26190982E-01 0.12725815E+04</pdfrwt>
<totfact> 0.53160031E+01</totfact>
</mgrwt>
</event>
<event>
12    1  0.1496989E-007  0.1946230E+04  0.7818608E-02  0.8632181E-01
          2   -1    0    0  501    0  0.00000000000E+00  0.00000000000E+00  0.16083749111E+04  0.16083749111E+04  0.00000000000E+00 0. -1.
         -2   -1    0    0    0  501 -0.00000000000E+00 -0.00000000000E+00 -0.58876399204E+03  0.58876399204E+03  0.00000000000E+00 0.  1.
         23    2    1    2    0    0 -0.28049183891E+03  0.67168089900E+03  0.67013532734E+03  0.99369357916E+03  0.92274972388E+02 0.  0.
        254    2    1    2    0    0  0.28049183891E+03 -0.67168089900E+03  0.34947559169E+03  0.12034453240E+04  0.89236570799E+03 0.  0.
        -24    2    4    4    0    0  0.53151431688E+03 -0.67072942509E+03  0.15000859763E+03  0.87260864169E+03  0.80980438829E+02 0.  0.
         24    2    4    4    0    0 -0.25102247797E+03 -0.95147391290E+00  0.19946699406E+03  0.33083668226E+03  0.81563710447E+02 0.  0.
         11    1    3    3    0    0 -0.85725313229E+02  0.31061507107E+03  0.26620635649E+03  0.41796695556E+03  0.00000000000E+00 0. -1.
        -11    1    3    3    0    0 -0.19476652568E+03  0.36106582793E+03  0.40392897086E+03  0.57572662360E+03  0.00000000000E+00 0.  1.
          2    1    6    6  502    0 -0.21608299594E+03 -0.29275848347E+02  0.15456106432E+03  0.26727899101E+03  0.00000000000E+00 0. -1.
          3    1    5    5  503    0  0.47159313846E+03 -0.58287935560E+03  0.15704461235E+03  0.76603618824E+03  0.00000000000E+00 0. -1.
         -4    1    5    5    0  503  0.59921178419E+02 -0.87850069486E+02 -0.70360147201E+01  0.10657245345E+03  0.00000000000E+00 0.  1.
         -1    1    6    6    0  502 -0.34939482032E+02  0.28324374434E+02  0.44905929744E+02  0.63557691257E+02  0.00000000000E+00 0.  1.
<mgrwt>
<rscale>  0 0.19462304E+04</rscale>
<asrwt>0</asrwt>
<pdfrwt beam="1">  1        2 0.24744229E+00 0.19462304E+04</pdfrwt>
<pdfrwt beam="2">  1       -2 0.90579076E-01 0.19462304E+04</pdfrwt>
<totfact> 0.10719049E+01</totfact>
</mgrwt>
</event>
<event>
12    1  0.1496989E-007  0.1332918E+04  0.7818608E-02  0.9003860E-01
          1   -1    0    0  501    0  0.00000000000E+00  0.00000000000E+00  0.14376266442E+04  0.14376266442E+04  0.00000000000E+00 0. -1.
         -1   -1    0    0    0  501 -0.00000000000E+00 -0.00000000000E+00 -0.30895904849E+03  0.30895904849E+03  0.00000000000E+00 0.  1.
         23    2    1    2    0    0  0.15690159920E+03  0.81258618854E+02  0.66959653120E+03  0.69862935713E+03  0.92208400202E+02 0.  0.
        254    2    1    2    0    0 -0.15690159920E+03 -0.81258618854E+02  0.45907106450E+03  0.10479563356E+04  0.92533516307E+03 0.  0.
        -24    2    4    4    0    0 -0.41537855393E+03  0.25090583266E+03  0.35685568431E+03  0.60775984773E+03  0.80826809660E+02 0.  0.
         24    2    4    4    0    0  0.25847695473E+03 -0.33216445151E+03  0.10221538018E+03  0.44019648783E+03  0.78621911532E+02 0.  0.
         13    1    3    3    0    0  0.69460421985E+02  0.83860879494E+02  0.31084601649E+03  0.32936703432E+03  0.00000000000E+00 0. -1.
        -13    1    3    3    0    0  0.87441177210E+02 -0.26022606398E+01  0.35875051472E+03  0.36926232280E+03  0.00000000000E+00 0.  1.
          4    1    6    6  502    0  0.23879903871E+02 -0.81121316217E+02  0.19322872329E+02  0.86742672017E+02  0.00000000000E+00 0. -1.
          3    1    5    5  503    0 -0.12610496700E+02  0.22415419125E+02  0.50443763508E+01  0.26209184923E+02  0.00000000000E+00 0. -1.
         -4    1    5    5    0  503 -0.40276805723E+03  0.22849041353E+03  0.35181130796E+03  0.58155066281E+03  0.00000000000E+00 0.  1.
         -3    1    6    6    0  502  0.23459705086E+03 -0.25104313529E+03  0.82892507854E+02  0.35345381581E+03  0.00000000000E+00 0.  1.
<mgrwt>
<rscale>  0 0.13329182E+04</rscale>
<asrwt>0</asrwt>
<pdfrwt beam="1">  1        1 0.22117333E+00 0.13329182E+04</pdfrwt>
<pdfrwt beam="2">  1       -1 0.47532162E-01 0.13329182E+04</pdfrwt>
<totfact> 0.31305553E+01</totfact>
</mgrwt>
</event>
<event>
12    1  0.1496989E-007  0.1451662E+04  0.7818608E-02  0.8917249E-01
         -1   -1    0    0    0  501 -0.00000000000E+00  0.00000000000E+00  0.45964887251E+03  0.45964887251E+03  0.00000000000E+00 0. -1.
          1   -1    0    0  501    0  0.00000000000E+00 -0.00000000000E+00 -0.11461596644E+04  0.11461596644E+04  0.00000000000E+00 0.  1.
         23    2    1    2    0    0 -0.26731235894E+03  0.11955912103E+03  0.15146800623E+03  0.34286701648E+03  0.94153881546E+02 0.  0.
        254    2    1    2    0    0  0.26731235894E+03 -0.11955912103E+03 -0.83797879815E+03  0.12629415205E+04  0.89836659405E+03 0.  0.
        -24    2    4    4    0    0  0.50772339134E+02  0.32738015250E+03 -0.74845841973E+02  0.34894877657E+03  0.80048447427E+02 0.  0.
         24    2    4    4    0    0  0.21654001981E+03 -0.44693927353E+03 -0.76313295617E+03  0.91399274389E+03  0.79790555088E+02 0.  0.
         13    1    3    3    0    0 -0.16714801161E+03  0.62531714333E+02  0.40774676555E+02  0.18306077496E+03  0.00000000000E+00 0.  1.
        -13    1    3    3    0    0 -0.10016434734E+03  0.57027406692E+02  0.11069332968E+03  0.15980624151E+03  0.00000000000E+00 0. -1.
          2    1    6    6  502    0  0.17099443928E+03 -0.40309180845E+03 -0.63806245291E+03  0.77385127649E+03  0.00000000000E+00 0. -1.
          3    1    5    5  503    0  0.48017680089E+02  0.27369778656E+03 -0.91696421836E+02  0.29261648919E+03  0.00000000000E+00 0. -1.
         -4    1    5    5    0  503  0.27546590451E+01  0.53682365942E+02  0.16850579863E+02  0.56332287379E+02  0.00000000000E+00 0.  1.
         -1    1    6    6    0  502  0.45545580532E+02 -0.43847465083E+02 -0.12507050326E+03  0.14014146740E+03  0.00000000000E+00 0.  1.
<mgrwt>
<rscale>  0 0.14516625E+04</rscale>
<asrwt>0</asrwt>
<pdfrwt beam="1">  1        1 0.17633226E+00 0.14516625E+04</pdfrwt>
<pdfrwt beam="2">  1       -1 0.70715211E-01 0.14516625E+04</pdfrwt>
<totfact> 0.22976033E+01</totfact>
</mgrwt>
</event>
<event>
12    1  0.1496989E-007  0.3322348E+04  0.7818608E-02  0.8157232E-01
         -1   -1    0    0    0  501 -0.00000000000E+00  0.00000000000E+00  0.95068673184E+03  0.95068673184E+03  0.00000000000E+00 0.  1.
          1   -1    0    0  501    0  0.00000000000E+00 -0.00000000000E+00 -0.29026377595E+04  0.29026377595E+04  0.00000000000E+00 0. -1.
         23    2    1    2    0    0  0.88442491297E+03  0.12371999940E+04 -0.63521703027E+03  0.16502209246E+04  0.82808046964E+02 0.  0.
        254    2    1    2    0    0 -0.88442491297E+03 -0.12371999940E+04 -0.13167339974E+04  0.22031035667E+04  0.89833493433E+03 0.  0.
        -24    2    4    4    0    0  0.14009239523E+03 -0.38393112410E+03 -0.43686749408E+03  0.60333117017E+03  0.78270724153E+02 0.  0.
         24    2    4    4    0    0 -0.10245173082E+04 -0.85326886986E+03 -0.87986650329E+03  0.15997723966E+04  0.86041723468E+02 0.  0.
         11    1    3    3    0    0  0.58591263204E+03  0.78315158045E+03 -0.44449600548E+03  0.10743354733E+04  0.00000000000E+00 0. -1.
        -11    1    3    3    0    0  0.29851228092E+03  0.45404841351E+03 -0.19072102479E+03  0.57588545126E+03  0.00000000000E+00 0.  1.
          4    1    6    6  502    0 -0.90970820263E+03 -0.75113791772E+03 -0.80955300254E+03  0.14307876325E+04  0.00000000000E+00 0. -1.
          3    1    5    5  503    0  0.14795750197E+03 -0.37853983250E+03 -0.42421774862E+03  0.58749002156E+03  0.00000000000E+00 0. -1.
         -4    1    5    5    0  503 -0.78651067480E+01 -0.53912916012E+01 -0.12649745455E+02  0.15841148612E+02  0.00000000000E+00 0.  1.
         -3    1    6    6    0  502 -0.11480910556E+03 -0.10213095214E+03 -0.70313500750E+02  0.16898476408E+03  0.00000000000E+00 0.  1.
<mgrwt>
<rscale>  0 0.33223481E+04</rscale>
<asrwt>0</asrwt>
<pdfrwt beam="1">  1        1 0.44655965E+00 0.33223481E+04</pdfrwt>
<pdfrwt beam="2">  1       -1 0.14625950E+00 0.33223481E+04</pdfrwt>
<totfact> 0.21732191E-01</totfact>
</mgrwt>
</event>
<event>
12    1  0.1496989E-007  0.1682229E+04  0.7818608E-02  0.8771565E-01
         -2   -1    0    0    0  501 -0.00000000000E+00  0.00000000000E+00  0.19676226774E+03  0.19676226774E+03  0.00000000000E+00 0. -1.
          2   -1    0    0  501    0  0.00000000000E+00 -0.00000000000E+00 -0.35955753749E+04  0.35955753749E+04  0.00000000000E+00 0.  1.
         23    2    1    2    0    0  0.24257461724E+03 -0.54669637773E+03 -0.11319126269E+04  0.12834233143E+04  0.90718435488E+02 0.  0.
        254    2    1    2    0    0 -0.24257461724E+03  0.54669637773E+03 -0.22669004802E+04  0.25089143283E+04  0.89336103836E+03 0.  0.
        -24    2    4    4    0    0  0.21470680919E+03  0.46864212722E+03 -0.16662463060E+04  0.17458794064E+04  0.77418938501E+02 0.  0.
         24    2    4    4    0    0 -0.45728142643E+03  0.78054250516E+02 -0.60065417426E+03  0.76303492189E+03  0.78981554815E+02 0.  0.
         13    1    3    3    0    0  0.15390959457E+03 -0.32272373880E+03 -0.76603655485E+03  0.84537020189E+03  0.00000000000E+00 0.  1.
        -13    1    3    3    0    0  0.88665022671E+02 -0.22397263894E+03 -0.36587607203E+03  0.43805311245E+03  0.00000000000E+00 0. -1.
          4    1    6    6  502    0 -0.89399631857E+02  0.31597061239E+02 -0.17073509520E+03  0.19529757087E+03  0.00000000000E+00 0. -1.
          3    1    5    5  503    0  0.89470238400E+01  0.19181117411E+02 -0.13968107248E+03  0.14127549862E+03  0.00000000000E+00 0. -1.
         -4    1    5    5    0  503  0.20575978535E+03  0.44946100981E+03 -0.15265652335E+04  0.16046039078E+04  0.00000000000E+00 0.  1.
         -3    1    6    6    0  502 -0.36788179457E+03  0.46457189277E+02 -0.42991907906E+03  0.56773735102E+03  0.00000000000E+00 0.  1.
<mgrwt>
<rscale>  0 0.16822290E+04</rscale>
<asrwt>0</asrwt>
<pdfrwt beam="1">  1        2 0.55316546E+00 0.16822290E+04</pdfrwt>
<pdfrwt beam="2">  1       -2 0.30271117E-01 0.16822290E+04</pdfrwt>
<totfact> 0.67596856E+00</totfact>
</mgrwt>
</event>
<event>
12    1  0.1496989E-007  0.4106823E+04  0.7818608E-02  0.7983337E-01
          1   -1    0    0  501    0  0.00000000000E+00  0.00000000000E+00  0.23930534056E+04  0.23930534056E+04  0.00000000000E+00 0. -1.
         -1   -1    0    0    0  501 -0.00000000000E+00 -0.00000000000E+00 -0.17619742537E+04  0.17619742537E+04  0.00000000000E+00 0.  1.
         23    2    1    2    0    0  0.91262561824E+03  0.44436022621E+03  0.19903534750E+04  0.22361533706E+04  0.92376468324E+02 0.  0.
        254    2    1    2    0    0 -0.91262561824E+03 -0.44436022621E+03 -0.13592743232E+04  0.19188742887E+04  0.89672198610E+03 0.  0.
        -24    2    4    4    0    0 -0.52028413679E+03 -0.55991832214E+03 -0.38509046597E+03  0.85909162588E+03  0.74428786165E+02 0.  0.
         24    2    4    4    0    0 -0.39234148145E+03  0.11555809593E+03 -0.97418385719E+03  0.10597826628E+04  0.82580827781E+02 0.  0.
         13    1    3    3    0    0  0.32473936049E+02  0.76587207751E+00  0.46784732470E+02  0.56955722055E+02  0.00000000000E+00 0.  1.
        -13    1    3    3    0    0  0.88015168220E+03  0.44359435414E+03  0.19435687425E+04  0.21791976486E+04  0.00000000000E+00 0. -1.
          2    1    6    6  502    0 -0.14223155101E+02  0.99079101211E+01 -0.13492855857E+02  0.21966383024E+02  0.00000000000E+00 0. -1.
          3    1    5    5  503    0 -0.25277800748E+03 -0.31644976342E+03 -0.17922569449E+03  0.44289843464E+03  0.00000000000E+00 0. -1.
         -4    1    5    5    0  503 -0.26750612931E+03 -0.24346855872E+03 -0.20586477147E+03  0.41619319124E+03  0.00000000000E+00 0.  1.
         -1    1    6    6    0  502 -0.37811832635E+03  0.10565018580E+03 -0.96069100134E+03  0.10378162798E+04  0.00000000000E+00 0.  1.
<mgrwt>
<rscale>  0 0.41068229E+04</rscale>
<asrwt>0</asrwt>
<pdfrwt beam="1">  1        1 0.36816206E+00 0.41068229E+04</pdfrwt>
<pdfrwt beam="2">  1       -1 0.27107296E+00 0.41068229E+04</pdfrwt>
<totfact> 0.63372907E-02</totfact>
</mgrwt>
</event>
<event>
12    1  0.1496989E-007  0.1476901E+04  0.7818608E-02  0.8899961E-01
         -2   -1    0    0    0  501 -0.00000000000E+00  0.00000000000E+00  0.88996871894E+03  0.88996871894E+03  0.00000000000E+00 0. -1.
          2   -1    0    0  501    0  0.00000000000E+00 -0.00000000000E+00 -0.61272810414E+03  0.61272810414E+03  0.00000000000E+00 0.  1.
         23    2    1    2    0    0  0.18116257445E+03  0.15992949307E+03  0.47947395679E+03  0.54554988048E+03  0.96602669353E+02 0.  0.
        254    2    1    2    0    0 -0.18116257445E+03 -0.15992949307E+03 -0.20223334199E+03  0.95714694260E+03  0.90378903733E+03 0.  0.
        -24    2    4    4    0    0 -0.35654941765E+03 -0.45219333570E+03 -0.16931602367E+03  0.60568141937E+03  0.81091095812E+02 0.  0.
         24    2    4    4    0    0  0.17538684321E+03  0.29226384263E+03 -0.32917318321E+02  0.35146552324E+03  0.79156589720E+02 0.  0.
         13    1    3    3    0    0  0.52326569552E+02  0.20922266233E+02  0.20060999416E+03  0.20837509655E+03  0.00000000000E+00 0.  1.
        -13    1    3    3    0    0  0.12883600489E+03  0.13900722683E+03  0.27886396263E+03  0.33717478394E+03  0.00000000000E+00 0. -1.
          2    1    6    6  502    0  0.16965289246E+03  0.29218588224E+03 -0.42262868596E+02  0.34050087190E+03  0.00000000000E+00 0. -1.
          3    1    5    5  503    0 -0.33935344957E+03 -0.44394142099E+03 -0.17538457232E+03  0.58566585799E+03  0.00000000000E+00 0. -1.
         -4    1    5    5    0  503 -0.17195968084E+02 -0.82519147088E+01  0.60685486514E+01  0.20015561382E+02  0.00000000000E+00 0.  1.
         -1    1    6    6    0  502  0.57339507459E+01  0.77960391735E-01  0.93455502749E+01  0.10964651336E+02  0.00000000000E+00 0.  1.
<mgrwt>
<rscale>  0 0.14769006E+04</rscale>
<asrwt>0</asrwt>
<pdfrwt beam="1">  1        2 0.94265862E-01 0.14769006E+04</pdfrwt>
<pdfrwt beam="2">  1       -2 0.13691826E+00 0.14769006E+04</pdfrwt>
<totfact> 0.17795145E+01</totfact>
</mgrwt>
</event>
<event>
12    1  0.1496989E-007  0.1648681E+04  0.7818608E-02  0.8791187E-01
          2   -1    0    0  501    0  0.00000000000E+00  0.00000000000E+00  0.48712686177E+03  0.48712686177E+03  0.00000000000E+00 0.  1.
         -2   -1    0    0    0  501 -0.00000000000E+00 -0.00000000000E+00 -0.13949901184E+04  0.13949901184E+04  0.00000000000E+00 0. -1.
         23    2    1    2    0    0 -0.45374869083E+03 -0.35647980824E+03 -0.28337661223E+03  0.64914659842E+03  0.90129205936E+02 0.  0.
        254    2    1    2    0    0  0.45374869083E+03  0.35647980824E+03 -0.62448664436E+03  0.12329703817E+04  0.89289790296E+03 0.  0.
        -24    2    4    4    0    0 -0.25539584530E+03  0.80277767240E+02 -0.70941237437E+02  0.28867023738E+03  0.81402021296E+02 0.  0.
         24    2    4    4    0    0  0.70914453613E+03  0.27620204100E+03 -0.55354540693E+03  0.94430014434E+03  0.78209363300E+02 0.  0.
         13    1    3    3    0    0 -0.42460042610E+03 -0.32388642962E+03 -0.28513756160E+03  0.60538530719E+03  0.00000000000E+00 0.  1.
        -13    1    3    3    0    0 -0.29148264734E+02 -0.32593378622E+02  0.17609493621E+01  0.43761291224E+02  0.00000000000E+00 0. -1.
          2    1    6    6  502    0  0.45791571906E+03  0.18571392233E+03 -0.31321467613E+03  0.58504692124E+03  0.00000000000E+00 0. -1.
          1    1    5    5  503    0 -0.15776535100E+03  0.75811647670E+02 -0.75964609821E+02  0.19080863147E+03  0.00000000000E+00 0. -1.
         -2    1    5    5    0  503 -0.97630494298E+02  0.44661195703E+01  0.50233723834E+01  0.97861605908E+02  0.00000000000E+00 0.  1.
         -1    1    6    6    0  502  0.25122881706E+03  0.90488118670E+02 -0.24033073079E+03  0.35925322310E+03  0.00000000000E+00 0.  1.
<mgrwt>
<rscale>  0 0.16486809E+04</rscale>
<asrwt>0</asrwt>
<pdfrwt beam="1">  1        2 0.74942595E-01 0.16486809E+04</pdfrwt>
<pdfrwt beam="2">  1       -2 0.21461386E+00 0.16486809E+04</pdfrwt>
<totfact> 0.64808847E+00</totfact>
</mgrwt>
</event>
<event>
12    1  0.1496989E-007  0.1273222E+04  0.7818608E-02  0.9051074E-01
          2   -1    0    0  501    0  0.00000000000E+00  0.00000000000E+00  0.11082249379E+04  0.11082249379E+04  0.00000000000E+00 0. -1.
         -2   -1    0    0    0  501 -0.00000000000E+00 -0.00000000000E+00 -0.36569596331E+03  0.36569596331E+03  0.00000000000E+00 0.  1.
         23    2    1    2    0    0 -0.84653374114E+02  0.37507954889E+03  0.32656864923E+03  0.51335204685E+03  0.95038832069E+02 0.  0.
        254    2    1    2    0    0  0.84653374114E+02 -0.37507954889E+03  0.41596032534E+03  0.96056885434E+03  0.77576972739E+03 0.  0.
        -24    2    4    4    0    0  0.53944221081E+02  0.17035953195E+03 -0.86649131507E+02  0.21392804527E+03  0.79528532294E+02 0.  0.
         24    2    4    4    0    0  0.30709153032E+02 -0.54543908084E+03  0.50260945685E+03  0.74664080907E+03  0.80058657710E+02 0.  0.
         13    1    3    3    0    0 -0.39696603630E+01  0.11357348752E+01  0.27408589349E+02  0.27717843841E+02  0.00000000000E+00 0.  1.
        -13    1    3    3    0    0 -0.80683713751E+02  0.37394381401E+03  0.29916005989E+03  0.48563420301E+03  0.00000000000E+00 0. -1.
          4    1    6    6  502    0  0.15200642438E+02 -0.26717829675E+03  0.19219472437E+03  0.32947551329E+03  0.00000000000E+00 0. -1.
          3    1    5    5  503    0 -0.68146453202E+01  0.54117016866E+01 -0.26893949021E+02  0.28266772011E+02  0.00000000000E+00 0. -1.
         -4    1    5    5    0  503  0.60758866401E+02  0.16494783026E+03 -0.59755182486E+02  0.18566127326E+03  0.00000000000E+00 0.  1.
         -3    1    6    6    0  502  0.15508510594E+02 -0.27826078409E+03  0.31041473248E+03  0.41716529578E+03  0.00000000000E+00 0.  1.
<mgrwt>
<rscale>  0 0.12732217E+04</rscale>
<asrwt>0</asrwt>
<pdfrwt beam="1">  1        2 0.17049614E+00 0.12732217E+04</pdfrwt>
<pdfrwt beam="2">  1       -2 0.56260918E-01 0.12732217E+04</pdfrwt>
<totfact> 0.62699322E+01</totfact>
</mgrwt>
</event>
<event>
12    1  0.1496989E-007  0.4469115E+04  0.7818608E-02  0.7916066E-01
          1   -1    0    0  501    0  0.00000000000E+00  0.00000000000E+00  0.27398503477E+04  0.27398503477E+04  0.00000000000E+00 0. -1.
         -1   -1    0    0    0  501 -0.00000000000E+00 -0.00000000000E+00 -0.18224526537E+04  0.18224526537E+04  0.00000000000E+00 0.  1.
         23    2    1    2    0    0 -0.97299755528E+03 -0.14987324805E+04  0.16577346634E+04  0.24392050544E+04  0.93347694659E+02 0.  0.
        254    2    1    2    0    0  0.97299755528E+03  0.14987324805E+04 -0.74033696944E+03  0.21230979470E+04  0.87551286309E+03 0.  0.
        -24    2    4    4    0    0  0.10495540587E+04  0.91185822033E+03 -0.50940229351E+03  0.14827905210E+04  0.78280882143E+02 0.  0.
         24    2    4    4    0    0 -0.76556503439E+02  0.58687426017E+03 -0.23093467593E+03  0.64030742593E+03  0.79877904854E+02 0.  0.
         11    1    3    3    0    0 -0.41793597342E+03 -0.58033410459E+03  0.70401590051E+03  0.10035419966E+04  0.00000000000E+00 0.  1.
        -11    1    3    3    0    0 -0.55506158186E+03 -0.91839837591E+03  0.95371876294E+03  0.14356630577E+04  0.00000000000E+00 0. -1.
          2    1    6    6  502    0 -0.92191037071E+02  0.46052306663E+03 -0.17423368029E+03  0.50093717926E+03  0.00000000000E+00 0. -1.
          3    1    5    5  503    0  0.97122916384E+03  0.86905482490E+03 -0.47766022354E+03  0.13880567951E+04  0.00000000000E+00 0. -1.
         -4    1    5    5    0  503  0.78324894887E+02  0.42803395434E+02 -0.31742069963E+02  0.94733725912E+02  0.00000000000E+00 0.  1.
         -1    1    6    6    0  502  0.15634533631E+02  0.12635119354E+03 -0.56700995640E+02  0.13937024667E+03  0.00000000000E+00 0.  1.
<mgrwt>
<rscale>  0 0.44691151E+04</rscale>
<asrwt>0</asrwt>
<pdfrwt beam="1">  1        1 0.42151544E+00 0.44691151E+04</pdfrwt>
<pdfrwt beam="2">  1       -1 0.28037733E+00 0.44691151E+04</pdfrwt>
<totfact> 0.30661567E-02</totfact>
</mgrwt>
</event>
<event>
12    1  0.1496989E-007  0.1150235E+04  0.7818608E-02  0.9157567E-01
          2   -1    0    0  501    0  0.00000000000E+00  0.00000000000E+00  0.81881851628E+03  0.81881851628E+03  0.00000000000E+00 0.  1.
         -2   -1    0    0    0  501 -0.00000000000E+00 -0.00000000000E+00 -0.40394823296E+03  0.40394823296E+03  0.00000000000E+00 0. -1.
         23    2    1    2    0    0  0.85801680583E+02 -0.83378547655E+02 -0.78039183443E+02  0.18673330542E+03  0.12027178639E+03 0.  0.
        254    2    1    2    0    0 -0.85801680583E+02  0.83378547655E+02  0.49290946676E+03  0.10360334438E+04  0.90337790746E+03 0.  0.
        -24    2    4    4    0    0 -0.28070762564E+02  0.46713971578E+03  0.11568421379E+03  0.48902555184E+03  0.82192890595E+02 0.  0.
         24    2    4    4    0    0 -0.57730918019E+02 -0.38376116813E+03  0.37722525297E+03  0.54700789197E+03  0.79455958524E+02 0.  0.
         13    1    3    3    0    0  0.28766711745E+02 -0.53699721231E+02 -0.10142791148E+03  0.11831654573E+03  0.00000000000E+00 0. -1.
        -13    1    3    3    0    0  0.57034968837E+02 -0.29678826424E+02  0.23388728039E+02  0.68416759697E+02  0.00000000000E+00 0.  1.
          2    1    6    6  502    0 -0.81090874243E+01 -0.10170458420E+03  0.15008172775E+03  0.18147755991E+03  0.00000000000E+00 0. -1.
          3    1    5    5  503    0  0.10451031434E+01  0.67813977425E+02 -0.11785331549E+02  0.68838374578E+02  0.00000000000E+00 0. -1.
         -4    1    5    5    0  503 -0.29115865707E+02  0.39932573836E+03  0.12746954534E+03  0.42018717726E+03  0.00000000000E+00 0.  1.
         -1    1    6    6    0  502 -0.49621830595E+02 -0.28205658393E+03  0.22714352521E+03  0.36553033206E+03  0.00000000000E+00 0.  1.
<mgrwt>
<rscale>  0 0.11502353E+04</rscale>
<asrwt>0</asrwt>
<pdfrwt beam="1">  1        2 0.12597208E+00 0.11502353E+04</pdfrwt>
<pdfrwt beam="2">  1       -2 0.62145882E-01 0.11502353E+04</pdfrwt>
<totfact> 0.79469630E+01</totfact>
</mgrwt>
</event>
<event>
12    1  0.1496989E-007  0.1245314E+04  0.7818608E-02  0.9074092E-01
          1   -1    0    0  501    0  0.00000000000E+00  0.00000000000E+00  0.21170484924E+04  0.21170484924E+04  0.00000000000E+00 0. -1.
         -1   -1    0    0    0  501 -0.00000000000E+00 -0.00000000000E+00 -0.18313314864E+03  0.18313314864E+03  0.00000000000E+00 0.  1.
         23    2    1    2    0    0  0.21109140285E+03  0.13321392554E+03  0.21195850730E+03  0.33987369320E+03  0.91006528326E+02 0.  0.
        254    2    1    2    0    0 -0.21109140285E+03 -0.13321392554E+03  0.17219568364E+04  0.19603079478E+04  0.90297639692E+03 0.  0.
        -24    2    4    4    0    0  0.19079489435E+03  0.28344285897E+03  0.58769481515E+03  0.68431964256E+03  0.78521534749E+02 0.  0.
         24    2    4    4    0    0 -0.40188629720E+03 -0.41665678451E+03  0.11342620213E+04  0.12759883052E+04  0.80500622859E+02 0.  0.
         13    1    3    3    0    0  0.20797605209E+03  0.13470409550E+03  0.21984971736E+03  0.33125991277E+03  0.00000000000E+00 0. -1.
        -13    1    3    3    0    0  0.31153507540E+01 -0.14901699575E+01 -0.78912100661E+01  0.86137804204E+01  0.00000000000E+00 0.  1.
          4    1    6    6  502    0 -0.28044864122E+03 -0.26189574288E+03  0.81814588384E+03  0.90366116867E+03  0.00000000000E+00 0. -1.
          3    1    5    5  503    0  0.12399850096E+03  0.15323661492E+03  0.26766022274E+03  0.33241402382E+03  0.00000000000E+00 0. -1.
         -4    1    5    5    0  503  0.66796393385E+02  0.13020624405E+03  0.32003459241E+03  0.35190561874E+03  0.00000000000E+00 0.  1.
         -1    1    6    6    0  502 -0.12143765597E+03 -0.15476104163E+03  0.31611613742E+03  0.37232713658E+03  0.00000000000E+00 0.  1.
<mgrwt>
<rscale>  0 0.12453140E+04</rscale>
<asrwt>0</asrwt>
<pdfrwt beam="1">  1        1 0.32569975E+00 0.12453140E+04</pdfrwt>
<pdfrwt beam="2">  1       -1 0.28174332E-01 0.12453140E+04</pdfrwt>
<totfact> 0.27943448E+01</totfact>
</mgrwt>
</event>
<event>
12    1  0.1496989E-007  0.2393482E+04  0.7818608E-02  0.8441948E-01
         -2   -1    0    0    0  501 -0.00000000000E+00  0.00000000000E+00  0.49365302677E+03  0.49365302677E+03  0.00000000000E+00 0.  1.
          2   -1    0    0  501    0  0.00000000000E+00 -0.00000000000E+00 -0.29012069430E+04  0.29012069430E+04  0.00000000000E+00 0. -1.
         23    2    1    2    0    0 -0.13227608577E+03 -0.95101669711E+03 -0.15405322711E+04  0.18176358292E+04  0.92901067516E+02 0.  0.
        254    2    1    2    0    0  0.13227608577E+03  0.95101669711E+03 -0.86702164509E+03  0.15772241405E+04  0.90220825492E+03 0.  0.
        -24    2    4    4    0    0  0.10312976290E+03  0.11148981997E+04 -0.67204318515E+03  0.13085278068E+04  0.83481942374E+02 0.  0.
         24    2    4    4    0    0  0.29146322869E+02 -0.16388150259E+03 -0.19497845994E+03  0.26869633372E+03  0.80464059585E+02 0.  0.
         11    1    3    3    0    0 -0.20589499885E+02 -0.36225902842E+03 -0.64607123844E+03  0.74098824304E+03  0.00000000000E+00 0. -1.
        -11    1    3    3    0    0 -0.11168658588E+03 -0.58875766870E+03 -0.89446103267E+03  0.10766475862E+04  0.00000000000E+00 0.  1.
          2    1    6    6  502    0 -0.12944617124E+02 -0.12536364324E+03 -0.11617398255E+03  0.17140595199E+03  0.00000000000E+00 0. -1.
          3    1    5    5  503    0  0.69235751749E+02  0.97462499245E+03 -0.60665683727E+03  0.11500956410E+04  0.00000000000E+00 0. -1.
         -4    1    5    5    0  503  0.33894011150E+02  0.14027320725E+03 -0.65386347876E+02  0.15843216578E+03  0.00000000000E+00 0.  1.
         -1    1    6    6    0  502  0.42090939993E+02 -0.38517859352E+02 -0.78804477398E+02  0.97290381727E+02  0.00000000000E+00 0.  1.
<mgrwt>
<rscale>  0 0.23934825E+04</rscale>
<asrwt>0</asrwt>
<pdfrwt beam="1">  1        2 0.44633952E+00 0.23934825E+04</pdfrwt>
<pdfrwt beam="2">  1       -2 0.75946621E-01 0.23934825E+04</pdfrwt>
<totfact> 0.28030510E+00</totfact>
</mgrwt>
</event>
<event>
12    1  0.1496989E-007  0.1242662E+04  0.7818608E-02  0.9076313E-01
         -1   -1    0    0    0  501 -0.00000000000E+00  0.00000000000E+00  0.17790777761E+03  0.17790777761E+03  0.00000000000E+00 0.  1.
          1   -1    0    0  501    0  0.00000000000E+00 -0.00000000000E+00 -0.21699554239E+04  0.21699554239E+04  0.00000000000E+00 0. -1.
         23    2    1    2    0    0  0.96544878641E+02 -0.41611633920E+02  0.20621628435E+02  0.14067074245E+03  0.91162297876E+02 0.  0.
        254    2    1    2    0    0 -0.96544878641E+02  0.41611633920E+02 -0.20126692747E+04  0.22071924590E+04  0.89989360496E+03 0.  0.
        -24    2    4    4    0    0 -0.46218625561E+03 -0.19322702589E+02 -0.14908939094E+04  0.15629848546E+04  0.78533464744E+02 0.  0.
         24    2    4    4    0    0  0.36564137697E+03  0.60934336509E+02 -0.52177536533E+03  0.64420760441E+03  0.73125206294E+02 0.  0.
         13    1    3    3    0    0  0.25176569513E+02 -0.46792656123E+02  0.40032834056E+02  0.66528491055E+02  0.00000000000E+00 0.  1.
        -13    1    3    3    0    0  0.71368309128E+02  0.51810222022E+01 -0.19411205621E+02  0.74142251400E+02  0.00000000000E+00 0. -1.
          2    1    6    6  502    0  0.10683651678E+02  0.32568389976E+01 -0.48714368854E+02  0.49978366782E+02  0.00000000000E+00 0. -1.
          1    1    5    5  503    0 -0.31997398187E+02  0.18581716305E+02 -0.10225425635E+03  0.10874303019E+03  0.00000000000E+00 0. -1.
         -2    1    5    5    0  503 -0.43018885743E+03 -0.37904418894E+02 -0.13886396530E+04  0.14542418244E+04  0.00000000000E+00 0.  1.
         -1    1    6    6    0  502  0.35495772529E+03  0.57677497511E+02 -0.47306099647E+03  0.59422923762E+03  0.00000000000E+00 0.  1.
<mgrwt>
<rscale>  0 0.12426616E+04</rscale>
<asrwt>0</asrwt>
<pdfrwt beam="1">  1        1 0.33383932E+00 0.12426616E+04</pdfrwt>
<pdfrwt beam="2">  1       -1 0.27370425E-01 0.12426616E+04</pdfrwt>
<totfact> 0.27064054E+01</totfact>
</mgrwt>
</event>
<event>
12    1  0.1496989E-007  0.2534071E+04  0.7818608E-02  0.8390947E-01
         -2   -1    0    0    0  501 -0.00000000000E+00  0.00000000000E+00  0.91620189128E+03  0.91620189128E+03  0.00000000000E+00 0.  1.
          2   -1    0    0  501    0  0.00000000000E+00 -0.00000000000E+00 -0.17522105089E+04  0.17522105089E+04  0.00000000000E+00 0. -1.
         23    2    1    2    0    0 -0.53127052561E+03 -0.14552016128E+03  0.64210219432E+03  0.85092322347E+03  0.91381702601E+02 0.  0.
        254    2    1    2    0    0  0.53127052561E+03  0.14552016128E+03 -0.14781108120E+04  0.18174891767E+04  0.90279058832E+03 0.  0.
        -24    2    4    4    0    0  0.72997035690E+03  0.50027453013E+02 -0.13770445252E+04  0.15613595419E+04  0.78946354108E+02 0.  0.
         24    2    4    4    0    0 -0.19869983129E+03  0.95492708265E+02 -0.10106628679E+03  0.25612963481E+03  0.82386377594E+02 0.  0.
         13    1    3    3    0    0 -0.26475789280E+02 -0.27804219794E+02  0.62535589677E+02  0.73380801526E+02  0.00000000000E+00 0. -1.
        -13    1    3    3    0    0 -0.50479473633E+03 -0.11771594148E+03  0.57956660464E+03  0.77754242194E+03  0.00000000000E+00 0.  1.
          4    1    6    6  502    0 -0.92201228915E+02  0.39819557789E+01 -0.59057329140E+02  0.10956591948E+03  0.00000000000E+00 0. -1.
          1    1    5    5  503    0  0.79856124185E+02  0.29205611714E+02 -0.17737352360E+03  0.19670113167E+03  0.00000000000E+00 0. -1.
         -2    1    5    5    0  503  0.65011423272E+03  0.20821841299E+02 -0.11996710016E+04  0.13646584103E+04  0.00000000000E+00 0.  1.
         -3    1    6    6    0  502 -0.10649860238E+03  0.91510752487E+02 -0.42008957653E+02  0.14656371533E+03  0.00000000000E+00 0.  1.
<mgrwt>
<rscale>  0 0.25340707E+04</rscale>
<asrwt>0</asrwt>
<pdfrwt beam="1">  1        2 0.26957085E+00 0.25340707E+04</pdfrwt>
<pdfrwt beam="2">  1       -2 0.14095414E+00 0.25340707E+04</pdfrwt>
<totfact> 0.28790665E+00</totfact>
</mgrwt>
</event>
<event>
12    1  0.1496989E-007  0.1614702E+04  0.7818608E-02  0.8811567E-01
          2   -1    0    0  501    0  0.00000000000E+00  0.00000000000E+00  0.25347997887E+04  0.25347997887E+04  0.00000000000E+00 0. -1.
         -2   -1    0    0    0  501 -0.00000000000E+00 -0.00000000000E+00 -0.25714665838E+03  0.25714665838E+03  0.00000000000E+00 0.  1.
         23    2    1    2    0    0  0.58508123553E+01 -0.22279086493E+03 -0.78551049629E+02  0.25334336129E+03  0.91337778671E+02 0.  0.
        254    2    1    2    0    0 -0.58508123553E+01  0.22279086493E+03  0.23562041799E+04  0.25386030858E+04  0.91822518376E+03 0.  0.
        -24    2    4    4    0    0  0.42478653798E+03 -0.28996857274E+02  0.12443111147E+04  0.13174501063E+04  0.77975713087E+02 0.  0.
         24    2    4    4    0    0 -0.43063735033E+03  0.25178772220E+03  0.11118930652E+04  0.12211529795E+04  0.77864152437E+02 0.  0.
         11    1    3    3    0    0  0.11669375313E+02 -0.22876739618E+03 -0.83305086910E+02  0.24374255554E+03  0.00000000000E+00 0.  1.
        -11    1    3    3    0    0 -0.58185629579E+01  0.59765312511E+01  0.47540372805E+01  0.96008057555E+01  0.00000000000E+00 0. -1.
          2    1    6    6  502    0 -0.41507730924E+01  0.10904232443E+02  0.55729184640E+02  0.56937450093E+02  0.00000000000E+00 0. -1.
          3    1    5    5  503    0  0.38452093265E+02  0.19754771128E+02  0.11201868234E+03  0.12007081099E+03  0.00000000000E+00 0. -1.
         -4    1    5    5    0  503  0.38633444471E+03 -0.48751628402E+02  0.11322924324E+04  0.11973792953E+04  0.00000000000E+00 0.  1.
         -1    1    6    6    0  502 -0.42648657724E+03  0.24088348976E+03  0.10561638806E+04  0.11642155294E+04  0.00000000000E+00 0.  1.
<mgrwt>
<rscale>  0 0.16147016E+04</rscale>
<asrwt>0</asrwt>
<pdfrwt beam="1">  1        2 0.38996918E+00 0.16147016E+04</pdfrwt>
<pdfrwt beam="2">  1       -2 0.39561026E-01 0.16147016E+04</pdfrwt>
<totfact> 0.19277891E+01</totfact>
</mgrwt>
</event>
<event>
12    1  0.1496989E-007  0.1776537E+04  0.7818608E-02  0.8718877E-01
          3   -1    0    0  501    0  0.00000000000E+00  0.00000000000E+00  0.17398290537E+04  0.17398290537E+04  0.00000000000E+00 0. -1.
         -3   -1    0    0    0  501 -0.00000000000E+00 -0.00000000000E+00 -0.45350495068E+03  0.45350495068E+03  0.00000000000E+00 0.  1.
         23    2    1    2    0    0  0.28587933916E+03 -0.55742510046E+03  0.22555226843E+03  0.67219638009E+03  0.92327722956E+02 0.  0.
        254    2    1    2    0    0 -0.28587933916E+03  0.55742510046E+03  0.10607718346E+04  0.15211376243E+04  0.89228529508E+03 0.  0.
        -24    2    4    4    0    0 -0.19504746609E+03  0.68403770039E+02 -0.10918289154E+03  0.24739089432E+03  0.80986177850E+02 0.  0.
         24    2    4    4    0    0 -0.90831873071E+02  0.48902133042E+03  0.11699547262E+04  0.12737467300E+04  0.79021390400E+02 0.  0.
         13    1    3    3    0    0  0.41182148802E+01  0.24278243175E+01 -0.23026129563E+01  0.53062275811E+01  0.00000000000E+00 0. -1.
        -13    1    3    3    0    0  0.28176112428E+03 -0.55985292478E+03  0.22785488138E+03  0.66689015251E+03  0.00000000000E+00 0.  1.
          2    1    6    6  502    0 -0.37316004306E+02  0.59626457907E+02  0.14357328001E+03  0.15987834560E+03  0.00000000000E+00 0. -1.
          1    1    5    5  503    0 -0.60032021959E+01 -0.13774891987E+02 -0.23206636744E+01  0.15204327204E+02  0.00000000000E+00 0. -1.
         -2    1    5    5    0  503 -0.18904426389E+03  0.82178662026E+02 -0.10686222787E+03  0.23218656711E+03  0.00000000000E+00 0.  1.
         -1    1    6    6    0  502 -0.53515868766E+02  0.42939487252E+03  0.10263814462E+04  0.11138683844E+04  0.00000000000E+00 0.  1.
<mgrwt>
<rscale>  0 0.17765372E+04</rscale>
<asrwt>0</asrwt>
<pdfrwt beam="1">  1        3 0.26766600E+00 0.17765372E+04</pdfrwt>
<pdfrwt beam="2">  1       -3 0.69769993E-01 0.17765372E+04</pdfrwt>
<totfact> 0.28532880E-01</totfact>
</mgrwt>
</event>
<event>
12    1  0.1496989E-007  0.2160263E+04  0.7818608E-02  0.8535152E-01
          2   -1    0    0  501    0  0.00000000000E+00  0.00000000000E+00  0.19326487189E+04  0.19326487189E+04  0.00000000000E+00 0.  1.
         -2   -1    0    0    0  501 -0.00000000000E+00 -0.00000000000E+00 -0.60367120566E+03  0.60367120566E+03  0.00000000000E+00 0. -1.
         23    2    1    2    0    0 -0.43239493308E+03  0.99293363763E+02 -0.35335939914E+03  0.57320021084E+03  0.82891896484E+02 0.  0.
        254    2    1    2    0    0  0.43239493308E+03 -0.99293363763E+02  0.16823369124E+04  0.19631197137E+04  0.90926177383E+03 0.  0.
        -24    2    4    4    0    0  0.41489231604E+03 -0.45652030099E+03  0.12514888880E+04  0.13974942228E+04  0.78862201713E+02 0.  0.
         24    2    4    4    0    0  0.17502617048E+02  0.35722693722E+03  0.43084802433E+03  0.56562549086E+03  0.79904627927E+02 0.  0.
         11    1    3    3    0    0 -0.38621325668E+03  0.63821439699E+02 -0.32312896881E+03  0.50758859944E+03  0.00000000000E+00 0. -1.
        -11    1    3    3    0    0 -0.46181676407E+02  0.35471924064E+02 -0.30230430334E+02  0.65611611402E+02  0.00000000000E+00 0.  1.
          2    1    6    6  502    0  0.26258051720E+02  0.31216371373E+03  0.33104018219E+03  0.45576668557E+03  0.00000000000E+00 0. -1.
          3    1    5    5  503    0  0.30869348892E+03 -0.38487724810E+03  0.10138398148E+04  0.11275164461E+04  0.00000000000E+00 0. -1.
         -4    1    5    5    0  503  0.10619882712E+03 -0.71643052889E+02  0.23764907328E+03  0.26997777675E+03  0.00000000000E+00 0.  1.
         -1    1    6    6    0  502 -0.87554346718E+01  0.45063223492E+02  0.99807842146E+02  0.10985880530E+03  0.00000000000E+00 0.  1.
<mgrwt>
<rscale>  0 0.21602633E+04</rscale>
<asrwt>0</asrwt>
<pdfrwt beam="1">  1        2 0.29733057E+00 0.21602633E+04</pdfrwt>
<pdfrwt beam="2">  1       -2 0.92872494E-01 0.21602633E+04</pdfrwt>
<totfact> 0.65618424E+00</totfact>
</mgrwt>
</event>
<event>
12    1  0.1496989E-007  0.1355204E+04  0.7818608E-02  0.8986898E-01
          1   -1    0    0  501    0  0.00000000000E+00  0.00000000000E+00  0.80001836155E+03  0.80001836155E+03  0.00000000000E+00 0. -1.
         -1   -1    0    0    0  501 -0.00000000000E+00 -0.00000000000E+00 -0.57391765245E+03  0.57391765245E+03  0.00000000000E+00 0.  1.
         23    2    1    2    0    0  0.11452421679E+03  0.20863642865E+02  0.40868322118E+03  0.43478332236E+03  0.91997142872E+02 0.  0.
        254    2    1    2    0    0 -0.11452421679E+03 -0.20863642865E+02 -0.18258251209E+03  0.93915269165E+03  0.91384917611E+03 0.  0.
        -24    2    4    4    0    0 -0.12111812000E+03  0.37040208832E+03 -0.32646078626E+03  0.51448826942E+03  0.79083679622E+02 0.  0.
         24    2    4    4    0    0  0.65939032042E+01 -0.39126573119E+03  0.14387827417E+03  0.42466442222E+03  0.80663261557E+02 0.  0.
         11    1    3    3    0    0  0.35184374352E+02  0.43655629521E+02  0.93991312457E+02  0.10944460245E+03  0.00000000000E+00 0.  1.
        -11    1    3    3    0    0  0.79339842440E+02 -0.22791986656E+02  0.31469190873E+03  0.32533871991E+03  0.00000000000E+00 0. -1.
          2    1    6    6  502    0  0.12043690384E+02 -0.18014973130E+03  0.10818588230E+03  0.21048316155E+03  0.00000000000E+00 0. -1.
          1    1    5    5  503    0 -0.69890131765E+02  0.14797762298E+03 -0.94105428511E+02  0.18877986941E+03  0.00000000000E+00 0. -1.
         -2    1    5    5    0  503 -0.51227988231E+02  0.22242446534E+03 -0.23235535775E+03  0.32570840001E+03  0.00000000000E+00 0.  1.
         -1    1    6    6    0  502 -0.54497871803E+01 -0.21111599989E+03  0.35692391869E+02  0.21418126068E+03  0.00000000000E+00 0.  1.
<mgrwt>
<rscale>  0 0.13552043E+04</rscale>
<asrwt>0</asrwt>
<pdfrwt beam="1">  1        1 0.12307975E+00 0.13552043E+04</pdfrwt>
<pdfrwt beam="2">  1       -1 0.88295023E-01 0.13552043E+04</pdfrwt>
<totfact> 0.27266602E+01</totfact>
</mgrwt>
</event>
<event>
12    1  0.1496989E-007  0.1024073E+04  0.7818608E-02  0.9282529E-01
         -2   -1    0    0    0  501 -0.00000000000E+00  0.00000000000E+00  0.33835766594E+03  0.33835766594E+03  0.00000000000E+00 0.  1.
          2   -1    0    0  501    0  0.00000000000E+00 -0.00000000000E+00 -0.77486504420E+03  0.77486504420E+03  0.00000000000E+00 0. -1.
         23    2    1    2    0    0 -0.85968033041E+02 -0.36411377247E+02 -0.36013729587E+03  0.38230236575E+03  0.87976905429E+02 0.  0.
        254    2    1    2    0    0  0.85968033041E+02  0.36411377247E+02 -0.76370082394E+02  0.73092034439E+03  0.72089934753E+03 0.  0.
        -24    2    4    4    0    0  0.29420254343E+03 -0.22745605669E+03 -0.59963940202E+02  0.38491975291E+03  0.79222141900E+02 0.  0.
         24    2    4    4    0    0 -0.20823451039E+03  0.26386743394E+03 -0.16406142192E+02  0.34600059148E+03  0.80371722601E+02 0.  0.
         13    1    3    3    0    0 -0.66455057735E+01 -0.17558823148E+02 -0.72609645578E+01  0.20129496358E+02  0.00000000000E+00 0.  1.
        -13    1    3    3    0    0 -0.79322527267E+02 -0.18852554099E+02 -0.35287633131E+03  0.36217286940E+03  0.00000000000E+00 0. -1.
          2    1    6    6  502    0 -0.73581917031E+02  0.44612407645E+02 -0.21321984673E+02  0.88652086610E+02  0.00000000000E+00 0. -1.
          3    1    5    5  503    0  0.99920706635E+02 -0.33269055089E+02 -0.10803382340E+02  0.10586638140E+03  0.00000000000E+00 0. -1.
         -4    1    5    5    0  503  0.19428183680E+03 -0.19418700160E+03 -0.49160557862E+02  0.27905337151E+03  0.00000000000E+00 0.  1.
         -1    1    6    6    0  502 -0.13465259336E+03  0.21925502629E+03  0.49158424805E+01  0.25734850487E+03  0.00000000000E+00 0.  1.
<mgrwt>
<rscale>  0 0.10240733E+04</rscale>
<asrwt>0</asrwt>
<pdfrwt beam="1">  1        2 0.11921001E+00 0.10240733E+04</pdfrwt>
<pdfrwt beam="2">  1       -2 0.52055026E-01 0.10240733E+04</pdfrwt>
<totfact> 0.12485547E+02</totfact>
</mgrwt>
</event>
<event>
12    1  0.1496989E-007  0.1196618E+04  0.7818608E-02  0.9115822E-01
          1   -1    0    0  501    0  0.00000000000E+00  0.00000000000E+00  0.19554467752E+04  0.19554467752E+04  0.00000000000E+00 0. -1.
         -1   -1    0    0    0  501 -0.00000000000E+00 -0.00000000000E+00 -0.18306489322E+03  0.18306489322E+03  0.00000000000E+00 0.  1.
         23    2    1    2    0    0 -0.23853096915E+03 -0.20098488804E+02  0.41280927425E+03  0.48564210738E+03  0.90198597823E+02 0.  0.
        254    2    1    2    0    0  0.23853096915E+03  0.20098488804E+02  0.13595726077E+04  0.16528695610E+04  0.90897697310E+03 0.  0.
        -24    2    4    4    0    0  0.45958924615E+03 -0.50330202400E+02  0.28098071960E+03  0.54679627431E+03  0.79250213631E+02 0.  0.
         24    2    4    4    0    0 -0.22105827699E+03  0.70428691204E+02  0.10785918881E+04  0.11060732867E+04  0.78807944484E+02 0.  0.
         11    1    3    3    0    0 -0.86044095402E+02 -0.19921018484E+01  0.73413644856E+02  0.11312434784E+03  0.00000000000E+00 0.  1.
        -11    1    3    3    0    0 -0.15248687375E+03 -0.18106386956E+02  0.33939562940E+03  0.37251775954E+03  0.00000000000E+00 0. -1.
          4    1    6    6  502    0 -0.47784076643E+02  0.47698430959E+02  0.38020789669E+03  0.38615606042E+03  0.00000000000E+00 0. -1.
          3    1    5    5  503    0  0.22507263521E+03 -0.13545601508E+02  0.92625440024E+02  0.24376350543E+03  0.00000000000E+00 0. -1.
         -4    1    5    5    0  503  0.23451661094E+03 -0.36784600892E+02  0.18835527957E+03  0.30303276887E+03  0.00000000000E+00 0.  1.
         -3    1    6    6    0  502 -0.17327420035E+03  0.22730260245E+02  0.69838399144E+03  0.71991722631E+03  0.00000000000E+00 0.  1.
<mgrwt>
<rscale>  0 0.11966180E+04</rscale>
<asrwt>0</asrwt>
<pdfrwt beam="1">  1        1 0.30083795E+00 0.11966180E+04</pdfrwt>
<pdfrwt beam="2">  1       -1 0.28163831E-01 0.11966180E+04</pdfrwt>
<totfact> 0.36105667E+01</totfact>
</mgrwt>
</event>
<event>
12    1  0.1496989E-007  0.3213323E+04  0.7818608E-02  0.8185308E-01
         -2   -1    0    0    0  501 -0.00000000000E+00  0.00000000000E+00  0.15145459471E+04  0.15145459471E+04  0.00000000000E+00 0.  1.
          2   -1    0    0  501    0  0.00000000000E+00 -0.00000000000E+00 -0.17043793594E+04  0.17043793594E+04  0.00000000000E+00 0. -1.
         23    2    1    2    0    0 -0.87730641783E+03  0.11412923283E+04 -0.43019468633E+03  0.15051864709E+04  0.91126915191E+02 0.  0.
        254    2    1    2    0    0  0.87730641783E+03 -0.11412923283E+04  0.24036127406E+03  0.17137388355E+04  0.89828309840E+03 0.  0.
        -24    2    4    4    0    0  0.52961345969E+03 -0.11855772082E+04  0.33165745701E+03  0.13426354305E+04  0.81175718333E+02 0.  0.
         24    2    4    4    0    0  0.34769295814E+03  0.44284879890E+02 -0.91296182949E+02  0.37110340498E+03  0.80815842750E+02 0.  0.
         11    1    3    3    0    0 -0.15619442777E+03  0.26368882472E+03 -0.85930664196E+02  0.31829636284E+03  0.00000000000E+00 0. -1.
        -11    1    3    3    0    0 -0.72111199006E+03  0.87760350360E+03 -0.34426402213E+03  0.11868901081E+04  0.00000000000E+00 0.  1.
          2    1    6    6  502    0  0.21302059526E+03  0.39480568396E+02 -0.94371916247E+02  0.23631027879E+03  0.00000000000E+00 0. -1.
          1    1    5    5  503    0  0.47951275590E+03 -0.10738765902E+04  0.32443553673E+03  0.12200007506E+04  0.00000000000E+00 0. -1.
         -2    1    5    5    0  503  0.50100703784E+02 -0.11170061802E+03  0.72219202783E+01  0.12263467992E+03  0.00000000000E+00 0.  1.
         -1    1    6    6    0  502  0.13467236288E+03  0.48043114940E+01  0.30757332982E+01  0.13479312619E+03  0.00000000000E+00 0.  1.
<mgrwt>
<rscale>  0 0.32133228E+04</rscale>
<asrwt>0</asrwt>
<pdfrwt beam="1">  1        2 0.26221221E+00 0.32133228E+04</pdfrwt>
<pdfrwt beam="2">  1       -2 0.23300707E+00 0.32133228E+04</pdfrwt>
<totfact> 0.67165904E-01</totfact>
</mgrwt>
</event>
<event>
12    1  0.1496989E-007  0.1194878E+04  0.7818608E-02  0.9117352E-01
         -1   -1    0    0    0  501 -0.00000000000E+00  0.00000000000E+00  0.11356657755E+04  0.11356657755E+04  0.00000000000E+00 0.  1.
          1   -1    0    0  501    0  0.00000000000E+00 -0.00000000000E+00 -0.31429445315E+03  0.31429445315E+03  0.00000000000E+00 0. -1.
         23    2    1    2    0    0 -0.20500088880E+02  0.47716210870E+02 -0.11454558415E+03  0.15551954656E+03  0.91479768751E+02 0.  0.
        254    2    1    2    0    0  0.20500088880E+02 -0.47716210870E+02  0.93591690648E+03  0.12944406821E+04  0.89271447458E+03 0.  0.
        -24    2    4    4    0    0  0.14795488761E+03 -0.44017451036E+03  0.54122733944E+03  0.71756516487E+03  0.79551772713E+02 0.  0.
         24    2    4    4    0    0 -0.12745479873E+03  0.39245829949E+03  0.39468956704E+03  0.57687551719E+03  0.82080847030E+02 0.  0.
         13    1    3    3    0    0  0.46991517355E+01  0.69743937065E+02 -0.90281423182E+02  0.11417983253E+03  0.00000000000E+00 0. -1.
        -13    1    3    3    0    0 -0.25199240616E+02 -0.22027726195E+02 -0.24264160969E+02  0.41339714035E+02  0.00000000000E+00 0.  1.
          4    1    6    6  502    0 -0.63899214461E+02  0.30320597312E+03  0.31082367522E+03  0.43889443927E+03  0.00000000000E+00 0. -1.
          1    1    5    5  503    0  0.13284839804E+03 -0.42557630436E+03  0.53331310672E+03  0.69511636256E+03  0.00000000000E+00 0. -1.
         -2    1    5    5    0  503  0.15106489577E+02 -0.14598206001E+02  0.79142327123E+01  0.22448802312E+02  0.00000000000E+00 0.  1.
         -3    1    6    6    0  502 -0.63555584272E+02  0.89252326366E+02  0.83865891827E+02  0.13798107793E+03  0.00000000000E+00 0.  1.
<mgrwt>
<rscale>  0 0.11948782E+04</rscale>
<asrwt>0</asrwt>
<pdfrwt beam="1">  1        1 0.48352993E-01 0.11948782E+04</pdfrwt>
<pdfrwt beam="2">  1       -1 0.17471781E+00 0.11948782E+04</pdfrwt>
<totfact> 0.18562048E+01</totfact>
</mgrwt>
</event>
<event>
12    1  0.1496989E-007  0.1140545E+04  0.7818608E-02  0.9166550E-01
         -1   -1    0    0    0  501 -0.00000000000E+00  0.00000000000E+00  0.61589609831E+03  0.61589609831E+03  0.00000000000E+00 0.  1.
          1   -1    0    0  501    0  0.00000000000E+00 -0.00000000000E+00 -0.52802879718E+03  0.52802879718E+03  0.00000000000E+00 0. -1.
         23    2    1    2    0    0  0.22020697273E+03 -0.29378767004E+02  0.65930322986E+02  0.24913087675E+03  0.91461267611E+02 0.  0.
        254    2    1    2    0    0 -0.22020697273E+03  0.29378767004E+02  0.21936978141E+02  0.89479401874E+03  0.86649921071E+03 0.  0.
        -24    2    4    4    0    0  0.11959350636E+03 -0.28181165042E+03 -0.20264606298E+03  0.37601337333E+03  0.81241719625E+02 0.  0.
         24    2    4    4    0    0 -0.33980047909E+03  0.31119041742E+03  0.22458304112E+03  0.51878064540E+03  0.79949823018E+02 0.  0.
         11    1    3    3    0    0  0.10017755474E+03 -0.40573834072E+02  0.69549986890E+02  0.12852618084E+03  0.00000000000E+00 0.  1.
        -11    1    3    3    0    0  0.12002941798E+03  0.11195067067E+02 -0.36196639044E+01  0.12060469591E+03  0.00000000000E+00 0. -1.
          2    1    6    6  502    0 -0.15320308287E+03  0.19252410528E+03  0.10661864826E+03  0.26814968184E+03  0.00000000000E+00 0. -1.
          3    1    5    5  503    0  0.60657525995E+02 -0.18302625499E+03 -0.82636888816E+02  0.20977797995E+03  0.00000000000E+00 0. -1.
         -2    1    5    5    0  503  0.58935980369E+02 -0.98785395426E+02 -0.12000917416E+03  0.16623539339E+03  0.00000000000E+00 0.  1.
         -1    1    6    6    0  502 -0.18659739622E+03  0.11866631215E+03  0.11796439286E+03  0.25063096357E+03  0.00000000000E+00 0.  1.
<mgrwt>
<rscale>  0 0.11405453E+04</rscale>
<asrwt>0</asrwt>
<pdfrwt beam="1">  1        1 0.81235199E-01 0.11405453E+04</pdfrwt>
<pdfrwt beam="2">  1       -1 0.94753246E-01 0.11405453E+04</pdfrwt>
<totfact> 0.43998690E+01</totfact>
</mgrwt>
</event>
<event>
12    1  0.1496989E-007  0.1902377E+04  0.7818608E-02  0.8653674E-01
         -1   -1    0    0    0  501 -0.00000000000E+00  0.00000000000E+00  0.75776285647E+03  0.75776285647E+03  0.00000000000E+00 0.  1.
          1   -1    0    0  501    0  0.00000000000E+00 -0.00000000000E+00 -0.11939872711E+04  0.11939872711E+04  0.00000000000E+00 0. -1.
         23    2    1    2    0    0 -0.20253964051E+03 -0.69264443354E+03 -0.30346252428E+03  0.78789155750E+03  0.88909985101E+02 0.  0.
        254    2    1    2    0    0  0.20253964051E+03  0.69264443354E+03 -0.13276189032E+03  0.11638585700E+04  0.90341708763E+03 0.  0.
        -24    2    4    4    0    0  0.79098287187E+02 -0.30881147737E+01 -0.39132696236E+03  0.40722873607E+03  0.80202097986E+02 0.  0.
         24    2    4    4    0    0  0.12344135332E+03  0.69573254832E+03  0.25856507204E+03  0.75662983397E+03  0.79694809608E+02 0.  0.
         13    1    3    3    0    0 -0.15059308884E+03 -0.54845577221E+03 -0.27601842643E+03  0.63219315419E+03  0.00000000000E+00 0.  1.
        -13    1    3    3    0    0 -0.51946551673E+02 -0.14418866134E+03 -0.27444097843E+02  0.15569840332E+03  0.00000000000E+00 0. -1.
          4    1    6    6  502    0  0.68153570426E+02  0.56540076375E+03  0.20537535981E+03  0.60539406276E+03  0.00000000000E+00 0. -1.
          3    1    5    5  503    0  0.70282469715E+02 -0.35723384247E+02 -0.27893414740E+03  0.28986211259E+03  0.00000000000E+00 0. -1.
         -4    1    5    5    0  503  0.88158174713E+01  0.32635269473E+02 -0.11239281496E+03  0.11736662347E+03  0.00000000000E+00 0.  1.
         -3    1    6    6    0  502  0.55287782896E+02  0.13033178457E+03  0.53189712229E+02  0.15123577121E+03  0.00000000000E+00 0.  1.
<mgrwt>
<rscale>  0 0.19023766E+04</rscale>
<asrwt>0</asrwt>
<pdfrwt beam="1">  1        1 0.18369035E+00 0.19023766E+04</pdfrwt>
<pdfrwt beam="2">  1       -1 0.11657890E+00 0.19023766E+04</pdfrwt>
<totfact> 0.67077916E+00</totfact>
</mgrwt>
</event>
<event>
12    1  0.1710033E-007  0.2234178E+04  0.7818608E-02  0.8504336E-01
         -1   -1    0    0    0  501 -0.00000000000E+00  0.00000000000E+00  0.49576090726E+03  0.49576090726E+03  0.00000000000E+00 0.  1.
          1   -1    0    0  501    0  0.00000000000E+00 -0.00000000000E+00 -0.25171170451E+04  0.25171170451E+04  0.00000000000E+00 0. -1.
         23    2    1    2    0    0  0.86421048778E+03 -0.13322846688E+03 -0.41538033887E+03  0.97236346735E+03  0.91325216365E+02 0.  0.
        254    2    1    2    0    0 -0.86421048778E+03  0.13322846688E+03 -0.16059757990E+04  0.20405144850E+04  0.90550069303E+03 0.  0.
        -24    2    4    4    0    0 -0.75501011151E+03  0.18620783849E+03 -0.50682291645E+03  0.93157192507E+03  0.79013640234E+02 0.  0.
         24    2    4    4    0    0 -0.10920037627E+03 -0.52979371608E+02 -0.10991528825E+04  0.11089425599E+04  0.82975936865E+02 0.  0.
         11    1    3    3    0    0  0.71753622365E+02 -0.24389625940E+02 -0.12752920922E+02  0.76850980267E+02  0.00000000000E+00 0. -1.
        -11    1    3    3    0    0  0.79245686542E+03 -0.10883884094E+03 -0.40262741795E+03  0.89551248709E+03  0.00000000000E+00 0.  1.
          2    1    6    6  502    0  0.50151102417E+01  0.26334015754E+01 -0.27484161895E+03  0.27489998480E+03  0.00000000000E+00 0. -1.
          3    1    5    5  503    0 -0.34030411000E+03  0.52908193337E+02 -0.25387137363E+03  0.42785142112E+03  0.00000000000E+00 0. -1.
         -4    1    5    5    0  503 -0.41470600151E+03  0.13329964515E+03 -0.25295154283E+03  0.50372050395E+03  0.00000000000E+00 0.  1.
         -1    1    6    6    0  502 -0.11421548651E+03 -0.55612773184E+02 -0.82431126358E+03  0.83404257515E+03  0.00000000000E+00 0.  1.
<mgrwt>
<rscale>  0 0.22341784E+04</rscale>
<asrwt>0</asrwt>
<pdfrwt beam="1">  1        1 0.38724878E+00 0.22341784E+04</pdfrwt>
<pdfrwt beam="2">  1       -1 0.76270907E-01 0.22341784E+04</pdfrwt>
<totfact> 0.20680072E+00</totfact>
</mgrwt>
</event>
<event>
12    1  0.1496989E-007  0.1709391E+04  0.7818608E-02  0.8756026E-01
          1   -1    0    0  501    0  0.00000000000E+00  0.00000000000E+00  0.15337448430E+04  0.15337448430E+04  0.00000000000E+00 0. -1.
         -1   -1    0    0    0  501 -0.00000000000E+00 -0.00000000000E+00 -0.47628830634E+03  0.47628830634E+03  0.00000000000E+00 0.  1.
         23    2    1    2    0    0  0.45901402990E+03 -0.25315163107E+03  0.75643739529E+03  0.92491046084E+03  0.92098857847E+02 0.  0.
        254    2    1    2    0    0 -0.45901402990E+03  0.25315163107E+03  0.30101914134E+03  0.10851226885E+04  0.90116541081E+03 0.  0.
        -24    2    4    4    0    0 -0.24372021365E+03  0.35165240051E+03 -0.23442030001E+03  0.49413361662E+03  0.78461459900E+02 0.  0.
         24    2    4    4    0    0 -0.21529381625E+03 -0.98500769443E+02  0.53543944135E+03  0.59098907186E+03  0.80739450128E+02 0.  0.
         11    1    3    3    0    0  0.43492153562E+03 -0.22191959980E+03  0.72675862206E+03  0.87554734062E+03  0.00000000000E+00 0. -1.
        -11    1    3    3    0    0  0.24092494275E+02 -0.31232031264E+02  0.29678773232E+02  0.49363120220E+02  0.00000000000E+00 0.  1.
          2    1    6    6  502    0 -0.18667035119E+03 -0.11007017754E+03  0.43630379538E+03  0.48715733173E+03  0.00000000000E+00 0. -1.
          3    1    5    5  503    0 -0.24367427955E+03  0.35425848193E+03 -0.22688766064E+03  0.48616276810E+03  0.00000000000E+00 0. -1.
         -4    1    5    5    0  503 -0.45934096816E-01 -0.26060814157E+01 -0.75326393705E+01  0.79708485228E+01  0.00000000000E+00 0.  1.
         -1    1    6    6    0  502 -0.28623465059E+02  0.11569408098E+02  0.99135645972E+02  0.10383174013E+03  0.00000000000E+00 0.  1.
<mgrwt>
<rscale>  0 0.17093914E+04</rscale>
<asrwt>0</asrwt>
<pdfrwt beam="1">  1        1 0.23596074E+00 0.17093914E+04</pdfrwt>
<pdfrwt beam="2">  1       -1 0.73275125E-01 0.17093914E+04</pdfrwt>
<totfact> 0.11062668E+01</totfact>
</mgrwt>
</event>
<event>
12    1  0.1496989E-007  0.1330545E+04  0.7818608E-02  0.9005688E-01
         -2   -1    0    0    0  501 -0.00000000000E+00  0.00000000000E+00  0.20483782848E+03  0.20483782848E+03  0.00000000000E+00 0.  1.
          2   -1    0    0  501    0  0.00000000000E+00 -0.00000000000E+00 -0.21606715674E+04  0.21606715674E+04  0.00000000000E+00 0. -1.
         23    2    1    2    0    0  0.26124987602E+03  0.12012840506E+03 -0.16826680122E+03  0.34427194078E+03  0.86758984476E+02 0.  0.
        254    2    1    2    0    0 -0.26124987602E+03 -0.12012840506E+03 -0.17875669377E+04  0.20212374551E+04  0.89851152564E+03 0.  0.
        -24    2    4    4    0    0 -0.16976590978E+03 -0.37381350691E+03 -0.16610059030E+04  0.17128272631E+04  0.79244060774E+02 0.  0.
         24    2    4    4    0    0 -0.91483966244E+02  0.25368510185E+03 -0.12656103469E+03  0.30841019204E+03  0.79835481288E+02 0.  0.
         13    1    3    3    0    0  0.90157724101E+01  0.11770911422E+02 -0.37238118665E+02  0.40081367112E+02  0.00000000000E+00 0. -1.
        -13    1    3    3    0    0  0.25223410361E+03  0.10835749364E+03 -0.13102868256E+03  0.30419057367E+03  0.00000000000E+00 0.  1.
          2    1    6    6  502    0 -0.10048987304E+02  0.85433219831E+01  0.96883006634E+01  0.16365624525E+02  0.00000000000E+00 0. -1.
          3    1    5    5  503    0 -0.19469878095E+01  0.40442218807E+01 -0.13120740252E+02  0.13867238980E+02  0.00000000000E+00 0. -1.
         -4    1    5    5    0  503 -0.16781892197E+03 -0.37785772879E+03 -0.16478851628E+04  0.16989600241E+04  0.00000000000E+00 0.  1.
         -1    1    6    6    0  502 -0.81434978940E+02  0.24514177987E+03 -0.13624933536E+03  0.29204456752E+03  0.00000000000E+00 0.  1.
<mgrwt>
<rscale>  0 0.13305447E+04</rscale>
<asrwt>0</asrwt>
<pdfrwt beam="1">  1        2 0.33241101E+00 0.13305447E+04</pdfrwt>
<pdfrwt beam="2">  1       -2 0.31513512E-01 0.13305447E+04</pdfrwt>
<totfact> 0.49775228E+01</totfact>
</mgrwt>
</event>
<event>
12    1  0.1496989E-007  0.1995430E+04  0.7818608E-02  0.8608760E-01
          1   -1    0    0  501    0  0.00000000000E+00  0.00000000000E+00  0.34984668122E+04  0.34984668122E+04  0.00000000000E+00 0. -1.
         -1   -1    0    0    0  501 -0.00000000000E+00 -0.00000000000E+00 -0.28453483551E+03  0.28453483551E+03  0.00000000000E+00 0.  1.
         23    2    1    2    0    0 -0.32050341587E+03 -0.58584576924E+03  0.48264238042E+03  0.82921766902E+03  0.93383993870E+02 0.  0.
        254    2    1    2    0    0  0.32050341587E+03  0.58584576924E+03  0.27312895962E+04  0.29537839787E+04  0.90496366178E+03 0.  0.
        -24    2    4    4    0    0  0.31910762648E+03  0.54503311456E+03  0.27797510805E+04  0.28517211441E+04  0.80041495713E+02 0.  0.
         24    2    4    4    0    0  0.13957893970E+01  0.40812654683E+02 -0.48461484249E+02  0.10206283455E+03  0.80004285701E+02 0.  0.
         11    1    3    3    0    0 -0.82879323719E+02 -0.10367473124E+03  0.13340272946E+03  0.18818533531E+03  0.00000000000E+00 0. -1.
        -11    1    3    3    0    0 -0.23762409215E+03 -0.48217103800E+03  0.34923965096E+03  0.64103233371E+03  0.00000000000E+00 0.  1.
          2    1    6    6  502    0  0.12746953619E+02 -0.82768390461E+01  0.14782876025E+02  0.21201988462E+02  0.00000000000E+00 0. -1.
          1    1    5    5  503    0  0.14203380955E+02  0.26521411322E+02  0.73345699031E+02  0.79276180883E+02  0.00000000000E+00 0. -1.
         -2    1    5    5    0  503  0.30490424552E+03  0.51851170324E+03  0.27064053815E+04  0.27724449632E+04  0.00000000000E+00 0.  1.
         -1    1    6    6    0  502 -0.11351164222E+02  0.49089493729E+02 -0.63244360274E+02  0.80860846089E+02  0.00000000000E+00 0.  1.
<mgrwt>
<rscale>  0 0.19954305E+04</rscale>
<asrwt>0</asrwt>
<pdfrwt beam="1">  1        1 0.53822563E+00 0.19954305E+04</pdfrwt>
<pdfrwt beam="2">  1       -1 0.43774593E-01 0.19954305E+04</pdfrwt>
<totfact> 0.12044797E+00</totfact>
</mgrwt>
</event>
<event>
12    1  0.1496989E-007  0.3030268E+04  0.7818608E-02  0.8235140E-01
          1   -1    0    0  501    0  0.00000000000E+00  0.00000000000E+00  0.13942365065E+04  0.13942365065E+04  0.00000000000E+00 0. -1.
         -1   -1    0    0    0  501 -0.00000000000E+00 -0.00000000000E+00 -0.16465144880E+04  0.16465144880E+04  0.00000000000E+00 0.  1.
         23    2    1    2    0    0 -0.40885763467E+03  0.82797568959E+03 -0.11720316569E+04  0.14948208232E+04  0.90126471399E+02 0.  0.
        254    2    1    2    0    0  0.40885763467E+03 -0.82797568959E+03  0.91975367539E+03  0.15459301712E+04  0.83141142823E+03 0.  0.
        -24    2    4    4    0    0 -0.72838085255E+02 -0.56327987746E+03  0.78917380100E+03  0.97542891221E+03  0.77952983172E+02 0.  0.
         24    2    4    4    0    0  0.48169571992E+03 -0.26469581212E+03  0.13057987439E+03  0.57050125903E+03  0.79535799538E+02 0.  0.
         11    1    3    3    0    0 -0.11224363552E+03  0.22563144361E+03 -0.38711608920E+03  0.46191671173E+03  0.00000000000E+00 0. -1.
        -11    1    3    3    0    0 -0.29661399915E+03  0.60234424598E+03 -0.78491556766E+03  0.10329041115E+04  0.00000000000E+00 0.  1.
          4    1    6    6  502    0  0.16079768408E+03 -0.10647136310E+03  0.81494615567E+02  0.20936432058E+03  0.00000000000E+00 0. -1.
          1    1    5    5  503    0 -0.33596548495E+02 -0.71311710004E+02  0.12883614061E+03  0.15103919750E+03  0.00000000000E+00 0. -1.
         -2    1    5    5    0  503 -0.39241536760E+02 -0.49196816746E+03  0.66033766039E+03  0.82438971472E+03  0.00000000000E+00 0.  1.
         -3    1    6    6    0  502  0.32089803584E+03 -0.15822444903E+03  0.49085258824E+02  0.36113693845E+03  0.00000000000E+00 0.  1.
<mgrwt>
<rscale>  0 0.30302677E+04</rscale>
<asrwt>0</asrwt>
<pdfrwt beam="1">  1        1 0.21449793E+00 0.30302677E+04</pdfrwt>
<pdfrwt beam="2">  1       -1 0.25330992E+00 0.30302677E+04</pdfrwt>
<totfact> 0.43665658E-01</totfact>
</mgrwt>
</event>
<event>
12    1  0.1496989E-007  0.1172639E+04  0.7818608E-02  0.9137149E-01
         -2   -1    0    0    0  501 -0.00000000000E+00  0.00000000000E+00  0.12885097612E+03  0.12885097612E+03  0.00000000000E+00 0.  1.
          2   -1    0    0  501    0  0.00000000000E+00 -0.00000000000E+00 -0.26679687309E+04  0.26679687309E+04  0.00000000000E+00 0. -1.
         23    2    1    2    0    0 -0.91944919926E+02  0.93103796139E+02 -0.90611836569E+02  0.18366875997E+03  0.91659823847E+02 0.  0.
        254    2    1    2    0    0  0.91944919926E+02 -0.93103796139E+02 -0.24485059182E+04  0.26131509470E+04  0.90346801571E+03 0.  0.
        -24    2    4    4    0    0  0.12413241260E+03 -0.44185805084E+03 -0.19091016622E+04  0.19651507011E+04  0.80627095329E+02 0.  0.
         24    2    4    4    0    0 -0.32187492674E+02  0.34875425471E+03 -0.53940425600E+03  0.64800024593E+03  0.79257822824E+02 0.  0.
         11    1    3    3    0    0 -0.26870548429E+02  0.49153873915E+02 -0.88956659958E+02  0.10512572019E+03  0.00000000000E+00 0. -1.
        -11    1    3    3    0    0 -0.65074371497E+02  0.43949922224E+02 -0.16551766110E+01  0.78543039786E+02  0.00000000000E+00 0.  1.
          2    1    6    6  502    0  0.18234089697E+02  0.63348856708E+02 -0.68601333297E+02  0.95140436216E+02  0.00000000000E+00 0. -1.
          1    1    5    5  503    0 -0.11543952829E+01 -0.18813799135E+01 -0.22047703803E+00  0.22182941582E+01  0.00000000000E+00 0. -1.
         -2    1    5    5    0  503  0.12528680788E+03 -0.43997667093E+03 -0.19088811852E+04  0.19629324070E+04  0.00000000000E+00 0.  1.
         -1    1    6    6    0  502 -0.50421582371E+02  0.28540539800E+03 -0.47080292270E+03  0.55285980972E+03  0.00000000000E+00 0.  1.
<mgrwt>
<rscale>  0 0.11726387E+04</rscale>
<asrwt>0</asrwt>
<pdfrwt beam="1">  1        2 0.41045670E+00 0.11726387E+04</pdfrwt>
<pdfrwt beam="2">  1       -2 0.19823228E-01 0.11726387E+04</pdfrwt>
<totfact> 0.60115257E+01</totfact>
</mgrwt>
</event>
<event>
12    1  0.1496989E-007  0.2151129E+04  0.7818608E-02  0.8539049E-01
          1   -1    0    0  501    0  0.00000000000E+00  0.00000000000E+00  0.12276390743E+04  0.12276390743E+04  0.00000000000E+00 0. -1.
         -1   -1    0    0    0  501 -0.00000000000E+00 -0.00000000000E+00 -0.94232796941E+03  0.94232796941E+03  0.00000000000E+00 0.  1.
         23    2    1    2    0    0 -0.24910899157E+03  0.73967250736E+03  0.57326052750E+03  0.97256474499E+03  0.89910193965E+02 0.  0.
        254    2    1    2    0    0  0.24910899157E+03 -0.73967250736E+03 -0.28794942261E+03  0.11974022987E+04  0.86121233571E+03 0.  0.
        -24    2    4    4    0    0 -0.17633125986E+03 -0.52817814807E+03  0.10900915161E+03  0.57300813175E+03  0.79940319084E+02 0.  0.
         24    2    4    4    0    0  0.42544025143E+03 -0.21149435929E+03 -0.39695857422E+03  0.62439416697E+03  0.81010459529E+02 0.  0.
         13    1    3    3    0    0 -0.19925679010E+03  0.66980021959E+03  0.49454082616E+03  0.85609942839E+03  0.00000000000E+00 0. -1.
        -13    1    3    3    0    0 -0.49852201466E+02  0.69872287772E+02  0.78719701344E+02  0.11646531659E+03  0.00000000000E+00 0.  1.
          2    1    6    6  502    0  0.33561909421E+03 -0.13882969440E+03 -0.26881364184E+03  0.45185687389E+03  0.00000000000E+00 0. -1.
          3    1    5    5  503    0 -0.15419882289E+03 -0.39119078443E+03  0.54839076842E+02  0.42404578898E+03  0.00000000000E+00 0. -1.
         -4    1    5    5    0  503 -0.22132436971E+02 -0.13698736365E+03  0.54170074766E+02  0.14896234278E+03  0.00000000000E+00 0.  1.
         -1    1    6    6    0  502  0.89821157216E+02 -0.72664664885E+02 -0.12814493238E+03  0.17253729307E+03  0.00000000000E+00 0.  1.
<mgrwt>
<rscale>  0 0.21511287E+04</rscale>
<asrwt>0</asrwt>
<pdfrwt beam="1">  1        1 0.18886755E+00 0.21511287E+04</pdfrwt>
<pdfrwt beam="2">  1       -1 0.14497353E+00 0.21511287E+04</pdfrwt>
<totfact> 0.35706181E+00</totfact>
</mgrwt>
</event>
<event>
12    1  0.1496989E-007  0.2326176E+04  0.7818608E-02  0.8467671E-01
         -2   -1    0    0    0  501 -0.00000000000E+00  0.00000000000E+00  0.29710529407E+03  0.29710529407E+03  0.00000000000E+00 0.  1.
          2   -1    0    0  501    0  0.00000000000E+00 -0.00000000000E+00 -0.45531808459E+04  0.45531808459E+04  0.00000000000E+00 0. -1.
         23    2    1    2    0    0 -0.57087973751E+03  0.79281963144E+03 -0.19942521635E+04  0.22225876415E+04  0.91583240597E+02 0.  0.
        254    2    1    2    0    0  0.57087973751E+03 -0.79281963144E+03 -0.22618233884E+04  0.26276984985E+04  0.91350299183E+03 0.  0.
        -24    2    4    4    0    0 -0.22282752483E+02 -0.21756574028E+03 -0.14432643045E+04  0.14619283112E+04  0.79944743419E+02 0.  0.
         24    2    4    4    0    0  0.59316248999E+03 -0.57525389116E+03 -0.81855908390E+03  0.11657701873E+04  0.78882044822E+02 0.  0.
         11    1    3    3    0    0 -0.34722151691E+03  0.44854572320E+03 -0.12479717447E+04  0.13708353377E+04  0.00000000000E+00 0. -1.
        -11    1    3    3    0    0 -0.22365822060E+03  0.34427390824E+03 -0.74628041875E+03  0.85175230375E+03  0.00000000000E+00 0.  1.
          2    1    6    6  502    0  0.56798449923E+02 -0.84075726150E+02 -0.12261783518E+03  0.15915377829E+03  0.00000000000E+00 0. -1.
          1    1    5    5  503    0 -0.47413592391E+02 -0.94497307700E+02 -0.74360868697E+03  0.75108699179E+03  0.00000000000E+00 0. -1.
         -4    1    5    5    0  503  0.25130839908E+02 -0.12306843258E+03 -0.69965561754E+03  0.71084131941E+03  0.00000000000E+00 0.  1.
         -1    1    6    6    0  502  0.53636404007E+03 -0.49117816501E+03 -0.69594124872E+03  0.10066164090E+04  0.00000000000E+00 0.  1.
<mgrwt>
<rscale>  0 0.23261764E+04</rscale>
<asrwt>0</asrwt>
<pdfrwt beam="1">  1        2 0.70048933E+00 0.23261764E+04</pdfrwt>
<pdfrwt beam="2">  1       -2 0.45708509E-01 0.23261764E+04</pdfrwt>
<totfact> 0.45188485E-01</totfact>
</mgrwt>
</event>
<event>
12    1  0.1496989E-007  0.1713306E+04  0.7818608E-02  0.8753812E-01
          2   -1    0    0  501    0  0.00000000000E+00  0.00000000000E+00  0.17219202538E+04  0.17219202538E+04  0.00000000000E+00 0. -1.
         -2   -1    0    0    0  501 -0.00000000000E+00 -0.00000000000E+00 -0.42618353461E+03  0.42618353461E+03  0.00000000000E+00 0.  1.
         23    2    1    2    0    0  0.99419902331E+02  0.18959328646E+03 -0.24867815652E+03  0.34148983553E+03  0.94575636337E+02 0.  0.
        254    2    1    2    0    0 -0.99419902331E+02 -0.18959328646E+03  0.15444148757E+04  0.18066139528E+04  0.91258245391E+03 0.  0.
        -24    2    4    4    0    0 -0.92107018077E+01  0.35514260359E+03  0.45846052170E+03  0.58579901174E+03  0.82239444814E+02 0.  0.
         24    2    4    4    0    0 -0.90209200523E+02 -0.54473589004E+03  0.10859543540E+04  0.12208149411E+04  0.78850312438E+02 0.  0.
         11    1    3    3    0    0  0.16115311468E+02  0.11810908060E+03 -0.93939849155E+02  0.15177006768E+03  0.00000000000E+00 0. -1.
        -11    1    3    3    0    0  0.83304590863E+02  0.71484205855E+02 -0.15473830737E+03  0.18971976785E+03  0.00000000000E+00 0.  1.
          2    1    6    6  502    0 -0.92716721843E+02 -0.46961309516E+03  0.98287535650E+03  0.10932414263E+04  0.00000000000E+00 0. -1.
          1    1    5    5  503    0 -0.78655102301E+01  0.35795470673E+03  0.44091351712E+03  0.56797726002E+03  0.00000000000E+00 0. -1.
         -2    1    5    5    0  503 -0.13451915776E+01 -0.28121031438E+01  0.17547004579E+02  0.17821751715E+02  0.00000000000E+00 0.  1.
         -1    1    6    6    0  502  0.25075213202E+01 -0.75122794883E+02  0.10307899747E+03  0.12757351486E+03  0.00000000000E+00 0.  1.
<mgrwt>
<rscale>  0 0.17133056E+04</rscale>
<asrwt>0</asrwt>
<pdfrwt beam="1">  1        2 0.26491081E+00 0.17133056E+04</pdfrwt>
<pdfrwt beam="2">  1       -2 0.65566698E-01 0.17133056E+04</pdfrwt>
<totfact> 0.19419024E+01</totfact>
</mgrwt>
</event>
<event>
12    1  0.1698911E-007  0.1297896E+04  0.7818608E-02  0.9031235E-01
         -1   -1    0    0    0  501 -0.00000000000E+00  0.00000000000E+00  0.23968519353E+03  0.23968519353E+03  0.00000000000E+00 0.  1.
          1   -1    0    0  501    0  0.00000000000E+00 -0.00000000000E+00 -0.17570272785E+04  0.17570272785E+04  0.00000000000E+00 0. -1.
         23    2    1    2    0    0 -0.93725631441E+02  0.29424892655E+03 -0.22059915885E+03  0.39004952621E+03  0.90042874509E+02 0.  0.
        254    2    1    2    0    0  0.93725631441E+02 -0.29424892655E+03 -0.12967429261E+04  0.16066629458E+04  0.89691509088E+03 0.  0.
        -24    2    4    4    0    0  0.69929044041E+02  0.24710077088E+03 -0.94427098138E+02  0.28557346514E+03  0.81773253337E+02 0.  0.
         24    2    4    4    0    0  0.23796587400E+02 -0.54134969743E+03 -0.12023158280E+04  0.13210894807E+04  0.78027515999E+02 0.  0.
         13    1    3    3    0    0 -0.24635249555E+02  0.52030996817E+02 -0.37601878671E+01  0.57691066580E+02  0.00000000000E+00 0. -1.
        -13    1    3    3    0    0 -0.69090381886E+02  0.24221792973E+03 -0.21683897098E+03  0.33235845963E+03  0.00000000000E+00 0.  1.
          2    1    6    6  502    0  0.22003224325E+02 -0.53257874174E+03 -0.11439413875E+04  0.12620325496E+04  0.00000000000E+00 0. -1.
          3    1    5    5  503    0  0.57755748907E+02  0.24395633899E+03 -0.10226731472E+03  0.27075639517E+03  0.00000000000E+00 0. -1.
         -4    1    5    5    0  503  0.12173295134E+02  0.31444318834E+01  0.78402165857E+01  0.14817069967E+02  0.00000000000E+00 0.  1.
         -1    1    6    6    0  502  0.17933630753E+01 -0.87709556814E+01 -0.58374440448E+02  0.59056931111E+02  0.00000000000E+00 0.  1.
<mgrwt>
<rscale>  0 0.12978959E+04</rscale>
<asrwt>0</asrwt>
<pdfrwt beam="1">  1        1 0.27031190E+00 0.12978959E+04</pdfrwt>
<pdfrwt beam="2">  1       -1 0.36874644E-01 0.12978959E+04</pdfrwt>
<totfact> 0.30258505E+01</totfact>
</mgrwt>
</event>
<event>
12    1  0.1496989E-007  0.2091949E+04  0.7818608E-02  0.8564798E-01
         -2   -1    0    0    0  501 -0.00000000000E+00  0.00000000000E+00  0.54666274431E+03  0.54666274431E+03  0.00000000000E+00 0. -1.
          2   -1    0    0  501    0  0.00000000000E+00 -0.00000000000E+00 -0.20013488141E+04  0.20013488141E+04  0.00000000000E+00 0.  1.
         23    2    1    2    0    0  0.16002866795E+03  0.57779016106E+03  0.13938667123E+03  0.62250594342E+03  0.92921260710E+02 0.  0.
        254    2    1    2    0    0 -0.16002866795E+03 -0.57779016106E+03 -0.15940727410E+04  0.19255056150E+04  0.89836146672E+03 0.  0.
        -24    2    4    4    0    0 -0.35777422592E+03  0.73083397521E+01 -0.99954277464E+03  0.10647504651E+04  0.80944338693E+02 0.  0.
         24    2    4    4    0    0  0.19774555797E+03 -0.58509850082E+03 -0.59452996639E+03  0.86075514993E+03  0.77394998776E+02 0.  0.
         11    1    3    3    0    0  0.86407085477E+02  0.34368498220E+03  0.35984615588E+02  0.35620281297E+03  0.00000000000E+00 0.  1.
        -11    1    3    3    0    0  0.73621582470E+02  0.23410517886E+03  0.10340205564E+03  0.26630313045E+03  0.00000000000E+00 0. -1.
          2    1    6    6  502    0  0.93725960702E+02 -0.36259126787E+03 -0.39484649818E+03  0.54420652364E+03  0.00000000000E+00 0. -1.
          3    1    5    5  503    0 -0.25582064022E+03  0.41249583995E+02 -0.68628997408E+03  0.73358002745E+03  0.00000000000E+00 0. -1.
         -4    1    5    5    0  503 -0.10195358570E+03 -0.33941244243E+02 -0.31325280056E+03  0.33117043762E+03  0.00000000000E+00 0.  1.
         -3    1    6    6    0  502  0.10401959727E+03 -0.22250723295E+03 -0.19968346822E+03  0.31654862629E+03  0.00000000000E+00 0.  1.
<mgrwt>
<rscale>  0 0.20919492E+04</rscale>
<asrwt>0</asrwt>
<pdfrwt beam="1">  1        2 0.30789982E+00 0.20919492E+04</pdfrwt>
<pdfrwt beam="2">  1       -2 0.84101960E-01 0.20919492E+04</pdfrwt>
<totfact> 0.75914669E+00</totfact>
</mgrwt>
</event>
<event>
12    1  0.1496989E-007  0.2434279E+04  0.7818608E-02  0.8426781E-01
         -1   -1    0    0    0  501 -0.00000000000E+00  0.00000000000E+00  0.23502261185E+04  0.23502261185E+04  0.00000000000E+00 0.  1.
          1   -1    0    0  501    0  0.00000000000E+00 -0.00000000000E+00 -0.63033423703E+03  0.63033423703E+03  0.00000000000E+00 0. -1.
         23    2    1    2    0    0  0.86893022796E+02 -0.24361237577E+03 -0.50061708998E+03  0.57065050102E+03  0.90150632229E+02 0.  0.
        254    2    1    2    0    0 -0.86893022796E+02  0.24361237577E+03  0.22205089715E+04  0.24099098546E+04  0.90006001330E+03 0.  0.
        -24    2    4    4    0    0 -0.37184438433E+03  0.50856640270E+02  0.39566286770E+03  0.55115817288E+03  0.79822193891E+02 0.  0.
         24    2    4    4    0    0  0.28495136154E+03  0.19275573550E+03  0.18248461038E+04  0.18587516817E+04  0.80885472011E+02 0.  0.
         11    1    3    3    0    0 -0.17093276468E+02 -0.16524233052E+02 -0.52410861926E+02  0.57551097524E+02  0.00000000000E+00 0.  1.
        -11    1    3    3    0    0  0.10398629926E+03 -0.22708814272E+03 -0.44820622805E+03  0.51309940349E+03  0.00000000000E+00 0. -1.
          2    1    6    6  502    0  0.79671562243E+02  0.13411219567E+02  0.40824112700E+03  0.41615890765E+03  0.00000000000E+00 0. -1.
          1    1    5    5  503    0 -0.71862247029E+02  0.34021172924E+02  0.53652263652E+02  0.95917611262E+02  0.00000000000E+00 0. -1.
         -2    1    5    5    0  503 -0.29998213730E+03  0.16835467346E+02  0.34201060405E+03  0.45524056162E+03  0.00000000000E+00 0.  1.
         -3    1    6    6    0  502  0.20527979929E+03  0.17934451593E+03  0.14166049768E+04  0.14425927740E+04  0.00000000000E+00 0.  1.
<mgrwt>
<rscale>  0 0.24342785E+04</rscale>
<asrwt>0</asrwt>
<pdfrwt beam="1">  1        1 0.96974499E-01 0.24342785E+04</pdfrwt>
<pdfrwt beam="2">  1       -1 0.36157324E+00 0.24342785E+04</pdfrwt>
<totfact> 0.37068050E-01</totfact>
</mgrwt>
</event>
<event>
12    1  0.1496989E-007  0.2247141E+04  0.7818608E-02  0.8499059E-01
         -2   -1    0    0    0  501 -0.00000000000E+00  0.00000000000E+00  0.10231288193E+04  0.10231288193E+04  0.00000000000E+00 0.  1.
          2   -1    0    0  501    0  0.00000000000E+00 -0.00000000000E+00 -0.12338721811E+04  0.12338721811E+04  0.00000000000E+00 0. -1.
         23    2    1    2    0    0 -0.10242574766E+03 -0.32227290403E+03  0.79284720368E+03  0.86665140925E+03  0.90150531391E+02 0.  0.
        254    2    1    2    0    0  0.10242574766E+03  0.32227290403E+03 -0.10035905655E+04  0.13903495911E+04  0.90084799160E+03 0.  0.
        -24    2    4    4    0    0  0.41434259806E+02  0.47237990482E+03 -0.13201358562E+03  0.50028472886E+03  0.89429585612E+02 0.  0.
         24    2    4    4    0    0  0.60991487852E+02 -0.15010700079E+03 -0.87157697987E+03  0.89006486227E+03  0.79479267327E+02 0.  0.
         13    1    3    3    0    0 -0.11663809196E+03 -0.30983577352E+03  0.74793377698E+03  0.81792883908E+03  0.00000000000E+00 0.  1.
        -13    1    3    3    0    0  0.14212344301E+02 -0.12437130513E+02  0.44913426703E+02  0.48722570171E+02  0.00000000000E+00 0. -1.
          4    1    6    6  502    0  0.27941052065E+01 -0.19351868686E+02 -0.26381724664E+02  0.32837436590E+02  0.00000000000E+00 0. -1.
          1    1    5    5  503    0  0.49564388089E+02  0.12044504092E+03 -0.28126621312E+02  0.13324692595E+03  0.00000000000E+00 0. -1.
         -2    1    5    5    0  503 -0.81301282830E+01  0.35193486390E+03 -0.10388696431E+03  0.36703780291E+03  0.00000000000E+00 0.  1.
         -3    1    6    6    0  502  0.58197382646E+02 -0.13075513210E+03 -0.84519525520E+03  0.85722742568E+03  0.00000000000E+00 0.  1.
<mgrwt>
<rscale>  0 0.22471406E+04</rscale>
<asrwt>0</asrwt>
<pdfrwt beam="1">  1        2 0.18982649E+00 0.22471406E+04</pdfrwt>
<pdfrwt beam="2">  1       -2 0.15740443E+00 0.22471406E+04</pdfrwt>
<totfact> 0.43357619E+00</totfact>
</mgrwt>
</event>
<event>
12    1  0.1496989E-007  0.1735248E+04  0.7818608E-02  0.8741512E-01
         -1   -1    0    0    0  501 -0.00000000000E+00  0.00000000000E+00  0.74681923930E+03  0.74681923930E+03  0.00000000000E+00 0.  1.
          1   -1    0    0  501    0  0.00000000000E+00 -0.00000000000E+00 -0.10079703295E+04  0.10079703295E+04  0.00000000000E+00 0. -1.
         23    2    1    2    0    0  0.60708003273E+03  0.44738431242E+02 -0.25844529508E+03  0.66768203108E+03  0.91965377740E+02 0.  0.
        254    2    1    2    0    0 -0.60708003273E+03 -0.44738431242E+02 -0.27057950730E+01  0.10871075377E+04  0.90069294645E+03 0.  0.
        -24    2    4    4    0    0 -0.10383112386E+03 -0.15325147567E+03  0.38719960122E+03  0.43649109116E+03  0.79586584328E+02 0.  0.
         24    2    4    4    0    0 -0.50324890887E+03  0.10851304442E+03 -0.38990539629E+03  0.65061644652E+03  0.78999983112E+02 0.  0.
         13    1    3    3    0    0  0.48134166165E+03  0.29328799286E+02 -0.16287978213E+03  0.50899881840E+03  0.00000000000E+00 0. -1.
        -13    1    3    3    0    0  0.12573837108E+03  0.15409631956E+02 -0.95565512955E+02  0.15868321268E+03  0.00000000000E+00 0.  1.
          4    1    6    6  502    0 -0.72898285852E+02  0.26560081049E+02 -0.94358705025E+02  0.12216039947E+03  0.00000000000E+00 0. -1.
          3    1    5    5  503    0 -0.28053647733E+02 -0.27332501842E+01  0.95934174359E+02  0.99989217507E+02  0.00000000000E+00 0. -1.
         -4    1    5    5    0  503 -0.75777476128E+02 -0.15051822548E+03  0.29126542686E+03  0.33650187366E+03  0.00000000000E+00 0.  1.
         -1    1    6    6    0  502 -0.43035062302E+03  0.81952963376E+02 -0.29554669127E+03  0.52845604705E+03  0.00000000000E+00 0.  1.
<mgrwt>
<rscale>  0 0.17352483E+04</rscale>
<asrwt>0</asrwt>
<pdfrwt beam="1">  1        1 0.15507236E+00 0.17352483E+04</pdfrwt>
<pdfrwt beam="2">  1       -1 0.11489527E+00 0.17352483E+04</pdfrwt>
<totfact> 0.97370181E+00</totfact>
</mgrwt>
</event>
<event>
12    1  0.1496989E-007  0.1278028E+04  0.7818608E-02  0.9047173E-01
         -2   -1    0    0    0  501 -0.00000000000E+00  0.00000000000E+00  0.58678416491E+03  0.58678416491E+03  0.00000000000E+00 0.  1.
          2   -1    0    0  501    0  0.00000000000E+00 -0.00000000000E+00 -0.69589242616E+03  0.69589242616E+03  0.00000000000E+00 0. -1.
         23    2    1    2    0    0  0.82917096870E+02 -0.36303582660E+02  0.27991560961E+03  0.30592909632E+03  0.83944436421E+02 0.  0.
        254    2    1    2    0    0 -0.82917096870E+02  0.36303582660E+02 -0.38902387085E+03  0.97674749475E+03  0.89134892233E+03 0.  0.
        -24    2    4    4    0    0 -0.25553504737E+03 -0.25035364931E+03  0.98719219739E+02  0.37955151372E+03  0.79616311543E+02 0.  0.
         24    2    4    4    0    0  0.17261795050E+03  0.28665723197E+03 -0.48774309059E+03  0.59719598103E+03  0.82343134940E+02 0.  0.
         13    1    3    3    0    0  0.79197033894E+02 -0.59129703740E+02  0.24345210831E+03  0.26274973089E+03  0.00000000000E+00 0.  1.
        -13    1    3    3    0    0  0.37200629754E+01  0.22826121079E+02  0.36463501293E+02  0.43179365426E+02  0.00000000000E+00 0. -1.
          2    1    6    6  502    0  0.13906533207E+03  0.18966111208E+03 -0.28140727061E+03  0.36674317441E+03  0.00000000000E+00 0. -1.
          1    1    5    5  503    0 -0.23266996941E+03 -0.19609575050E+03  0.63167046662E+02  0.31077151384E+03  0.00000000000E+00 0. -1.
         -2    1    5    5    0  503 -0.22865077962E+02 -0.54257898805E+02  0.35552173077E+02  0.68779999880E+02  0.00000000000E+00 0.  1.
         -3    1    6    6    0  502  0.33552618425E+02  0.96996119882E+02 -0.20633581998E+03  0.23045280663E+03  0.00000000000E+00 0.  1.
<mgrwt>
<rscale>  0 0.12780276E+04</rscale>
<asrwt>0</asrwt>
<pdfrwt beam="1">  1        2 0.10706037E+00 0.12780276E+04</pdfrwt>
<pdfrwt beam="2">  1       -2 0.90274487E-01 0.12780276E+04</pdfrwt>
<totfact> 0.42540644E+01</totfact>
</mgrwt>
</event>
<event>
12    1  0.1496989E-007  0.1659710E+04  0.7818608E-02  0.8784683E-01
          2   -1    0    0  501    0  0.00000000000E+00  0.00000000000E+00  0.74875209082E+03  0.74875209082E+03  0.00000000000E+00 0. -1.
         -2   -1    0    0    0  501 -0.00000000000E+00 -0.00000000000E+00 -0.91974248478E+03  0.91974248478E+03  0.00000000000E+00 0.  1.
         23    2    1    2    0    0  0.54267979681E+03 -0.13012673363E+03  0.97447649860E+02  0.57365755370E+03  0.90291836774E+02 0.  0.
        254    2    1    2    0    0 -0.54267979681E+03  0.13012673363E+03 -0.26843804382E+03  0.10948370219E+04  0.90287030766E+03 0.  0.
        -24    2    4    4    0    0 -0.76747519951E+03  0.64742383362E+02 -0.32694520630E+03  0.84052608301E+03  0.79882227271E+02 0.  0.
         24    2    4    4    0    0  0.22479540270E+03  0.65384350264E+02  0.58507162484E+02  0.25431093888E+03  0.80267547857E+02 0.  0.
         13    1    3    3    0    0  0.58326033741E+02 -0.36117362492E+01 -0.15523636933E+02  0.60464486720E+02  0.00000000000E+00 0.  1.
        -13    1    3    3    0    0  0.48435376307E+03 -0.12651499738E+03  0.11297128679E+03  0.51319306698E+03  0.00000000000E+00 0. -1.
          4    1    6    6  502    0  0.20329368608E+03  0.54975007827E+02  0.76863235733E+02  0.22418414595E+03  0.00000000000E+00 0. -1.
          3    1    5    5  503    0 -0.46002169254E+03  0.95295563059E+01 -0.22301657736E+03  0.51131904309E+03  0.00000000000E+00 0. -1.
         -4    1    5    5    0  503 -0.30745350696E+03  0.55212827056E+02 -0.10392862894E+03  0.32920703992E+03  0.00000000000E+00 0.  1.
         -3    1    6    6    0  502  0.21501716613E+02  0.10409342436E+02 -0.18356073248E+02  0.30126792932E+02  0.00000000000E+00 0.  1.
<mgrwt>
<rscale>  0 0.16597097E+04</rscale>
<asrwt>0</asrwt>
<pdfrwt beam="1">  1        2 0.11519263E+00 0.16597097E+04</pdfrwt>
<pdfrwt beam="2">  1       -2 0.14149884E+00 0.16597097E+04</pdfrwt>
<totfact> 0.12526640E+01</totfact>
</mgrwt>
</event>
<event>
12    1  0.1496989E-007  0.1533126E+04  0.7818608E-02  0.8862719E-01
          1   -1    0    0  501    0  0.00000000000E+00  0.00000000000E+00  0.14858522270E+04  0.14858522270E+04  0.00000000000E+00 0. -1.
         -1   -1    0    0    0  501 -0.00000000000E+00 -0.00000000000E+00 -0.39547595835E+03  0.39547595835E+03  0.00000000000E+00 0.  1.
         23    2    1    2    0    0  0.27019317464E+03  0.20158529705E+03  0.80980220511E+03  0.88195557538E+03  0.91788027150E+02 0.  0.
        254    2    1    2    0    0 -0.27019317464E+03 -0.20158529705E+03  0.28057406350E+03  0.99937260993E+03  0.89798820970E+03 0.  0.
        -24    2    4    4    0    0  0.75099544672E+01  0.31721240917E+03  0.23852586211E+03  0.40376018270E+03  0.73807765790E+02 0.  0.
         24    2    4    4    0    0 -0.27770312911E+03 -0.51879770622E+03  0.42048201398E+02  0.59561242723E+03  0.81951353495E+02 0.  0.
         13    1    3    3    0    0  0.14064447123E+03  0.59761280406E+02  0.42991312269E+03  0.45626480358E+03  0.00000000000E+00 0. -1.
        -13    1    3    3    0    0  0.12954870341E+03  0.14182401664E+03  0.37988908242E+03  0.42569077180E+03  0.00000000000E+00 0.  1.
          4    1    6    6  502    0 -0.16152749517E+03 -0.33028806387E+03  0.63609317159E+02  0.37313199013E+03  0.00000000000E+00 0. -1.
          3    1    5    5  503    0  0.31915584353E+02  0.23919491558E+03  0.15453065294E+03  0.28655284829E+03  0.00000000000E+00 0. -1.
         -4    1    5    5    0  503 -0.24405629886E+02  0.78017493584E+02  0.83995209170E+02  0.11720733441E+03  0.00000000000E+00 0.  1.
         -3    1    6    6    0  502 -0.11617563394E+03 -0.18850964235E+03 -0.21561115762E+02  0.22248043710E+03  0.00000000000E+00 0.  1.
<mgrwt>
<rscale>  0 0.15331260E+04</rscale>
<asrwt>0</asrwt>
<pdfrwt beam="1">  1        1 0.22859265E+00 0.15331260E+04</pdfrwt>
<pdfrwt beam="2">  1       -1 0.60842456E-01 0.15331260E+04</pdfrwt>
<totfact> 0.17684691E+01</totfact>
</mgrwt>
</event>
<event>
12    1  0.1496989E-007  0.1158396E+04  0.7818608E-02  0.9150073E-01
         -1   -1    0    0    0  501 -0.00000000000E+00  0.00000000000E+00  0.12634312076E+03  0.12634312076E+03  0.00000000000E+00 0.  1.
          1   -1    0    0  501    0  0.00000000000E+00 -0.00000000000E+00 -0.26552318785E+04  0.26552318785E+04  0.00000000000E+00 0. -1.
         23    2    1    2    0    0 -0.62258840141E+02  0.19204300823E+03 -0.66027060690E+03  0.69679878669E+03  0.93886072551E+02 0.  0.
        254    2    1    2    0    0  0.62258840141E+02 -0.19204300823E+03 -0.18686181508E+04  0.20847762126E+04  0.90210940725E+03 0.  0.
        -24    2    4    4    0    0  0.33245900183E+03 -0.30782555197E+03 -0.16418707670E+04  0.17051762644E+04  0.81246037587E+02 0.  0.
         24    2    4    4    0    0 -0.27020016168E+03  0.11578254373E+03 -0.22674738381E+03  0.37959994819E+03  0.79170826661E+02 0.  0.
         11    1    3    3    0    0 -0.57545915539E+01  0.13935911596E+03 -0.34336405000E+03  0.37061158827E+03  0.00000000000E+00 0. -1.
        -11    1    3    3    0    0 -0.56504248587E+02  0.52683892271E+02 -0.31690655689E+03  0.32618719842E+03  0.00000000000E+00 0.  1.
          2    1    6    6  502    0 -0.27161659748E+03  0.12135862295E+03 -0.22638310198E+03  0.37383525817E+03  0.00000000000E+00 0. -1.
          3    1    5    5  503    0  0.22260319099E+03 -0.15338549152E+03 -0.10021611537E+04  0.10379818243E+04  0.00000000000E+00 0. -1.
         -4    1    5    5    0  503  0.10985581083E+03 -0.15444006044E+03 -0.63970961334E+03  0.66719444005E+03  0.00000000000E+00 0.  1.
         -1    1    6    6    0  502  0.14164357973E+01 -0.55760792145E+01 -0.36428183440E+00  0.57646900202E+01  0.00000000000E+00 0.  1.
<mgrwt>
<rscale>  0 0.11583959E+04</rscale>
<asrwt>0</asrwt>
<pdfrwt beam="1">  1        1 0.40849727E+00 0.11583959E+04</pdfrwt>
<pdfrwt beam="2">  1       -1 0.19437401E-01 0.11583959E+04</pdfrwt>
<totfact> 0.22686431E+01</totfact>
</mgrwt>
</event>
<event>
12    1  0.1496989E-007  0.2780803E+04  0.7818608E-02  0.8309253E-01
         -2   -1    0    0    0  501 -0.00000000000E+00  0.00000000000E+00  0.56894759555E+03  0.56894759555E+03  0.00000000000E+00 0.  1.
          2   -1    0    0  501    0  0.00000000000E+00 -0.00000000000E+00 -0.33978823905E+04  0.33978823905E+04  0.00000000000E+00 0. -1.
         23    2    1    2    0    0  0.10932196029E+04  0.34129285775E+02 -0.42549065429E+03  0.11772083558E+04  0.92104873514E+02 0.  0.
        254    2    1    2    0    0 -0.10932196029E+04 -0.34129285775E+02 -0.24034441406E+04  0.27896216302E+04  0.89952831768E+03 0.  0.
        -24    2    4    4    0    0 -0.48352924124E+03 -0.33527924073E+03 -0.53370777450E+03  0.79847278401E+03  0.80635611505E+02 0.  0.
         24    2    4    4    0    0 -0.60969036167E+03  0.30114995495E+03 -0.18697363661E+04  0.19911488462E+04  0.79661888296E+02 0.  0.
         13    1    3    3    0    0  0.45731115273E+03 -0.24390753884E+02 -0.20335971491E+03  0.50108240134E+03  0.00000000000E+00 0.  1.
        -13    1    3    3    0    0  0.63590845018E+03  0.58520039658E+02 -0.22213093939E+03  0.67612595446E+03  0.00000000000E+00 0. -1.
          2    1    6    6  502    0 -0.58629178005E+03  0.29413658832E+03 -0.18347667871E+04  0.19484926346E+04  0.00000000000E+00 0. -1.
          1    1    5    5  503    0 -0.39589837052E+03 -0.29403330391E+03 -0.40972054854E+03  0.64114119466E+03  0.00000000000E+00 0. -1.
         -2    1    5    5    0  503 -0.87630870721E+02 -0.41245936818E+02 -0.12398722595E+03  0.15733158935E+03  0.00000000000E+00 0.  1.
         -1    1    6    6    0  502 -0.23398581622E+02  0.70133666313E+01 -0.34969579021E+02  0.42656211627E+02  0.00000000000E+00 0.  1.
<mgrwt>
<rscale>  0 0.27808035E+04</rscale>
<asrwt>0</asrwt>
<pdfrwt beam="1">  1        2 0.52275114E+00 0.27808035E+04</pdfrwt>
<pdfrwt beam="2">  1       -2 0.87530399E-01 0.27808035E+04</pdfrwt>
<totfact> 0.93913639E-01</totfact>
</mgrwt>
</event>
<event>
12    1  0.1496989E-007  0.1297659E+04  0.7818608E-02  0.9031424E-01
         -2   -1    0    0    0  501 -0.00000000000E+00  0.00000000000E+00  0.51026393008E+03  0.51026393008E+03  0.00000000000E+00 0.  1.
          2   -1    0    0  501    0  0.00000000000E+00 -0.00000000000E+00 -0.82502292504E+03  0.82502292504E+03  0.00000000000E+00 0. -1.
         23    2    1    2    0    0  0.12548312849E+03  0.28831676133E+03  0.61423224431E+01  0.32820030701E+03  0.93835723452E+02 0.  0.
        254    2    1    2    0    0 -0.12548312849E+03 -0.28831676133E+03 -0.32090131740E+03  0.10070865481E+04  0.90131741882E+03 0.  0.
        -24    2    4    4    0    0 -0.29883852595E+03  0.21295095262E+03  0.13050956908E+02  0.37523553711E+03  0.77322752245E+02 0.  0.
         24    2    4    4    0    0  0.17335539746E+03 -0.50126771395E+03 -0.33395227431E+03  0.63185101101E+03  0.79938499577E+02 0.  0.
         11    1    3    3    0    0  0.72697321326E+02  0.11841161765E+03 -0.39635457093E+02  0.14448938086E+03  0.00000000000E+00 0. -1.
        -11    1    3    3    0    0  0.52785807169E+02  0.16990514368E+03  0.45777779536E+02  0.18371092615E+03  0.00000000000E+00 0.  1.
          4    1    6    6  502    0  0.20000875715E+02 -0.25240157327E+02 -0.41394576669E+02  0.52446272974E+02  0.00000000000E+00 0. -1.
          3    1    5    5  503    0 -0.42523974366E+02  0.12034741391E+01  0.12424214553E+01  0.42559139524E+02  0.00000000000E+00 0. -1.
         -4    1    5    5    0  503 -0.25631455159E+03  0.21174747848E+03  0.11808535452E+02  0.33267639758E+03  0.00000000000E+00 0.  1.
         -3    1    6    6    0  502  0.15335452174E+03 -0.47602755662E+03 -0.29255769764E+03  0.57940473803E+03  0.00000000000E+00 0.  1.
<mgrwt>
<rscale>  0 0.12976586E+04</rscale>
<asrwt>0</asrwt>
<pdfrwt beam="1">  1        2 0.12692660E+00 0.12976586E+04</pdfrwt>
<pdfrwt beam="2">  1       -2 0.78502144E-01 0.12976586E+04</pdfrwt>
<totfact> 0.46750414E+01</totfact>
</mgrwt>
</event>
<event>
12    1  0.1496989E-007  0.1571707E+04  0.7818608E-02  0.8838121E-01
         -2   -1    0    0    0  501 -0.00000000000E+00  0.00000000000E+00  0.16909480072E+04  0.16909480072E+04  0.00000000000E+00 0.  1.
          2   -1    0    0  501    0  0.00000000000E+00 -0.00000000000E+00 -0.36521859480E+03  0.36521859480E+03  0.00000000000E+00 0. -1.
         23    2    1    2    0    0  0.55456929566E+03  0.11816344936E+03  0.44746362230E+03  0.72808001625E+03  0.91471921008E+02 0.  0.
        254    2    1    2    0    0 -0.55456929566E+03 -0.11816344936E+03  0.87826579008E+03  0.13280865857E+04  0.81911749870E+03 0.  0.
        -24    2    4    4    0    0 -0.66611001673E+03 -0.36410281752E+02  0.94147143002E+03  0.11566544368E+04  0.80329133642E+02 0.  0.
         24    2    4    4    0    0  0.11154072107E+03 -0.81753167604E+02 -0.63205639939E+02  0.17143214888E+03  0.79177748626E+02 0.  0.
         13    1    3    3    0    0  0.54922174623E+03  0.11618123794E+03  0.42284383759E+03  0.70280830784E+03  0.00000000000E+00 0. -1.
        -13    1    3    3    0    0  0.53475494340E+01  0.19822114166E+01  0.24619784713E+02  0.25271708418E+02  0.00000000000E+00 0.  1.
          2    1    6    6  502    0  0.11263307500E+03 -0.83182216018E+02 -0.36543994207E+02  0.14470989655E+03  0.00000000000E+00 0. -1.
          3    1    5    5  503    0 -0.66205351084E+03 -0.39605306744E+02  0.91740541979E+03  0.11320406953E+04  0.00000000000E+00 0. -1.
         -4    1    5    5    0  503 -0.40565058979E+01  0.31950249920E+01  0.24066010229E+02  0.24613741551E+02  0.00000000000E+00 0.  1.
         -1    1    6    6    0  502 -0.10923539285E+01  0.14290484136E+01 -0.26661645731E+02  0.26722252330E+02  0.00000000000E+00 0.  1.
<mgrwt>
<rscale>  0 0.15717069E+04</rscale>
<asrwt>0</asrwt>
<pdfrwt beam="1">  1        2 0.56187477E-01 0.15717069E+04</pdfrwt>
<pdfrwt beam="2">  1       -2 0.26014584E+00 0.15717069E+04</pdfrwt>
<totfact> 0.47178463E+00</totfact>
</mgrwt>
</event>
<event>
12    1  0.1496989E-007  0.1271482E+04  0.7818608E-02  0.9052491E-01
          2   -1    0    0  501    0  0.00000000000E+00  0.00000000000E+00  0.17996083680E+04  0.17996083680E+04  0.00000000000E+00 0. -1.
         -2   -1    0    0    0  501 -0.00000000000E+00 -0.00000000000E+00 -0.22458569934E+03  0.22458569934E+03  0.00000000000E+00 0.  1.
         23    2    1    2    0    0 -0.29600753972E+03  0.31021619112E+02  0.26004355088E+03  0.40586837580E+03  0.92323808968E+02 0.  0.
        254    2    1    2    0    0  0.29600753972E+03 -0.31021619112E+02  0.13149791178E+04  0.16183256915E+04  0.89511181384E+03 0.  0.
        -24    2    4    4    0    0  0.42712249928E+03  0.31837085369E+03  0.93892921537E+03  0.10824161228E+04  0.79012413267E+02 0.  0.
         24    2    4    4    0    0 -0.13111495957E+03 -0.34939247280E+03  0.37604990242E+03  0.53590956879E+03  0.80742207908E+02 0.  0.
         13    1    3    3    0    0 -0.13746250029E+03  0.24402996674E+02  0.63808047551E+02  0.15350215688E+03  0.00000000000E+00 0.  1.
        -13    1    3    3    0    0 -0.15854503942E+03  0.66186224378E+01  0.19623550333E+03  0.25236621893E+03  0.00000000000E+00 0. -1.
          4    1    6    6  502    0 -0.54746181844E+02 -0.54694266827E+02  0.76254826432E+02  0.10864348027E+03  0.00000000000E+00 0. -1.
          1    1    5    5  503    0  0.22763668120E+03  0.21383437843E+03  0.51248841942E+03  0.60015662961E+03  0.00000000000E+00 0. -1.
         -2    1    5    5    0  503  0.19948581809E+03  0.10453647526E+03  0.42644079594E+03  0.48225949314E+03  0.00000000000E+00 0.  1.
         -3    1    6    6    0  502 -0.76368777724E+02 -0.29469820598E+03  0.29979507599E+03  0.42726608853E+03  0.00000000000E+00 0.  1.
<mgrwt>
<rscale>  0 0.12714815E+04</rscale>
<asrwt>0</asrwt>
<pdfrwt beam="1">  1        2 0.27686282E+00 0.12714815E+04</pdfrwt>
<pdfrwt beam="2">  1       -2 0.34551647E-01 0.12714815E+04</pdfrwt>
<totfact> 0.66581121E+01</totfact>
</mgrwt>
</event>
<event>
12    1  0.1496989E-007  0.2081553E+04  0.7818608E-02  0.8569413E-01
          1   -1    0    0  501    0  0.00000000000E+00  0.00000000000E+00  0.18351537470E+04  0.18351537470E+04  0.00000000000E+00 0. -1.
         -1   -1    0    0    0  501 -0.00000000000E+00 -0.00000000000E+00 -0.59025907542E+03  0.59025907542E+03  0.00000000000E+00 0.  1.
         23    2    1    2    0    0 -0.65901457818E+03  0.52779447078E+03  0.48748484367E+03  0.97921500983E+03  0.91396635732E+02 0.  0.
        254    2    1    2    0    0  0.65901457818E+03 -0.52779447078E+03  0.75740982794E+03  0.14461978126E+04  0.89719075348E+03 0.  0.
        -24    2    4    4    0    0  0.49920082307E+03 -0.77409392632E+03  0.52071546051E+03  0.10610381945E+04  0.78959425196E+02 0.  0.
         24    2    4    4    0    0  0.15981375511E+03  0.24629945554E+03  0.23669436743E+03  0.38515961813E+03  0.78229468518E+02 0.  0.
         13    1    3    3    0    0 -0.66021701158E+02  0.31357616677E+02  0.65869018861E+02  0.98391528056E+02  0.00000000000E+00 0.  1.
        -13    1    3    3    0    0 -0.59299287703E+03  0.49643685410E+03  0.42161582481E+03  0.88082348177E+03  0.00000000000E+00 0. -1.
          4    1    6    6  502    0  0.15398032107E+03  0.21559150437E+03  0.17960771017E+03  0.32007587473E+03  0.00000000000E+00 0. -1.
          3    1    5    5  503    0  0.45263831219E+03 -0.65143302253E+03  0.44407642304E+03  0.90909311624E+03  0.00000000000E+00 0. -1.
         -4    1    5    5    0  503  0.46562510885E+02 -0.12266090378E+03  0.76639037471E+02  0.15194507824E+03  0.00000000000E+00 0.  1.
         -3    1    6    6    0  502  0.58334340438E+01  0.30707951172E+02  0.57086657265E+02  0.65083743405E+02  0.00000000000E+00 0.  1.
<mgrwt>
<rscale>  0 0.20815534E+04</rscale>
<asrwt>0</asrwt>
<pdfrwt beam="1">  1        1 0.28233134E+00 0.20815534E+04</pdfrwt>
<pdfrwt beam="2">  1       -1 0.90809089E-01 0.20815534E+04</pdfrwt>
<totfact> 0.42057587E+00</totfact>
</mgrwt>
</event>
<event>
12    1  0.1496989E-007  0.1859742E+04  0.7818608E-02  0.8675159E-01
          2   -1    0    0  501    0  0.00000000000E+00  0.00000000000E+00  0.81098330715E+03  0.81098330715E+03  0.00000000000E+00 0. -1.
         -2   -1    0    0    0  501 -0.00000000000E+00 -0.00000000000E+00 -0.10661869600E+04  0.10661869600E+04  0.00000000000E+00 0.  1.
         23    2    1    2    0    0 -0.60689968257E+03 -0.33630445732E+03 -0.18590076536E+03  0.72462508042E+03  0.95365087401E+02 0.  0.
        254    2    1    2    0    0  0.60689968257E+03  0.33630445732E+03 -0.69302887468E+02  0.11525451867E+04  0.91767619803E+03 0.  0.
        -24    2    4    4    0    0  0.53436423036E+03 -0.46354251239E+02 -0.36816117161E+03  0.65481398014E+03  0.74463769770E+02 0.  0.
         24    2    4    4    0    0  0.72535452210E+02  0.38265870856E+03  0.29885828414E+03  0.49773120655E+03  0.82042677351E+02 0.  0.
         13    1    3    3    0    0 -0.52399833134E+03 -0.32187570998E+03 -0.14907967737E+03  0.63277403086E+03  0.00000000000E+00 0. -1.
        -13    1    3    3    0    0 -0.82901351233E+02 -0.14428747349E+02 -0.36821087988E+02  0.91851049569E+02  0.00000000000E+00 0.  1.
          4    1    6    6  502    0 -0.25869614257E+01  0.12018058521E+03  0.57189390801E+02  0.13311908898E+03  0.00000000000E+00 0. -1.
          1    1    5    5  503    0  0.21867506793E+03 -0.43885507671E+02 -0.12009170343E+03  0.25331154800E+03  0.00000000000E+00 0. -1.
         -2    1    5    5    0  503  0.31568916244E+03 -0.24687435682E+01 -0.24806946818E+03  0.40150243214E+03  0.00000000000E+00 0.  1.
         -3    1    6    6    0  502  0.75122413636E+02  0.26247812335E+03  0.24166889334E+03  0.36461211757E+03  0.00000000000E+00 0.  1.
<mgrwt>
<rscale>  0 0.18597417E+04</rscale>
<asrwt>0</asrwt>
<pdfrwt beam="1">  1        2 0.12476666E+00 0.18597417E+04</pdfrwt>
<pdfrwt beam="2">  1       -2 0.16402876E+00 0.18597417E+04</pdfrwt>
<totfact> 0.74748617E+00</totfact>
</mgrwt>
</event>
<event>
12    1  0.1496989E-007  0.1512509E+04  0.7818608E-02  0.8876177E-01
         -2   -1    0    0    0  501 -0.00000000000E+00  0.00000000000E+00  0.28973302950E+03  0.28973302950E+03  0.00000000000E+00 0.  1.
          2   -1    0    0  501    0  0.00000000000E+00 -0.00000000000E+00 -0.19739589056E+04  0.19739589056E+04  0.00000000000E+00 0. -1.
         23    2    1    2    0    0  0.24941401136E+03  0.24590386134E+03 -0.10258159221E+04  0.10877968641E+04  0.91255977873E+02 0.  0.
        254    2    1    2    0    0 -0.24941401136E+03 -0.24590386134E+03 -0.65840995405E+03  0.11758950710E+04  0.90914767357E+03 0.  0.
        -24    2    4    4    0    0 -0.23410304426E+02  0.33061335387E+03 -0.15632624155E+03  0.37508174083E+03  0.79969909322E+02 0.  0.
         24    2    4    4    0    0 -0.22600370694E+03 -0.57651721521E+03 -0.50208371251E+03  0.80081333019E+03  0.75922068323E+02 0.  0.
         11    1    3    3    0    0  0.12476366806E+03  0.91205538695E+02 -0.56973896301E+03  0.59032779803E+03  0.00000000000E+00 0. -1.
        -11    1    3    3    0    0  0.12465034330E+03  0.15469832265E+03 -0.45607695907E+03  0.49746906608E+03  0.00000000000E+00 0.  1.
          2    1    6    6  502    0 -0.19421060844E+03 -0.54438525154E+03 -0.47490309317E+03  0.74806818568E+03  0.00000000000E+00 0. -1.
          1    1    5    5  503    0 -0.33987989103E+02  0.29356687692E+03 -0.11122510689E+03  0.31576529105E+03  0.00000000000E+00 0. -1.
         -2    1    5    5    0  503  0.10577684678E+02  0.37046476951E+02 -0.45101134654E+02  0.59316449782E+02  0.00000000000E+00 0.  1.
         -1    1    6    6    0  502 -0.31793098502E+02 -0.32131963669E+02 -0.27180619336E+02  0.52745144507E+02  0.00000000000E+00 0.  1.
<mgrwt>
<rscale>  0 0.15125093E+04</rscale>
<asrwt>0</asrwt>
<pdfrwt beam="1">  1        2 0.30368598E+00 0.15125093E+04</pdfrwt>
<pdfrwt beam="2">  1       -2 0.44574314E-01 0.15125093E+04</pdfrwt>
<totfact> 0.31836593E+01</totfact>
</mgrwt>
</event>
<event>
12    1  0.1496989E-007  0.2691688E+04  0.7818608E-02  0.8337707E-01
         -1   -1    0    0    0  501 -0.00000000000E+00  0.00000000000E+00  0.22776000984E+04  0.22776000984E+04  0.00000000000E+00 0.  1.
          1   -1    0    0  501    0  0.00000000000E+00 -0.00000000000E+00 -0.79526503845E+03  0.79526503845E+03  0.00000000000E+00 0. -1.
         23    2    1    2    0    0  0.98305901466E+03  0.40289166708E+03  0.43716546894E+02  0.10673895631E+04  0.93180584462E+02 0.  0.
        254    2    1    2    0    0 -0.98305901466E+03 -0.40289166708E+03  0.14386185131E+04  0.20054755737E+04  0.90751436843E+03 0.  0.
        -24    2    4    4    0    0 -0.35694200458E+03 -0.46025194541E+03  0.11848448975E+04  0.13228529213E+04  0.82722260528E+02 0.  0.
         24    2    4    4    0    0 -0.62611701008E+03  0.57360278323E+02  0.25377361557E+03  0.68262265242E+03  0.79119692764E+02 0.  0.
         11    1    3    3    0    0  0.71812352242E+03  0.31577617740E+03  0.68101863822E+02  0.78743498241E+03  0.00000000000E+00 0.  1.
        -11    1    3    3    0    0  0.26493549224E+03  0.87115489689E+02 -0.24385316927E+02  0.27995458073E+03  0.00000000000E+00 0. -1.
          2    1    6    6  502    0 -0.55996902886E+03  0.73345390842E+02  0.21495040838E+03  0.60427521685E+03  0.00000000000E+00 0. -1.
          3    1    5    5  503    0 -0.31800117251E+03 -0.41996025121E+03  0.11160716821E+04  0.12341423572E+04  0.00000000000E+00 0. -1.
         -4    1    5    5    0  503 -0.38940832074E+02 -0.40291694195E+02  0.68773215446E+02  0.88710564120E+02  0.00000000000E+00 0.  1.
         -1    1    6    6    0  502 -0.66147981223E+02 -0.15985112520E+02  0.38823207195E+02  0.78347435562E+02  0.00000000000E+00 0.  1.
<mgrwt>
<rscale>  0 0.26916877E+04</rscale>
<asrwt>0</asrwt>
<pdfrwt beam="1">  1        1 0.12234847E+00 0.26916877E+04</pdfrwt>
<pdfrwt beam="2">  1       -1 0.35040001E+00 0.26916877E+04</pdfrwt>
<totfact> 0.30119401E-01</totfact>
</mgrwt>
</event>
<event>
12    1  0.1496989E-007  0.1441177E+04  0.7818608E-02  0.8924540E-01
         -2   -1    0    0    0  501 -0.00000000000E+00  0.00000000000E+00  0.12073549399E+04  0.12073549399E+04  0.00000000000E+00 0.  1.
          2   -1    0    0  501    0  0.00000000000E+00 -0.00000000000E+00 -0.43007081965E+03  0.43007081965E+03  0.00000000000E+00 0. -1.
         23    2    1    2    0    0  0.16620493738E+03 -0.33092385740E+03  0.41618284867E+03  0.56439949243E+03  0.90575619897E+02 0.  0.
        254    2    1    2    0    0 -0.16620493738E+03  0.33092385740E+03  0.36110127154E+03  0.10730262671E+04  0.94013645869E+03 0.  0.
        -24    2    4    4    0    0  0.38406052285E+03  0.15904793709E+03  0.95610740659E+02  0.43367088932E+03  0.78296200501E+02 0.  0.
         24    2    4    4    0    0 -0.55026546022E+03  0.17187592031E+03  0.26549053088E+03  0.63935537777E+03  0.77179455818E+02 0.  0.
         11    1    3    3    0    0  0.13263815108E+03 -0.21139576074E+03  0.32786266592E+03  0.41203758868E+03  0.00000000000E+00 0.  1.
        -11    1    3    3    0    0  0.33566786303E+02 -0.11952809665E+03  0.88320182757E+02  0.15236190375E+03  0.00000000000E+00 0. -1.
          2    1    6    6  502    0 -0.91920142298E+02  0.50414508110E+02  0.72263076838E+02  0.12732983728E+03  0.00000000000E+00 0. -1.
          1    1    5    5  503    0  0.44456914382E+02  0.30968111298E+02 -0.11205044135E+02  0.55326252067E+02  0.00000000000E+00 0. -1.
         -2    1    5    5    0  503  0.33960360846E+03  0.12807982579E+03  0.10681578479E+03  0.37834463725E+03  0.00000000000E+00 0.  1.
         -1    1    6    6    0  502 -0.45834531793E+03  0.12146141220E+03  0.19322745404E+03  0.51202554049E+03  0.00000000000E+00 0.  1.
<mgrwt>
<rscale>  0 0.14411775E+04</rscale>
<asrwt>0</asrwt>
<pdfrwt beam="1">  1        2 0.66164742E-01 0.14411775E+04</pdfrwt>
<pdfrwt beam="2">  1       -2 0.18574691E+00 0.14411775E+04</pdfrwt>
<totfact> 0.11756639E+01</totfact>
</mgrwt>
</event>
<event>
12    1  0.1496989E-007  0.2106697E+04  0.7818608E-02  0.8558299E-01
         -2   -1    0    0    0  501 -0.00000000000E+00  0.00000000000E+00  0.58690562389E+03  0.58690562389E+03  0.00000000000E+00 0.  1.
          2   -1    0    0  501    0  0.00000000000E+00 -0.00000000000E+00 -0.18904972278E+04  0.18904972278E+04  0.00000000000E+00 0. -1.
         23    2    1    2    0    0  0.23229267202E+03 -0.47546474299E+03 -0.13348425689E+04  0.14388452779E+04  0.91893648860E+02 0.  0.
        254    2    1    2    0    0 -0.23229267202E+03  0.47546474299E+03  0.31250964931E+02  0.10385575738E+04  0.89308376096E+03 0.  0.
        -24    2    4    4    0    0  0.25942493848E+03 -0.70789022793E+01  0.18325242271E+03  0.32846628663E+03  0.83410080117E+02 0.  0.
         24    2    4    4    0    0 -0.49171761049E+03  0.48254364527E+03 -0.15200145778E+03  0.71009128721E+03  0.80564352887E+02 0.  0.
         13    1    3    3    0    0  0.32340011841E+02 -0.15291649554E+03 -0.34525890308E+03  0.37898950002E+03  0.00000000000E+00 0. -1.
        -13    1    3    3    0    0  0.19995266017E+03 -0.32254824745E+03 -0.98958366581E+03  0.10598557779E+04  0.00000000000E+00 0.  1.
          2    1    6    6  502    0 -0.38970008692E+03  0.38057492089E+03 -0.85939458286E+02  0.55144267032E+03  0.00000000000E+00 0. -1.
          1    1    5    5  503    0  0.20113409248E+03  0.12397521634E+02  0.17414528673E+03  0.26633663396E+03  0.00000000000E+00 0. -1.
         -2    1    5    5    0  503  0.58290845996E+02 -0.19476423913E+02  0.91071359814E+01  0.62129652672E+02  0.00000000000E+00 0.  1.
         -1    1    6    6    0  502 -0.10201752358E+03  0.10196872437E+03 -0.66061999490E+02  0.15864861690E+03  0.00000000000E+00 0.  1.
<mgrwt>
<rscale>  0 0.21066974E+04</rscale>
<asrwt>0</asrwt>
<pdfrwt beam="1">  1        2 0.29084573E+00 0.21066974E+04</pdfrwt>
<pdfrwt beam="2">  1       -2 0.90293173E-01 0.21066974E+04</pdfrwt>
<totfact> 0.74251393E+00</totfact>
</mgrwt>
</event>
<event>
12    1  0.1496989E-007  0.1889112E+04  0.7818608E-02  0.8660295E-01
         -2   -1    0    0    0  501 -0.00000000000E+00  0.00000000000E+00  0.10318187147E+04  0.10318187147E+04  0.00000000000E+00 0.  1.
          2   -1    0    0  501    0  0.00000000000E+00 -0.00000000000E+00 -0.86467284182E+03  0.86467284182E+03  0.00000000000E+00 0. -1.
         23    2    1    2    0    0  0.59760534579E+03  0.40085974407E+03 -0.20446282999E+01  0.72534434477E+03  0.91101889420E+02 0.  0.
        254    2    1    2    0    0 -0.59760534579E+03 -0.40085974407E+03  0.16919050121E+03  0.11711472118E+04  0.90837199551E+03 0.  0.
        -24    2    4    4    0    0 -0.38347110731E+03 -0.45614175780E+03  0.48838418840E+03  0.77447650111E+03  0.78608790473E+02 0.  0.
         24    2    4    4    0    0 -0.21413423848E+03  0.55282013729E+02 -0.31919368719E+03  0.39667071067E+03  0.80953502879E+02 0.  0.
         13    1    3    3    0    0 -0.21873804852E+01  0.22230334687E+01 -0.41097035792E+01  0.51590866148E+01  0.00000000000E+00 0. -1.
        -13    1    3    3    0    0  0.59979272628E+03  0.39863671060E+03  0.20650752793E+01  0.72018525816E+03  0.00000000000E+00 0.  1.
          2    1    6    6  502    0 -0.19814041285E+03  0.65318561481E+02 -0.31416863521E+03  0.37713136839E+03  0.00000000000E+00 0. -1.
          1    1    5    5  503    0 -0.37759642092E+03 -0.43509208468E+03  0.48345740307E+03  0.75207395901E+03  0.00000000000E+00 0. -1.
         -2    1    5    5    0  503 -0.58746863912E+01 -0.21049673120E+02  0.49267853294E+01  0.22402542095E+02  0.00000000000E+00 0.  1.
         -1    1    6    6    0  502 -0.15993825636E+02 -0.10036547752E+02 -0.50250519851E+01  0.19539342279E+02  0.00000000000E+00 0.  1.
<mgrwt>
<rscale>  0 0.18891116E+04</rscale>
<asrwt>0</asrwt>
<pdfrwt beam="1">  1        2 0.13302659E+00 0.18891116E+04</pdfrwt>
<pdfrwt beam="2">  1       -2 0.15874134E+00 0.18891116E+04</pdfrwt>
<totfact> 0.74765517E+00</totfact>
</mgrwt>
</event>
<event>
12    1  0.1496989E-007  0.2102061E+04  0.7818608E-02  0.8560336E-01
          3   -1    0    0  501    0  0.00000000000E+00  0.00000000000E+00  0.11338497615E+04  0.11338497615E+04  0.00000000000E+00 0. -1.
         -3   -1    0    0    0  501 -0.00000000000E+00 -0.00000000000E+00 -0.97426067744E+03  0.97426067744E+03  0.00000000000E+00 0.  1.
         23    2    1    2    0    0 -0.13344474748E+03 -0.57166404093E+03  0.69859910498E+03  0.91701240820E+03  0.90905285839E+02 0.  0.
        254    2    1    2    0    0  0.13344474748E+03  0.57166404093E+03 -0.53901002096E+03  0.11910980307E+04  0.88519796639E+03 0.  0.
        -24    2    4    4    0    0 -0.51695865495E+02  0.45255438848E+03 -0.74693940031E+03  0.87868909781E+03  0.81842078544E+02 0.  0.
         24    2    4    4    0    0  0.18514061298E+03  0.11910965245E+03  0.20792937935E+03  0.31240893288E+03  0.76815094011E+02 0.  0.
         13    1    3    3    0    0 -0.31241805815E+02 -0.17093882969E+03  0.14703979185E+03  0.22763311339E+03  0.00000000000E+00 0.  1.
        -13    1    3    3    0    0 -0.10220294167E+03 -0.40072521124E+03  0.55155931313E+03  0.68937929481E+03  0.00000000000E+00 0. -1.
          2    1    6    6  502    0  0.99848177501E+02  0.95811919666E+02  0.16103760855E+03  0.21232685621E+03  0.00000000000E+00 0. -1.
          3    1    5    5  503    0  0.38689399506E+01  0.30116306534E+03 -0.47031242031E+03  0.55848718277E+03  0.00000000000E+00 0. -1.
         -4    1    5    5    0  503 -0.55564805445E+02  0.15139132314E+03 -0.27662698000E+03  0.32020191503E+03  0.00000000000E+00 0.  1.
         -1    1    6    6    0  502  0.85292435477E+02  0.23297732783E+02  0.46891770800E+02  0.10008207667E+03  0.00000000000E+00 0.  1.
<mgrwt>
<rscale>  0 0.21020611E+04</rscale>
<asrwt>0</asrwt>
<pdfrwt beam="1">  1        3 0.17443842E+00 0.21020611E+04</pdfrwt>
<pdfrwt beam="2">  1       -3 0.14988626E+00 0.21020611E+04</pdfrwt>
<totfact> 0.16836031E-01</totfact>
</mgrwt>
</event>
<event>
12    1  0.1496989E-007  0.1281101E+04  0.7818608E-02  0.9044688E-01
          2   -1    0    0  501    0  0.00000000000E+00  0.00000000000E+00  0.93935111684E+03  0.93935111684E+03  0.00000000000E+00 0.  1.
         -2   -1    0    0    0  501 -0.00000000000E+00 -0.00000000000E+00 -0.43679613267E+03  0.43679613267E+03  0.00000000000E+00 0. -1.
         23    2    1    2    0    0  0.82309653569E+02  0.33732908768E+03  0.11476335237E+03  0.37691037744E+03  0.91241509803E+02 0.  0.
        254    2    1    2    0    0 -0.82309653569E+02 -0.33732908768E+03  0.38779163179E+03  0.99923687207E+03  0.85295145486E+03 0.  0.
        -24    2    4    4    0    0 -0.12316411998E+03 -0.39638178458E+03  0.61594148314E+03  0.74708158157E+03  0.80368272807E+02 0.  0.
         24    2    4    4    0    0  0.40854466408E+02  0.59052696900E+02 -0.22814985135E+03  0.25215529050E+03  0.79835001232E+02 0.  0.
         11    1    3    3    0    0  0.41185996320E+02  0.11235621023E+03 -0.29299998142E+01  0.11970292047E+03  0.00000000000E+00 0. -1.
        -11    1    3    3    0    0  0.41123657249E+02  0.22497287745E+03  0.11769335219E+03  0.25720745697E+03  0.00000000000E+00 0.  1.
          4    1    6    6  502    0  0.58794646047E+02  0.57952317597E+02 -0.21370521581E+03  0.22909648793E+03  0.00000000000E+00 0. -1.
          3    1    5    5  503    0 -0.10055122518E+03 -0.23831228604E+03  0.32676310771E+03  0.41674623349E+03  0.00000000000E+00 0. -1.
         -4    1    5    5    0  503 -0.22612894801E+02 -0.15806949853E+03  0.28917837543E+03  0.33033534808E+03  0.00000000000E+00 0.  1.
         -3    1    6    6    0  502 -0.17940179640E+02  0.11003793021E+01 -0.14444635536E+02  0.23058802568E+02  0.00000000000E+00 0.  1.
<mgrwt>
<rscale>  0 0.12811010E+04</rscale>
<asrwt>0</asrwt>
<pdfrwt beam="1">  1        2 0.14451556E+00 0.12811010E+04</pdfrwt>
<pdfrwt beam="2">  1       -2 0.67199405E-01 0.12811010E+04</pdfrwt>
<totfact> 0.55037707E+01</totfact>
</mgrwt>
</event>
<event>
12    1  0.1496989E-007  0.2497551E+04  0.7818608E-02  0.8403858E-01
          1   -1    0    0  501    0  0.00000000000E+00  0.00000000000E+00  0.11577351677E+04  0.11577351677E+04  0.00000000000E+00 0. -1.
         -1   -1    0    0    0  501 -0.00000000000E+00 -0.00000000000E+00 -0.13469751379E+04  0.13469751379E+04  0.00000000000E+00 0.  1.
         23    2    1    2    0    0 -0.27920681660E+03 -0.33610308486E+03 -0.11054023614E+04  0.11923000343E+04  0.93505407101E+02 0.  0.
        254    2    1    2    0    0  0.27920681660E+03  0.33610308486E+03  0.91616239118E+03  0.13124102713E+04  0.83195280098E+03 0.  0.
        -24    2    4    4    0    0 -0.28693539357E+03  0.66211735997E+02  0.26502513080E+03  0.40409419931E+03  0.79610852870E+02 0.  0.
         24    2    4    4    0    0  0.56614221017E+03  0.26989134887E+03  0.65113726038E+03  0.90831607197E+03  0.87749714617E+02 0.  0.
         11    1    3    3    0    0 -0.25016341538E+03 -0.33314529683E+03 -0.10106359552E+04  0.10931388553E+04  0.00000000000E+00 0.  1.
        -11    1    3    3    0    0 -0.29043401221E+02 -0.29577880302E+01 -0.94766406223E+02  0.99161178961E+02  0.00000000000E+00 0. -1.
          2    1    6    6  502    0  0.50051633589E+03  0.24598618710E+03  0.53515476366E+03  0.77292718144E+03  0.00000000000E+00 0. -1.
          3    1    5    5  503    0 -0.23314560350E+03  0.84420934360E+02  0.20849847724E+03  0.32396817992E+03  0.00000000000E+00 0. -1.
         -4    1    5    5    0  503 -0.53789790073E+02 -0.18209198363E+02  0.56526653558E+02  0.80126019392E+02  0.00000000000E+00 0.  1.
         -1    1    6    6    0  502  0.65625874274E+02  0.23905161765E+02  0.11598249672E+03  0.13538889053E+03  0.00000000000E+00 0.  1.
<mgrwt>
<rscale>  0 0.24975512E+04</rscale>
<asrwt>0</asrwt>
<pdfrwt beam="1">  1        1 0.17811310E+00 0.24975512E+04</pdfrwt>
<pdfrwt beam="2">  1       -1 0.20722694E+00 0.24975512E+04</pdfrwt>
<totfact> 0.13696334E+00</totfact>
</mgrwt>
</event>
<event>
12    1  0.1496989E-007  0.1689649E+04  0.7818608E-02  0.8767290E-01
          1   -1    0    0  501    0  0.00000000000E+00  0.00000000000E+00  0.83963513300E+03  0.83963513300E+03  0.00000000000E+00 0. -1.
         -1   -1    0    0    0  501 -0.00000000000E+00 -0.00000000000E+00 -0.85004606890E+03  0.85004606890E+03  0.00000000000E+00 0.  1.
         23    2    1    2    0    0  0.23083426986E+03  0.59371787145E+02 -0.55117041663E+03  0.60718574618E+03  0.89867863797E+02 0.  0.
        254    2    1    2    0    0 -0.23083426986E+03 -0.59371787145E+02  0.54075948073E+03  0.10824954557E+04  0.90695431329E+03 0.  0.
        -24    2    4    4    0    0 -0.14950925846E+03 -0.30575664740E+03  0.68955623477E+03  0.77314971124E+03  0.80203050355E+02 0.  0.
         24    2    4    4    0    0 -0.81325011405E+02  0.24638486026E+03 -0.14879675403E+03  0.30934574448E+03  0.78962388338E+02 0.  0.
         13    1    3    3    0    0  0.11981839488E+03  0.56746377572E+02 -0.20952455445E+03  0.24794583690E+03  0.00000000000E+00 0.  1.
        -13    1    3    3    0    0  0.11101587499E+03  0.26254095736E+01 -0.34164586218E+03  0.35923990928E+03  0.00000000000E+00 0. -1.
          4    1    6    6  502    0 -0.44817251678E+02  0.36367396403E+02 -0.38015965048E+02  0.69111411269E+02  0.00000000000E+00 0. -1.
          3    1    5    5  503    0 -0.19269059549E+02 -0.86898736733E+01  0.79028944449E+02  0.81806996162E+02  0.00000000000E+00 0. -1.
         -4    1    5    5    0  503 -0.13024019891E+03 -0.29706677373E+03  0.61052729032E+03  0.69134271508E+03  0.00000000000E+00 0.  1.
         -3    1    6    6    0  502 -0.36507759727E+02  0.21001746385E+03 -0.11078078899E+03  0.24023433321E+03  0.00000000000E+00 0.  1.
<mgrwt>
<rscale>  0 0.16896491E+04</rscale>
<asrwt>0</asrwt>
<pdfrwt beam="1">  1        1 0.12917464E+00 0.16896491E+04</pdfrwt>
<pdfrwt beam="2">  1       -1 0.13077632E+00 0.16896491E+04</pdfrwt>
<totfact> 0.97257305E+00</totfact>
</mgrwt>
</event>
<event>
12    1  0.1496989E-007  0.1673732E+04  0.7818608E-02  0.8776489E-01
          2   -1    0    0  501    0  0.00000000000E+00  0.00000000000E+00  0.14514296925E+04  0.14514296925E+04  0.00000000000E+00 0.  1.
         -2   -1    0    0    0  501 -0.00000000000E+00 -0.00000000000E+00 -0.48252072413E+03  0.48252072413E+03  0.00000000000E+00 0. -1.
         23    2    1    2    0    0  0.22722319602E+03 -0.46411719924E+03  0.20785908368E+02  0.52576076237E+03  0.94642325749E+02 0.  0.
        254    2    1    2    0    0 -0.22722319602E+03  0.46411719924E+03  0.94812306000E+03  0.14081896543E+04  0.90389468966E+03 0.  0.
        -24    2    4    4    0    0 -0.16994672062E+03  0.31406656319E+03  0.11087188248E+04  0.11673954548E+04  0.77685400139E+02 0.  0.
         24    2    4    4    0    0 -0.57276475394E+02  0.15005063605E+03 -0.16059576479E+03  0.24079419949E+03  0.79969111694E+02 0.  0.
         13    1    3    3    0    0  0.20096167000E+03 -0.41398026919E+03  0.48523844049E+02  0.46273082838E+03  0.00000000000E+00 0. -1.
        -13    1    3    3    0    0  0.26261526023E+02 -0.50136930050E+02 -0.27737935681E+02  0.63029933997E+02  0.00000000000E+00 0.  1.
          4    1    6    6  502    0  0.18815652457E+02  0.51621519397E+02 -0.46287555851E+02  0.71842521315E+02  0.00000000000E+00 0. -1.
          3    1    5    5  503    0 -0.78805356127E+02  0.14038687443E+03  0.37901033052E+03  0.41178585370E+03  0.00000000000E+00 0. -1.
         -4    1    5    5    0  503 -0.91141364496E+02  0.17367968876E+03  0.72970849427E+03  0.75560960106E+03  0.00000000000E+00 0.  1.
         -3    1    6    6    0  502 -0.76092127852E+02  0.98429116654E+02 -0.11430820894E+03  0.16895167817E+03  0.00000000000E+00 0.  1.
<mgrwt>
<rscale>  0 0.16737322E+04</rscale>
<asrwt>0</asrwt>
<pdfrwt beam="1">  1        2 0.22329687E+00 0.16737322E+04</pdfrwt>
<pdfrwt beam="2">  1       -2 0.74233958E-01 0.16737322E+04</pdfrwt>
<totfact> 0.21065771E+01</totfact>
</mgrwt>
</event>
<event>
12    1  0.1496989E-007  0.2235363E+04  0.7818608E-02  0.8503852E-01
         -1   -1    0    0    0  501 -0.00000000000E+00  0.00000000000E+00  0.15798143036E+04  0.15798143036E+04  0.00000000000E+00 0.  1.
          1   -1    0    0  501    0  0.00000000000E+00 -0.00000000000E+00 -0.79073358228E+03  0.79073358228E+03  0.00000000000E+00 0. -1.
         23    2    1    2    0    0  0.90132609366E+03 -0.95745729971E+02  0.58408981536E+03  0.10820743399E+04  0.90376948374E+02 0.  0.
        254    2    1    2    0    0 -0.90132609366E+03  0.95745729971E+02  0.20499090594E+03  0.12884735459E+04  0.89251713437E+03 0.  0.
        -24    2    4    4    0    0 -0.10316692344E+03 -0.28918717062E+03  0.24142485899E+03  0.39811141214E+03  0.77033111030E+02 0.  0.
         24    2    4    4    0    0 -0.79815917022E+03  0.38493290059E+03 -0.36433953048E+02  0.89036213380E+03  0.78650476239E+02 0.  0.
         11    1    3    3    0    0  0.90115641179E+03 -0.99862036983E+02  0.58030565217E+03  0.10764803551E+04  0.00000000000E+00 0. -1.
        -11    1    3    3    0    0  0.16968186953E+00  0.41163070122E+01  0.37841631895E+01  0.55939848410E+01  0.00000000000E+00 0.  1.
          4    1    6    6  502    0 -0.58275272128E+03  0.28165329855E+03  0.84159641606E+01  0.64730220392E+03  0.00000000000E+00 0. -1.
          1    1    5    5  503    0 -0.24290230933E+02 -0.40425561470E+02  0.77098815114E+01  0.47787902359E+02  0.00000000000E+00 0. -1.
         -2    1    5    5    0  503 -0.78876692507E+02 -0.24876160915E+03  0.23371497748E+03  0.35032350978E+03  0.00000000000E+00 0.  1.
         -3    1    6    6    0  502 -0.21540644894E+03  0.10327960204E+03 -0.44849917209E+02  0.24305992989E+03  0.00000000000E+00 0.  1.
<mgrwt>
<rscale>  0 0.22353633E+04</rscale>
<asrwt>0</asrwt>
<pdfrwt beam="1">  1        1 0.12165132E+00 0.22353633E+04</pdfrwt>
<pdfrwt beam="2">  1       -1 0.24304835E+00 0.22353633E+04</pdfrwt>
<totfact> 0.15851182E+00</totfact>
</mgrwt>
</event>
<event>
12    1  0.1496989E-007  0.1528273E+04  0.7818608E-02  0.8865866E-01
         -1   -1    0    0    0  501 -0.00000000000E+00  0.00000000000E+00  0.37130243056E+03  0.37130243056E+03  0.00000000000E+00 0.  1.
          1   -1    0    0  501    0  0.00000000000E+00 -0.00000000000E+00 -0.15725857308E+04  0.15725857308E+04  0.00000000000E+00 0. -1.
         23    2    1    2    0    0  0.36300136510E+02 -0.24382814108E+02  0.23042120023E+03  0.25033331959E+03  0.87524967009E+02 0.  0.
        254    2    1    2    0    0 -0.36300136510E+02  0.24382814108E+02 -0.14317045005E+04  0.16935548418E+04  0.90356958998E+03 0.  0.
        -24    2    4    4    0    0  0.23124283348E+03 -0.35507526161E+03 -0.74303336357E+03  0.85919210495E+03  0.80998792597E+02 0.  0.
         24    2    4    4    0    0 -0.26754296999E+03  0.37945807571E+03 -0.68867113694E+03  0.83436273686E+03  0.79533450774E+02 0.  0.
         11    1    3    3    0    0  0.29660514669E+02 -0.56771465626E+02  0.13699584865E+03  0.15123031438E+03  0.00000000000E+00 0. -1.
        -11    1    3    3    0    0  0.66396218419E+01  0.32388651517E+02  0.93425351571E+02  0.99103005209E+02  0.00000000000E+00 0.  1.
          2    1    6    6  502    0 -0.18070540662E+03  0.31325371155E+03 -0.53956878581E+03  0.64955123462E+03  0.00000000000E+00 0. -1.
          3    1    5    5  503    0  0.15245061599E+03 -0.27765197924E+03 -0.59989925618E+03  0.67838847975E+03  0.00000000000E+00 0. -1.
         -4    1    5    5    0  503  0.78792217498E+02 -0.77423282366E+02 -0.14313410739E+03  0.18080362521E+03  0.00000000000E+00 0.  1.
         -1    1    6    6    0  502 -0.86837563373E+02  0.66204364166E+02 -0.14910235113E+03  0.18481150224E+03  0.00000000000E+00 0.  1.
<mgrwt>
<rscale>  0 0.15282734E+04</rscale>
<asrwt>0</asrwt>
<pdfrwt beam="1">  1        1 0.24193627E+00 0.15282734E+04</pdfrwt>
<pdfrwt beam="2">  1       -1 0.57123451E-01 0.15282734E+04</pdfrwt>
<totfact> 0.17452682E+01</totfact>
</mgrwt>
</event>
<event>
12    1  0.1496989E-007  0.2483013E+04  0.7818608E-02  0.8409062E-01
         -1   -1    0    0    0  501 -0.00000000000E+00  0.00000000000E+00  0.12924001216E+04  0.12924001216E+04  0.00000000000E+00 0.  1.
          1   -1    0    0  501    0  0.00000000000E+00 -0.00000000000E+00 -0.11926168922E+04  0.11926168922E+04  0.00000000000E+00 0. -1.
         23    2    1    2    0    0  0.14310696332E+03 -0.57322930483E+03 -0.84916211688E+03  0.10385486806E+04  0.91845644676E+02 0.  0.
        254    2    1    2    0    0 -0.14310696332E+03  0.57322930483E+03  0.94894534622E+03  0.14464683332E+04  0.91798797918E+03 0.  0.
        -24    2    4    4    0    0 -0.13481024597E+03 -0.13061733778E+03  0.64258174041E+03  0.67414929136E+03  0.79569357071E+02 0.  0.
         24    2    4    4    0    0 -0.82967173547E+01  0.70384664261E+03  0.30636360581E+03  0.77231904182E+03  0.84552418995E+02 0.  0.
         13    1    3    3    0    0  0.12348446858E+02 -0.23443999832E+03 -0.33580617489E+03  0.40973208813E+03  0.00000000000E+00 0.  1.
        -13    1    3    3    0    0  0.13075851647E+03 -0.33878930650E+03 -0.51335594200E+03  0.62881659251E+03  0.00000000000E+00 0. -1.
          2    1    6    6  502    0 -0.10108175957E+02  0.63596578646E+02  0.54307782757E+02  0.84237968308E+02  0.00000000000E+00 0. -1.
          1    1    5    5  503    0  0.54292416111E+01  0.46044272819E+01  0.10186615535E+02  0.12427572213E+02  0.00000000000E+00 0. -1.
         -2    1    5    5    0  503 -0.14023948758E+03 -0.13522176507E+03  0.63239512487E+03  0.66172171915E+03  0.00000000000E+00 0.  1.
         -1    1    6    6    0  502  0.18114586022E+01  0.64025006396E+03  0.25205582305E+03  0.68808107351E+03  0.00000000000E+00 0.  1.
<mgrwt>
<rscale>  0 0.24830129E+04</rscale>
<asrwt>0</asrwt>
<pdfrwt beam="1">  1        1 0.18347952E+00 0.24830129E+04</pdfrwt>
<pdfrwt beam="2">  1       -1 0.19883079E+00 0.24830129E+04</pdfrwt>
<totfact> 0.14760564E+00</totfact>
</mgrwt>
</event>
<event>
12    1  0.1496989E-007  0.1462779E+04  0.7818608E-02  0.8909588E-01
         -2   -1    0    0    0  501 -0.00000000000E+00  0.00000000000E+00  0.63556442199E+03  0.63556442199E+03  0.00000000000E+00 0.  1.
          2   -1    0    0  501    0  0.00000000000E+00 -0.00000000000E+00 -0.84166283807E+03  0.84166283807E+03  0.00000000000E+00 0. -1.
         23    2    1    2    0    0 -0.11437206257E+03 -0.39799403773E+03 -0.23289745904E+03  0.48388530428E+03  0.91779837162E+02 0.  0.
        254    2    1    2    0    0  0.11437206257E+03  0.39799403773E+03  0.26799042958E+02  0.99334195578E+03  0.90251306342E+03 0.  0.
        -24    2    4    4    0    0 -0.35543213351E+03  0.29601354001E+03  0.14578925323E+03  0.49171097833E+03  0.81050369862E+02 0.  0.
         24    2    4    4    0    0  0.46980419608E+03  0.10198049772E+03 -0.11899021027E+03  0.50163097744E+03  0.79743105160E+02 0.  0.
         11    1    3    3    0    0 -0.99303640225E+02 -0.32678707906E+03 -0.22857854835E+03  0.41097343074E+03  0.00000000000E+00 0. -1.
        -11    1    3    3    0    0 -0.15068422342E+02 -0.71206958664E+02 -0.43189106852E+01  0.72911873543E+02  0.00000000000E+00 0.  1.
          2    1    6    6  502    0  0.11531885608E+03 -0.91790341242E+01 -0.23435609852E+02  0.11803355897E+03  0.00000000000E+00 0. -1.
          1    1    5    5  503    0 -0.22991621744E+03  0.22473738990E+03  0.71459951621E+02  0.32935525826E+03  0.00000000000E+00 0. -1.
         -2    1    5    5    0  503 -0.12551591607E+03  0.71276150111E+02  0.74329301605E+02  0.16235572007E+03  0.00000000000E+00 0.  1.
         -1    1    6    6    0  502  0.35448534000E+03  0.11115953184E+03 -0.95554600416E+02  0.38359741847E+03  0.00000000000E+00 0.  1.
<mgrwt>
<rscale>  0 0.14627795E+04</rscale>
<asrwt>0</asrwt>
<pdfrwt beam="1">  1        2 0.12948659E+00 0.14627795E+04</pdfrwt>
<pdfrwt beam="2">  1       -2 0.97779143E-01 0.14627795E+04</pdfrwt>
<totfact> 0.27153544E+01</totfact>
</mgrwt>
</event>
<event>
12    1  0.1496989E-007  0.1828314E+04  0.7818608E-02  0.8691386E-01
         -1   -1    0    0    0  501 -0.00000000000E+00  0.00000000000E+00  0.54230201205E+03  0.54230201205E+03  0.00000000000E+00 0.  1.
          1   -1    0    0  501    0  0.00000000000E+00 -0.00000000000E+00 -0.15409923170E+04  0.15409923170E+04  0.00000000000E+00 0. -1.
         23    2    1    2    0    0 -0.15871459977E+03 -0.42392334061E+03  0.21075067696E+03  0.50767608677E+03  0.91748778443E+02 0.  0.
        254    2    1    2    0    0  0.15871459977E+03  0.42392334061E+03 -0.12094409819E+04  0.15756182423E+04  0.90273142948E+03 0.  0.
        -24    2    4    4    0    0 -0.16834116378E+03  0.46497796722E+03 -0.25380261340E+03  0.56160126570E+03  0.80230652751E+02 0.  0.
         24    2    4    4    0    0  0.32705576355E+03 -0.41054626617E+02 -0.95563836848E+03  0.10140169766E+04  0.79591347477E+02 0.  0.
         11    1    3    3    0    0 -0.77833293339E+02 -0.15622308831E+03  0.36919740921E+02  0.17840051049E+03  0.00000000000E+00 0. -1.
        -11    1    3    3    0    0 -0.80881306433E+02 -0.26770025230E+03  0.17383093604E+03  0.32927557629E+03  0.00000000000E+00 0.  1.
          2    1    6    6  502    0  0.29790221930E+03 -0.55470393290E+02 -0.81086469294E+03  0.86563516972E+03  0.00000000000E+00 0. -1.
          1    1    5    5  503    0 -0.10399422506E+03  0.33313903473E+03 -0.21480744846E+03  0.40980319084E+03  0.00000000000E+00 0. -1.
         -2    1    5    5    0  503 -0.64346938717E+02  0.13183893249E+03 -0.38995164945E+02  0.15179807486E+03  0.00000000000E+00 0.  1.
         -1    1    6    6    0  502  0.29153544252E+02  0.14415766673E+02 -0.14477367554E+03  0.14838180683E+03  0.00000000000E+00 0.  1.
<mgrwt>
<rscale>  0 0.18283142E+04</rscale>
<asrwt>0</asrwt>
<pdfrwt beam="1">  1        1 0.23707574E+00 0.18283142E+04</pdfrwt>
<pdfrwt beam="2">  1       -1 0.83431078E-01 0.18283142E+04</pdfrwt>
<totfact> 0.82219865E+00</totfact>
</mgrwt>
</event>
<event>
12    1  0.1496989E-007  0.2476666E+04  0.7818608E-02  0.8411346E-01
          2   -1    0    0  501    0  0.00000000000E+00  0.00000000000E+00  0.21844889467E+04  0.21844889467E+04  0.00000000000E+00 0. -1.
         -2   -1    0    0    0  501 -0.00000000000E+00 -0.00000000000E+00 -0.70198023997E+03  0.70198023997E+03  0.00000000000E+00 0.  1.
         23    2    1    2    0    0 -0.28721553735E+03  0.53873476752E+03  0.16813138362E+04  0.17912046044E+04  0.94179638746E+02 0.  0.
        254    2    1    2    0    0  0.28721553735E+03 -0.53873476752E+03 -0.19880512945E+03  0.10952645823E+04  0.88732920111E+03 0.  0.
        -24    2    4    4    0    0  0.47443051861E+03  0.86566523418E+01 -0.16993076038E+03  0.51012607532E+03  0.78694947638E+02 0.  0.
         24    2    4    4    0    0 -0.18721498125E+03 -0.54739141986E+03 -0.28874369063E+02  0.58513850699E+03  0.82864512463E+02 0.  0.
         13    1    3    3    0    0 -0.15543093210E+03  0.28077156583E+03  0.74711435214E+03  0.81312440746E+03  0.00000000000E+00 0. -1.
        -13    1    3    3    0    0 -0.13178460525E+03  0.25796320169E+03  0.93419948408E+03  0.97808019695E+03  0.00000000000E+00 0.  1.
          4    1    6    6  502    0 -0.49187156371E+02 -0.20242507690E+03  0.24568839973E+02  0.20975918575E+03  0.00000000000E+00 0. -1.
          3    1    5    5  503    0  0.11299352540E+03  0.17291630863E+02 -0.98542771649E+01  0.11473292491E+03  0.00000000000E+00 0. -1.
         -4    1    5    5    0  503  0.36143699321E+03 -0.86349785212E+01 -0.16007648322E+03  0.39539315042E+03  0.00000000000E+00 0.  1.
         -3    1    6    6    0  502 -0.13802782488E+03 -0.34496634296E+03 -0.53443209036E+02  0.37537932123E+03  0.00000000000E+00 0.  1.
<mgrwt>
<rscale>  0 0.24766656E+04</rscale>
<asrwt>0</asrwt>
<pdfrwt beam="1">  1        2 0.33607522E+00 0.24766656E+04</pdfrwt>
<pdfrwt beam="2">  1       -2 0.10799696E+00 0.24766656E+04</pdfrwt>
<totfact> 0.32335318E+00</totfact>
</mgrwt>
</event>
<event>
12    1  0.1496989E-007  0.2499941E+04  0.7818608E-02  0.8403006E-01
         -1   -1    0    0    0  501 -0.00000000000E+00  0.00000000000E+00  0.62238279135E+03  0.62238279135E+03  0.00000000000E+00 0.  1.
          1   -1    0    0  501    0  0.00000000000E+00 -0.00000000000E+00 -0.25103948983E+04  0.25103948983E+04  0.00000000000E+00 0. -1.
         23    2    1    2    0    0 -0.11122412356E+03  0.91562894629E+03 -0.10674830736E+03  0.93277682807E+03  0.89051877602E+02 0.  0.
        254    2    1    2    0    0  0.11122412356E+03 -0.91562894629E+03 -0.17812637996E+04  0.22000008616E+04  0.90352415260E+03 0.  0.
        -24    2    4    4    0    0  0.22562664901E+01 -0.11376035693E+03  0.85578486215E+02  0.16372913962E+03  0.80851990155E+02 0.  0.
         24    2    4    4    0    0  0.10896785707E+03 -0.80186858937E+03 -0.18668422858E+04  0.20362717220E+04  0.80219555710E+02 0.  0.
         13    1    3    3    0    0 -0.10691910059E+03  0.86901661717E+03 -0.80887539279E+02  0.87929765666E+03  0.00000000000E+00 0.  1.
        -13    1    3    3    0    0 -0.43050229668E+01  0.46612329121E+02 -0.25860768085E+02  0.53479171411E+02  0.00000000000E+00 0. -1.
          2    1    6    6  502    0  0.95074362965E+02 -0.57527592849E+03 -0.14205022147E+04  0.15355155715E+04  0.00000000000E+00 0. -1.
          3    1    5    5  503    0  0.19915313233E+02 -0.10944446833E+03  0.46385042602E+02  0.12052503278E+03  0.00000000000E+00 0. -1.
         -4    1    5    5    0  503 -0.17659046743E+02 -0.43158886022E+01  0.39193443613E+02  0.43204106848E+02  0.00000000000E+00 0.  1.
         -1    1    6    6    0  502  0.13893494101E+02 -0.22659266088E+03 -0.44634007114E+03  0.50075615049E+03  0.00000000000E+00 0.  1.
<mgrwt>
<rscale>  0 0.24999413E+04</rscale>
<asrwt>0</asrwt>
<pdfrwt beam="1">  1        1 0.38621461E+00 0.24999413E+04</pdfrwt>
<pdfrwt beam="2">  1       -1 0.95751197E-01 0.24999413E+04</pdfrwt>
<totfact> 0.12447994E+00</totfact>
</mgrwt>
</event>
<event>
12    1  0.1496989E-007  0.1888827E+04  0.7818608E-02  0.8660438E-01
         -2   -1    0    0    0  501 -0.00000000000E+00  0.00000000000E+00  0.92944391029E+03  0.92944391029E+03  0.00000000000E+00 0.  1.
          2   -1    0    0  501    0  0.00000000000E+00 -0.00000000000E+00 -0.95962429973E+03  0.95962429973E+03  0.00000000000E+00 0. -1.
         23    2    1    2    0    0 -0.58831178740E+03  0.29852508839E+03  0.34291670487E+03  0.74916308054E+03  0.91790343506E+02 0.  0.
        254    2    1    2    0    0  0.58831178740E+03 -0.29852508839E+03 -0.37309709432E+03  0.11399051295E+04  0.85144246713E+03 0.  0.
        -24    2    4    4    0    0  0.93815226023E+02 -0.28333988667E+02 -0.53373540458E+03  0.54851875521E+03  0.79970189228E+02 0.  0.
         24    2    4    4    0    0  0.49449656138E+03 -0.27019109973E+03  0.16063831026E+03  0.59138637428E+03  0.80019356219E+02 0.  0.
         11    1    3    3    0    0 -0.16214635954E+03  0.72976368698E+02  0.13878084612E+03  0.22555956098E+03  0.00000000000E+00 0. -1.
        -11    1    3    3    0    0 -0.42616542787E+03  0.22554871969E+03  0.20413585875E+03  0.52360351956E+03  0.00000000000E+00 0.  1.
          4    1    6    6  502    0  0.28300606158E+03 -0.19324235793E+03  0.11722491697E+03  0.36218326983E+03  0.00000000000E+00 0. -1.
          1    1    5    5  503    0  0.72914252369E+02  0.16465557125E+02 -0.26826313496E+03  0.27848287622E+03  0.00000000000E+00 0. -1.
         -2    1    5    5    0  503  0.20900973654E+02 -0.44799545792E+02 -0.26547226962E+03  0.27003587899E+03  0.00000000000E+00 0.  1.
         -3    1    6    6    0  502  0.21149049980E+03 -0.76948741800E+02  0.43413393290E+02  0.22920310444E+03  0.00000000000E+00 0.  1.
<mgrwt>
<rscale>  0 0.18888271E+04</rscale>
<asrwt>0</asrwt>
<pdfrwt beam="1">  1        2 0.14763451E+00 0.18888271E+04</pdfrwt>
<pdfrwt beam="2">  1       -2 0.14299137E+00 0.18888271E+04</pdfrwt>
<totfact> 0.85240385E+00</totfact>
</mgrwt>
</event>
<event>
12    1  0.1496989E-007  0.1727251E+04  0.7818608E-02  0.8745973E-01
         -2   -1    0    0    0  501 -0.00000000000E+00  0.00000000000E+00  0.78514668485E+03  0.78514668485E+03  0.00000000000E+00 0.  1.
          2   -1    0    0  501    0  0.00000000000E+00 -0.00000000000E+00 -0.94994915988E+03  0.94994915988E+03  0.00000000000E+00 0. -1.
         23    2    1    2    0    0  0.19928174629E+03  0.41585240129E+03  0.37232497347E+03  0.59953972174E+03  0.90418792375E+02 0.  0.
        254    2    1    2    0    0 -0.19928174629E+03 -0.41585240129E+03 -0.53712744850E+03  0.11355561230E+04  0.88788252513E+03 0.  0.
        -24    2    4    4    0    0  0.15569455815E+03 -0.56820816259E+02 -0.59357072358E+03  0.62117198666E+03  0.77839787508E+02 0.  0.
         24    2    4    4    0    0 -0.35497630444E+03 -0.35903158503E+03  0.56443275079E+02  0.51438413632E+03  0.80581267257E+02 0.  0.
         13    1    3    3    0    0  0.17764049606E+02  0.23303098867E+02  0.57719048158E+02  0.64730861229E+02  0.00000000000E+00 0.  1.
        -13    1    3    3    0    0  0.18151769669E+03  0.39254930242E+03  0.31460592531E+03  0.53480886051E+03  0.00000000000E+00 0. -1.
          4    1    6    6  502    0 -0.28976932459E+03 -0.27432215464E+03  0.13706392059E+02  0.39925777536E+03  0.00000000000E+00 0. -1.
          1    1    5    5  503    0  0.14474677118E+03 -0.48613483183E+02 -0.58593345757E+03  0.60550220083E+03  0.00000000000E+00 0. -1.
         -2    1    5    5    0  503  0.10947786967E+02 -0.82073330764E+01 -0.76372660137E+01  0.15669785827E+02  0.00000000000E+00 0.  1.
         -3    1    6    6    0  502 -0.65206979845E+02 -0.84709430387E+02  0.42736883020E+02  0.11512636096E+03  0.00000000000E+00 0.  1.
<mgrwt>
<rscale>  0 0.17272515E+04</rscale>
<asrwt>0</asrwt>
<pdfrwt beam="1">  1        2 0.14614602E+00 0.17272515E+04</pdfrwt>
<pdfrwt beam="2">  1       -2 0.12079180E+00 0.17272515E+04</pdfrwt>
<totfact> 0.13467983E+01</totfact>
</mgrwt>
</event>
<event>
12    1  0.1496989E-007  0.3431140E+04  0.7818608E-02  0.8130306E-01
          2   -1    0    0  501    0  0.00000000000E+00  0.00000000000E+00  0.29524099283E+04  0.29524099283E+04  0.00000000000E+00 0. -1.
         -2   -1    0    0    0  501 -0.00000000000E+00 -0.00000000000E+00 -0.99687367582E+03  0.99687367582E+03  0.00000000000E+00 0.  1.
         23    2    1    2    0    0  0.15608434269E+04 -0.23844637894E+03  0.64331757923E+03  0.17088728664E+04  0.11532600255E+03 0.  0.
        254    2    1    2    0    0 -0.15608434269E+04  0.23844637894E+03  0.13122186732E+04  0.22404107376E+04  0.89690219533E+03 0.  0.
        -24    2    4    4    0    0 -0.97749504514E+03  0.44691501402E+03  0.11861118647E+04  0.16025460235E+04  0.77864040442E+02 0.  0.
         24    2    4    4    0    0 -0.58334838179E+03 -0.20846863508E+03  0.12610680851E+03  0.63786471414E+03  0.84935034308E+02 0.  0.
         11    1    3    3    0    0  0.79661861125E+03 -0.12910842916E+03  0.39047482877E+03  0.89651591741E+03  0.00000000000E+00 0. -1.
        -11    1    3    3    0    0  0.76422481568E+03 -0.10933794978E+03  0.25284275046E+03  0.81235694902E+03  0.00000000000E+00 0.  1.
          2    1    6    6  502    0 -0.32374664359E+02 -0.29481243855E+02 -0.44691914158E+01  0.44014046662E+02  0.00000000000E+00 0. -1.
          1    1    5    5  503    0 -0.21763836017E+03  0.13529418858E+03  0.27303050314E+03  0.37445510936E+03  0.00000000000E+00 0. -1.
         -2    1    5    5    0  503 -0.75985668498E+03  0.31162082544E+03  0.91308136157E+03  0.12280909141E+04  0.00000000000E+00 0.  1.
         -1    1    6    6    0  502 -0.55097371743E+03 -0.17898739122E+03  0.13057599992E+03  0.59385066748E+03  0.00000000000E+00 0.  1.
<mgrwt>
<rscale>  0 0.34311396E+04</rscale>
<asrwt>0</asrwt>
<pdfrwt beam="1">  1        2 0.45421691E+00 0.34311396E+04</pdfrwt>
<pdfrwt beam="2">  1       -2 0.15336518E+00 0.34311396E+04</pdfrwt>
<totfact> 0.43485334E-01</totfact>
</mgrwt>
</event>
<event>
12    1  0.1496989E-007  0.2151111E+04  0.7818608E-02  0.8539057E-01
          2   -1    0    0  501    0  0.00000000000E+00  0.00000000000E+00  0.10977822780E+04  0.10977822780E+04  0.00000000000E+00 0. -1.
         -2   -1    0    0    0  501 -0.00000000000E+00 -0.00000000000E+00 -0.10537791361E+04  0.10537791361E+04  0.00000000000E+00 0.  1.
         23    2    1    2    0    0 -0.11049433268E+03 -0.13334321892E+03 -0.85367608926E+03  0.87578565049E+03  0.90819759054E+02 0.  0.
        254    2    1    2    0    0  0.11049433268E+03  0.13334321892E+03  0.89767923118E+03  0.12757757636E+04  0.88982379451E+03 0.  0.
        -24    2    4    4    0    0  0.39891993097E+03  0.16636899653E+03  0.86811154325E+03  0.97298966741E+03  0.79217971620E+02 0.  0.
         24    2    4    4    0    0 -0.28842559829E+03 -0.33025777612E+02  0.29567687922E+02  0.30278609617E+03  0.80778364264E+02 0.  0.
         13    1    3    3    0    0 -0.98890753737E+02 -0.48944781492E+02 -0.47694818674E+03  0.48954524371E+03  0.00000000000E+00 0.  1.
        -13    1    3    3    0    0 -0.11603578946E+02 -0.84398437425E+02 -0.37672790253E+03  0.38624040678E+03  0.00000000000E+00 0. -1.
          2    1    6    6  502    0 -0.60599121225E+02 -0.24245330494E+02  0.36312748591E+02  0.74690730712E+02  0.00000000000E+00 0. -1.
          3    1    5    5  503    0  0.57484858197E+02  0.38683969128E+02  0.20350030645E+03  0.21497286600E+03  0.00000000000E+00 0. -1.
         -4    1    5    5    0  503  0.34143507277E+03  0.12768502740E+03  0.66461123680E+03  0.75801680142E+03  0.00000000000E+00 0.  1.
         -1    1    6    6    0  502 -0.22782647706E+03 -0.87804471175E+01 -0.67450606682E+01  0.22809536546E+03  0.00000000000E+00 0.  1.
<mgrwt>
<rscale>  0 0.21511114E+04</rscale>
<asrwt>0</asrwt>
<pdfrwt beam="1">  1        2 0.16888958E+00 0.21511114E+04</pdfrwt>
<pdfrwt beam="2">  1       -2 0.16211987E+00 0.21511114E+04</pdfrwt>
<totfact> 0.48734329E+00</totfact>
</mgrwt>
</event>
<event>
12    1  0.1496989E-007  0.1640621E+04  0.7818608E-02  0.8795974E-01
          2   -1    0    0  501    0  0.00000000000E+00  0.00000000000E+00  0.34735429016E+04  0.34735429016E+04  0.00000000000E+00 0. -1.
         -2   -1    0    0    0  501 -0.00000000000E+00 -0.00000000000E+00 -0.19372424959E+03  0.19372424959E+03  0.00000000000E+00 0.  1.
         23    2    1    2    0    0 -0.30109172106E+03  0.33055667856E+03  0.20375302681E+04  0.20882254358E+04  0.96082959176E+02 0.  0.
        254    2    1    2    0    0  0.30109172106E+03 -0.33055667856E+03  0.12422883839E+04  0.15790417154E+04  0.86612260558E+03 0.  0.
        -24    2    4    4    0    0  0.83419021077E+02 -0.28629986660E+03  0.12998434294E+04  0.13360724803E+04  0.81057910080E+02 0.  0.
         24    2    4    4    0    0  0.21767269998E+03 -0.44256811961E+02 -0.57555045543E+02  0.24296923510E+03  0.79883641741E+02 0.  0.
         13    1    3    3    0    0 -0.22122562469E+03  0.27811469399E+03  0.17328993668E+04  0.17689626269E+04  0.00000000000E+00 0. -1.
        -13    1    3    3    0    0 -0.79866096370E+02  0.52441984573E+02  0.30463090132E+03  0.31926280889E+03  0.00000000000E+00 0.  1.
          4    1    6    6  502    0  0.15759693330E+03 -0.11818888108E+02 -0.71212600126E+02  0.17334276425E+03  0.00000000000E+00 0. -1.
          1    1    5    5  503    0  0.97403979236E+02 -0.27171459676E+03  0.12252430387E+04  0.12587838818E+04  0.00000000000E+00 0. -1.
         -2    1    5    5    0  503 -0.13984958159E+02 -0.14585269843E+02  0.74600390764E+02  0.77288598469E+02  0.00000000000E+00 0.  1.
         -3    1    6    6    0  502  0.60075766679E+02 -0.32437923853E+02  0.13657554583E+02  0.69626470851E+02  0.00000000000E+00 0.  1.
<mgrwt>
<rscale>  0 0.16406212E+04</rscale>
<asrwt>0</asrwt>
<pdfrwt beam="1">  1        2 0.53439117E+00 0.16406212E+04</pdfrwt>
<pdfrwt beam="2">  1       -2 0.29803733E-01 0.16406212E+04</pdfrwt>
<totfact> 0.85090164E+00</totfact>
</mgrwt>
</event>
<event>
12    1  0.1496989E-007  0.2115914E+04  0.7818608E-02  0.8554265E-01
         -2   -1    0    0    0  501 -0.00000000000E+00  0.00000000000E+00  0.34150080328E+03  0.34150080328E+03  0.00000000000E+00 0.  1.
          2   -1    0    0  501    0  0.00000000000E+00 -0.00000000000E+00 -0.32775113783E+04  0.32775113783E+04  0.00000000000E+00 0. -1.
         23    2    1    2    0    0  0.55296984755E+03 -0.56285762943E+03 -0.18212254994E+04  0.19869262932E+04  0.91811826587E+02 0.  0.
        254    2    1    2    0    0 -0.55296984755E+03  0.56285762943E+03 -0.11147850756E+04  0.16320858883E+04  0.89351788955E+03 0.  0.
        -24    2    4    4    0    0 -0.87536579667E+02  0.13626534966E+03  0.13782478720E+03  0.22663300667E+03  0.78332301432E+02 0.  0.
         24    2    4    4    0    0 -0.46543326788E+03  0.42659227978E+03 -0.12526098628E+04  0.14054528817E+04  0.87505624457E+02 0.  0.
         11    1    3    3    0    0  0.17343046666E+02 -0.28448664518E+02 -0.12929998576E+03  0.13352375856E+03  0.00000000000E+00 0.  1.
        -11    1    3    3    0    0  0.53562680088E+03 -0.53440896492E+03 -0.16919255137E+04  0.18534025346E+04  0.00000000000E+00 0. -1.
          2    1    6    6  502    0 -0.45259467131E+03  0.39675043968E+03 -0.11523750504E+04  0.13000850375E+04  0.00000000000E+00 0. -1.
          1    1    5    5  503    0 -0.93541555191E+02  0.13689003039E+03  0.11192841004E+03  0.20004217541E+03  0.00000000000E+00 0. -1.
         -2    1    5    5    0  503  0.60049755243E+01 -0.62468073084E+00  0.25896377165E+02  0.26590831265E+02  0.00000000000E+00 0.  1.
         -1    1    6    6    0  502 -0.12838596568E+02  0.29841840098E+02 -0.10023481236E+03  0.10536784420E+03  0.00000000000E+00 0.  1.
<mgrwt>
<rscale>  0 0.21159138E+04</rscale>
<asrwt>0</asrwt>
<pdfrwt beam="1">  1        2 0.50423253E+00 0.21159138E+04</pdfrwt>
<pdfrwt beam="2">  1       -2 0.52538584E-01 0.21159138E+04</pdfrwt>
<totfact> 0.36382438E+00</totfact>
</mgrwt>
</event>
<event>
12    1  0.1496989E-007  0.1662061E+04  0.7818608E-02  0.8783303E-01
         -1   -1    0    0    0  501 -0.00000000000E+00  0.00000000000E+00  0.24771863065E+03  0.24771863065E+03  0.00000000000E+00 0.  1.
          1   -1    0    0  501    0  0.00000000000E+00 -0.00000000000E+00 -0.27878871313E+04  0.27878871313E+04  0.00000000000E+00 0. -1.
         23    2    1    2    0    0 -0.13664378280E+03  0.50419133052E+03 -0.13747760175E+04  0.14735795907E+04  0.92451558897E+02 0.  0.
        254    2    1    2    0    0  0.13664378280E+03 -0.50419133052E+03 -0.11653924831E+04  0.15620261712E+04  0.89939184933E+03 0.  0.
        -24    2    4    4    0    0  0.17128368089E+03 -0.18885860174E+03 -0.12039228205E+04  0.12330332990E+04  0.77040820071E+02 0.  0.
         24    2    4    4    0    0 -0.34639898082E+02 -0.31533272878E+03  0.38530337440E+02  0.32899287214E+03  0.78211703957E+02 0.  0.
         11    1    3    3    0    0 -0.43090024451E+02  0.11152282598E+03 -0.22158624373E+03  0.25178275225E+03  0.00000000000E+00 0.  1.
        -11    1    3    3    0    0 -0.93553758353E+02  0.39266850454E+03 -0.11531897738E+04  0.12217968385E+04  0.00000000000E+00 0. -1.
          2    1    6    6  502    0  0.12741736883E+02 -0.29137637736E+02 -0.13008273036E+02  0.34359408595E+02  0.00000000000E+00 0. -1.
          3    1    5    5  503    0  0.23759614107E+02 -0.43518770371E+02 -0.12614029701E+03  0.13553515104E+03  0.00000000000E+00 0. -1.
         -4    1    5    5    0  503  0.14752406678E+03 -0.14533983137E+03 -0.10777825235E+04  0.10974981480E+04  0.00000000000E+00 0.  1.
         -1    1    6    6    0  502 -0.47381634966E+02 -0.28619509104E+03  0.51538610476E+02  0.29463346354E+03  0.00000000000E+00 0.  1.
<mgrwt>
<rscale>  0 0.16620609E+04</rscale>
<asrwt>0</asrwt>
<pdfrwt beam="1">  1        1 0.42890573E+00 0.16620609E+04</pdfrwt>
<pdfrwt beam="2">  1       -1 0.38110557E-01 0.16620609E+04</pdfrwt>
<totfact> 0.54162749E+00</totfact>
</mgrwt>
</event>
<event>
12    1  0.1496989E-007  0.1663236E+04  0.7818608E-02  0.8782614E-01
          1   -1    0    0  501    0  0.00000000000E+00  0.00000000000E+00  0.13416823029E+04  0.13416823029E+04  0.00000000000E+00 0. -1.
         -1   -1    0    0    0  501 -0.00000000000E+00 -0.00000000000E+00 -0.51546379090E+03  0.51546379090E+03  0.00000000000E+00 0.  1.
         23    2    1    2    0    0  0.32338243060E+03  0.45553632404E+03  0.49083800047E+03  0.74925912617E+03  0.91530085235E+02 0.  0.
        254    2    1    2    0    0 -0.32338243060E+03 -0.45553632404E+03  0.33538051153E+03  0.11078869676E+04  0.89601557274E+03 0.  0.
        -24    2    4    4    0    0 -0.37835819721E+02  0.18316983196E+03  0.34769432821E+03  0.40272216285E+03  0.79442167567E+02 0.  0.
         24    2    4    4    0    0 -0.28554661088E+03 -0.63870615600E+03 -0.12313816681E+02  0.70516480478E+03  0.87311804052E+02 0.  0.
         13    1    3    3    0    0  0.26729711098E+03  0.41921785753E+03  0.45223338905E+03  0.67209106212E+03  0.00000000000E+00 0. -1.
        -13    1    3    3    0    0  0.56085319617E+02  0.36318466511E+02  0.38604611422E+02  0.77168064051E+02  0.00000000000E+00 0.  1.
          4    1    6    6  502    0 -0.15225498984E+03 -0.40154683941E+03 -0.42037915013E+02  0.43149580817E+03  0.00000000000E+00 0. -1.
          3    1    5    5  503    0 -0.38620866010E+02  0.36340092165E+02  0.62634294969E+02  0.82068437881E+02  0.00000000000E+00 0. -1.
         -4    1    5    5    0  503  0.78504628899E+00  0.14682973979E+03  0.28506003325E+03  0.32065372497E+03  0.00000000000E+00 0.  1.
         -1    1    6    6    0  502 -0.13329162104E+03 -0.23715931659E+03  0.29724098332E+02  0.27366899661E+03  0.00000000000E+00 0.  1.
<mgrwt>
<rscale>  0 0.16632362E+04</rscale>
<asrwt>0</asrwt>
<pdfrwt beam="1">  1        1 0.20641266E+00 0.16632362E+04</pdfrwt>
<pdfrwt beam="2">  1       -1 0.79302122E-01 0.16632362E+04</pdfrwt>
<totfact> 0.12815291E+01</totfact>
</mgrwt>
</event>
<event>
12    1  0.1496989E-007  0.1811976E+04  0.7818608E-02  0.8699956E-01
         -2   -1    0    0    0  501 -0.00000000000E+00  0.00000000000E+00  0.30280351874E+03  0.30280351874E+03  0.00000000000E+00 0.  1.
          2   -1    0    0  501    0  0.00000000000E+00 -0.00000000000E+00 -0.27107166065E+04  0.27107166065E+04  0.00000000000E+00 0. -1.
         23    2    1    2    0    0 -0.23045410480E+03 -0.40115727535E+03 -0.18696741115E+04  0.19282117455E+04  0.91010979791E+02 0.  0.
        254    2    1    2    0    0  0.23045410480E+03  0.40115727535E+03 -0.53823897628E+03  0.10853083797E+04  0.82107053870E+03 0.  0.
        -24    2    4    4    0    0  0.36430129823E+02  0.48943440457E+03  0.29744583709E+01  0.49732442714E+03  0.80309075979E+02 0.  0.
         24    2    4    4    0    0  0.19402397498E+03 -0.88277129220E+02 -0.54121343466E+03  0.58798395259E+03  0.85877775017E+02 0.  0.
         11    1    3    3    0    0 -0.99040976817E+02 -0.25876494049E+03 -0.10491608806E+04  0.10851299290E+04  0.00000000000E+00 0.  1.
        -11    1    3    3    0    0 -0.13141312798E+03 -0.14239233486E+03 -0.82051323088E+03  0.84308181648E+03  0.00000000000E+00 0. -1.
          2    1    6    6  502    0  0.17177092508E+03 -0.60192171339E+02 -0.36152443310E+03  0.40475704308E+03  0.00000000000E+00 0. -1.
          1    1    5    5  503    0  0.43036292197E+02  0.42794033469E+03  0.27066770788E+02  0.43094972164E+03  0.00000000000E+00 0. -1.
         -2    1    5    5    0  503 -0.66061623743E+01  0.61494069887E+02 -0.24092312417E+02  0.66374705500E+02  0.00000000000E+00 0.  1.
         -1    1    6    6    0  502  0.22253049897E+02 -0.28084957881E+02 -0.17968900155E+03  0.18322690951E+03  0.00000000000E+00 0.  1.
<mgrwt>
<rscale>  0 0.18119763E+04</rscale>
<asrwt>0</asrwt>
<pdfrwt beam="1">  1        2 0.41703332E+00 0.18119763E+04</pdfrwt>
<pdfrwt beam="2">  1       -2 0.46585157E-01 0.18119763E+04</pdfrwt>
<totfact> 0.10803425E+01</totfact>
</mgrwt>
</event>
<event>
12    1  0.1496989E-007  0.2322768E+04  0.7818608E-02  0.8468998E-01
          2   -1    0    0  501    0  0.00000000000E+00  0.00000000000E+00  0.87050147979E+03  0.87050147979E+03  0.00000000000E+00 0. -1.
         -2   -1    0    0    0  501 -0.00000000000E+00 -0.00000000000E+00 -0.15494668884E+04  0.15494668884E+04  0.00000000000E+00 0.  1.
         23    2    1    2    0    0 -0.51678457125E+02 -0.62506647543E+03  0.49918590666E+03  0.80615920064E+03  0.85599799906E+02 0.  0.
        254    2    1    2    0    0  0.51678457125E+02  0.62506647543E+03 -0.11781513153E+04  0.16138091676E+04  0.90717183928E+03 0.  0.
        -24    2    4    4    0    0 -0.34857609174E+03  0.39977488231E+03 -0.95853553371E+03  0.10983477205E+04  0.79070205759E+02 0.  0.
         24    2    4    4    0    0  0.40025454887E+03  0.22529159312E+03 -0.21961578156E+03  0.51546144707E+03  0.80680890477E+02 0.  0.
         11    1    3    3    0    0 -0.68006355209E+02 -0.59253957031E+03  0.46575292343E+03  0.75673891958E+03  0.00000000000E+00 0. -1.
        -11    1    3    3    0    0  0.16327898084E+02 -0.32526905115E+02  0.33432983234E+02  0.49420281061E+02  0.00000000000E+00 0.  1.
          4    1    6    6  502    0  0.11043304398E+03  0.95896609956E+02 -0.95420402779E+02  0.17463295871E+03  0.00000000000E+00 0. -1.
          3    1    5    5  503    0 -0.62571038279E+02  0.59226275312E+02 -0.10428267315E+03  0.13526922206E+03  0.00000000000E+00 0. -1.
         -4    1    5    5    0  503 -0.28600505347E+03  0.34054860700E+03 -0.85425286057E+03  0.96307849842E+03  0.00000000000E+00 0.  1.
         -3    1    6    6    0  502  0.28982150489E+03  0.12939498316E+03 -0.12419537878E+03  0.34082848836E+03  0.00000000000E+00 0.  1.
<mgrwt>
<rscale>  0 0.23227684E+04</rscale>
<asrwt>0</asrwt>
<pdfrwt beam="1">  1        2 0.13392331E+00 0.23227684E+04</pdfrwt>
<pdfrwt beam="2">  1       -2 0.23837952E+00 0.23227684E+04</pdfrwt>
<totfact> 0.21066441E+00</totfact>
</mgrwt>
</event>
<event>
12    1  0.1496989E-007  0.1855179E+04  0.7818608E-02  0.8677494E-01
          2   -1    0    0  501    0  0.00000000000E+00  0.00000000000E+00  0.48385601527E+03  0.48385601527E+03  0.00000000000E+00 0.  1.
         -2   -1    0    0    0  501 -0.00000000000E+00 -0.00000000000E+00 -0.17782602259E+04  0.17782602259E+04  0.00000000000E+00 0. -1.
         23    2    1    2    0    0  0.48116698490E+03  0.70920749231E+02  0.11949194206E+03  0.50931273880E+03  0.92572791112E+02 0.  0.
        254    2    1    2    0    0 -0.48116698490E+03 -0.70920749231E+02 -0.14138961527E+04  0.17528035024E+04  0.91469468529E+03 0.  0.
        -24    2    4    4    0    0 -0.40888036472E+03  0.57127512974E+02 -0.10514625075E+03  0.43339098714E+03  0.79531806855E+02 0.  0.
         24    2    4    4    0    0 -0.72286620187E+02 -0.12804826220E+03 -0.13087499020E+04  0.13194125152E+04  0.80008540752E+02 0.  0.
         13    1    3    3    0    0  0.15349860566E+01  0.11725767142E+02  0.27759995336E+01  0.12147261859E+02  0.00000000000E+00 0. -1.
        -13    1    3    3    0    0  0.47963199885E+03  0.59194982089E+02  0.11671594252E+03  0.49716547694E+03  0.00000000000E+00 0.  1.
          2    1    6    6  502    0 -0.49695378905E+02 -0.17704631025E+02 -0.32786399493E+03  0.33208114041E+03  0.00000000000E+00 0. -1.
          3    1    5    5  503    0 -0.28644625584E+03  0.25605970933E+02 -0.10727946134E+03  0.30694625923E+03  0.00000000000E+00 0. -1.
         -4    1    5    5    0  503 -0.12243410888E+03  0.31521542041E+02  0.21332105880E+01  0.12644472791E+03  0.00000000000E+00 0.  1.
         -1    1    6    6    0  502 -0.22591241282E+02 -0.11034363118E+03 -0.98088590702E+03  0.98733137483E+03  0.00000000000E+00 0.  1.
<mgrwt>
<rscale>  0 0.18551786E+04</rscale>
<asrwt>0</asrwt>
<pdfrwt beam="1">  1        2 0.74439387E-01 0.18551786E+04</pdfrwt>
<pdfrwt beam="2">  1       -2 0.27357850E+00 0.18551786E+04</pdfrwt>
<totfact> 0.27728104E+00</totfact>
</mgrwt>
</event>
<event>
12    1  0.1496989E-007  0.2067638E+04  0.7818608E-02  0.8575635E-01
         -1   -1    0    0    0  501 -0.00000000000E+00  0.00000000000E+00  0.55990823155E+03  0.55990823155E+03  0.00000000000E+00 0.  1.
          1   -1    0    0  501    0  0.00000000000E+00 -0.00000000000E+00 -0.19088513345E+04  0.19088513345E+04  0.00000000000E+00 0. -1.
         23    2    1    2    0    0 -0.17446506592E+03  0.28583269295E+03  0.36504583230E+03  0.50411836626E+03  0.93479837030E+02 0.  0.
        254    2    1    2    0    0  0.17446506592E+03 -0.28583269295E+03 -0.17139889352E+04  0.19646411998E+04  0.89995476898E+03 0.  0.
        -24    2    4    4    0    0  0.12215439909E+03  0.31706683979E+03 -0.62464010282E+03  0.71554262463E+03  0.79830517289E+02 0.  0.
         24    2    4    4    0    0  0.52310666825E+02 -0.60289953274E+03 -0.10893488324E+04  0.12490985752E+04  0.85686167806E+02 0.  0.
         11    1    3    3    0    0  0.33780685026E+01 -0.50072583526E+01  0.27067423839E+01  0.66189453353E+01  0.00000000000E+00 0. -1.
        -11    1    3    3    0    0 -0.17784313442E+03  0.29083995130E+03  0.36233908992E+03  0.49749942092E+03  0.00000000000E+00 0.  1.
          4    1    6    6  502    0  0.47659173294E+01 -0.46249566279E+03 -0.84498545060E+03  0.96328882678E+03  0.00000000000E+00 0. -1.
          1    1    5    5  503    0  0.13143183536E+03  0.26691319685E+03 -0.51884720475E+03  0.59809648376E+03  0.00000000000E+00 0. -1.
         -2    1    5    5    0  503 -0.92774362672E+01  0.50153642938E+02 -0.10579289807E+03  0.11744614087E+03  0.00000000000E+00 0.  1.
         -3    1    6    6    0  502  0.47544749496E+02 -0.14040386995E+03 -0.24436338181E+03  0.28580974838E+03  0.00000000000E+00 0.  1.
<mgrwt>
<rscale>  0 0.20676379E+04</rscale>
<asrwt>0</asrwt>
<pdfrwt beam="1">  1        1 0.29366944E+00 0.20676379E+04</pdfrwt>
<pdfrwt beam="2">  1       -1 0.86139728E-01 0.20676379E+04</pdfrwt>
<totfact> 0.42142876E+00</totfact>
</mgrwt>
</event>
<event>
12    1  0.1496989E-007  0.1717416E+04  0.7818608E-02  0.8751493E-01
         -2   -1    0    0    0  501 -0.00000000000E+00  0.00000000000E+00  0.21659032234E+03  0.21659032234E+03  0.00000000000E+00 0.  1.
          2   -1    0    0  501    0  0.00000000000E+00 -0.00000000000E+00 -0.34044883355E+04  0.34044883355E+04  0.00000000000E+00 0. -1.
         23    2    1    2    0    0  0.47442989182E+03  0.35542425867E+03 -0.14582526534E+04  0.15768102127E+04  0.91757940636E+02 0.  0.
        254    2    1    2    0    0 -0.47442989182E+03 -0.35542425867E+03 -0.17296453598E+04  0.20442684452E+04  0.91430316610E+03 0.  0.
        -24    2    4    4    0    0 -0.12641405543E+02 -0.38587522210E+03 -0.14381343415E+04  0.14911519729E+04  0.79021073081E+02 0.  0.
         24    2    4    4    0    0 -0.46178848628E+03  0.30450963429E+02 -0.29151101829E+03  0.55311647229E+03  0.82360736384E+02 0.  0.
         11    1    3    3    0    0  0.31452889028E+03  0.21102908811E+03 -0.10296021179E+04  0.10970607184E+04  0.00000000000E+00 0.  1.
        -11    1    3    3    0    0  0.15990100154E+03  0.14439517056E+03 -0.42865053555E+03  0.47974949422E+03  0.00000000000E+00 0. -1.
          2    1    6    6  502    0 -0.29858882147E+02  0.15141790136E+02 -0.33176604598E+01  0.33642733576E+02  0.00000000000E+00 0. -1.
          3    1    5    5  503    0 -0.28279268243E+02 -0.48058589864E+02 -0.18978605028E+03  0.19780821508E+03  0.00000000000E+00 0. -1.
         -4    1    5    5    0  503  0.15637862701E+02 -0.33781663224E+03 -0.12483482912E+04  0.12933437578E+04  0.00000000000E+00 0.  1.
         -1    1    6    6    0  502 -0.43192960413E+03  0.15309173293E+02 -0.28819335783E+03  0.51947373871E+03  0.00000000000E+00 0.  1.
<mgrwt>
<rscale>  0 0.17174158E+04</rscale>
<asrwt>0</asrwt>
<pdfrwt beam="1">  1        2 0.52376742E+00 0.17174158E+04</pdfrwt>
<pdfrwt beam="2">  1       -2 0.33321589E-01 0.17174158E+04</pdfrwt>
<totfact> 0.76338964E+00</totfact>
</mgrwt>
</event>
<event>
12    1  0.1496989E-007  0.1424647E+04  0.7818608E-02  0.8936169E-01
         -1   -1    0    0    0  501 -0.00000000000E+00  0.00000000000E+00  0.20020932009E+03  0.20020932009E+03  0.00000000000E+00 0.  1.
          1   -1    0    0  501    0  0.00000000000E+00 -0.00000000000E+00 -0.25343705407E+04  0.25343705407E+04  0.00000000000E+00 0. -1.
         23    2    1    2    0    0 -0.21310898123E+03 -0.15592216354E+03 -0.13343197730E+04  0.13626986940E+04  0.82530691727E+02 0.  0.
        254    2    1    2    0    0  0.21310898123E+03  0.15592216354E+03 -0.99984144759E+03  0.13718811668E+04  0.90146983112E+03 0.  0.
        -24    2    4    4    0    0 -0.30303294423E+03 -0.13233556552E+03 -0.41380270161E+03  0.53577436167E+03  0.80497351312E+02 0.  0.
         24    2    4    4    0    0  0.51614192547E+03  0.28825772906E+03 -0.58603874598E+03  0.83610680509E+03  0.78346487710E+02 0.  0.
         11    1    3    3    0    0 -0.30747480287E+01 -0.27667483972E+02 -0.20458202540E+03  0.20646730701E+03  0.00000000000E+00 0.  1.
        -11    1    3    3    0    0 -0.21003423320E+03 -0.12825467957E+03 -0.11297377476E+04  0.11562313870E+04  0.00000000000E+00 0. -1.
          2    1    6    6  502    0  0.86608593212E+02  0.62693681278E+02 -0.14712658254E+03  0.18187297045E+03  0.00000000000E+00 0. -1.
          3    1    5    5  503    0 -0.97793957339E+02 -0.81673298594E+02 -0.13161935581E+03  0.18318799256E+03  0.00000000000E+00 0. -1.
         -4    1    5    5    0  503 -0.20523898689E+03 -0.50662266926E+02 -0.28218334580E+03  0.35258636911E+03  0.00000000000E+00 0.  1.
         -1    1    6    6    0  502  0.42953333225E+03  0.22556404779E+03 -0.43891216344E+03  0.65423383464E+03  0.00000000000E+00 0.  1.
<mgrwt>
<rscale>  0 0.14246468E+04</rscale>
<asrwt>0</asrwt>
<pdfrwt beam="1">  1        1 0.38990315E+00 0.14246468E+04</pdfrwt>
<pdfrwt beam="2">  1       -1 0.30801435E-01 0.14246468E+04</pdfrwt>
<totfact> 0.12197791E+01</totfact>
</mgrwt>
</event>
<event>
12    1  0.1526268E-007  0.1486773E+04  0.7818608E-02  0.8893297E-01
         -1   -1    0    0    0  501 -0.00000000000E+00  0.00000000000E+00  0.75263186892E+03  0.75263186892E+03  0.00000000000E+00 0.  1.
          1   -1    0    0  501    0  0.00000000000E+00 -0.00000000000E+00 -0.73425430946E+03  0.73425430946E+03  0.00000000000E+00 0. -1.
         23    2    1    2    0    0 -0.19937220047E+03 -0.41710739394E+03  0.77472618302E+02  0.47753547239E+03  0.91160673595E+02 0.  0.
        254    2    1    2    0    0  0.19937220047E+03  0.41710739394E+03 -0.59095058847E+02  0.10093507060E+04  0.89530373019E+03 0.  0.
        -24    2    4    4    0    0 -0.35095252870E+03  0.15495151261E+03 -0.16661145029E+02  0.39218578217E+03  0.79714774813E+02 0.  0.
         24    2    4    4    0    0  0.55032472917E+03  0.26215588132E+03 -0.42433913818E+02  0.61716492382E+03  0.86653866059E+02 0.  0.
         11    1    3    3    0    0 -0.15131788574E+03 -0.34727424228E+03  0.29076422017E+02  0.37992359786E+03  0.00000000000E+00 0. -1.
        -11    1    3    3    0    0 -0.48054314726E+02 -0.69833151657E+02  0.48396196285E+02  0.97611874529E+02  0.00000000000E+00 0.  1.
          2    1    6    6  502    0  0.50510498012E+03  0.21273237965E+03 -0.46560501983E+02  0.55004907657E+03  0.00000000000E+00 0. -1.
          3    1    5    5  503    0 -0.35448759874E+03  0.15657400286E+03 -0.14641585318E+02  0.38780310990E+03  0.00000000000E+00 0. -1.
         -4    1    5    5    0  503  0.35350700400E+01 -0.16224902460E+01 -0.20195597106E+01  0.43826722682E+01  0.00000000000E+00 0.  1.
         -1    1    6    6    0  502  0.45219749047E+02  0.49423501672E+02  0.41265881649E+01  0.67115847244E+02  0.00000000000E+00 0.  1.
<mgrwt>
<rscale>  0 0.14867726E+04</rscale>
<asrwt>0</asrwt>
<pdfrwt beam="1">  1        1 0.11296220E+00 0.14867726E+04</pdfrwt>
<pdfrwt beam="2">  1       -1 0.11578952E+00 0.14867726E+04</pdfrwt>
<totfact> 0.16558088E+01</totfact>
</mgrwt>
</event>
<event>
12    1  0.1496989E-007  0.1769922E+04  0.7818608E-02  0.8722460E-01
         -2   -1    0    0    0  501 -0.00000000000E+00  0.00000000000E+00  0.32598119259E+03  0.32598119259E+03  0.00000000000E+00 0.  1.
          2   -1    0    0  501    0  0.00000000000E+00 -0.00000000000E+00 -0.24024565126E+04  0.24024565126E+04  0.00000000000E+00 0. -1.
         23    2    1    2    0    0 -0.62282944255E+03 -0.14206877965E+03 -0.55470486433E+03  0.85072225257E+03  0.89055105762E+02 0.  0.
        254    2    1    2    0    0  0.62282944255E+03  0.14206877965E+03 -0.15217704557E+04  0.18777154526E+04  0.89550541515E+03 0.  0.
        -24    2    4    4    0    0  0.56152602484E+03  0.16856750637E+03 -0.32252056058E+03  0.67400521345E+03  0.80851932484E+02 0.  0.
         24    2    4    4    0    0  0.61303417709E+02 -0.26498726720E+02 -0.11992498951E+04  0.12037102392E+04  0.79105862218E+02 0.  0.
         13    1    3    3    0    0 -0.10045474037E+03 -0.21125248721E+02 -0.49287914315E+02  0.11387154822E+03  0.00000000000E+00 0. -1.
        -13    1    3    3    0    0 -0.52237470217E+03 -0.12094353092E+03 -0.50541695001E+03  0.73685070435E+03  0.00000000000E+00 0.  1.
          2    1    6    6  502    0  0.75261230387E+02 -0.38620289909E+02 -0.10239552264E+04  0.10274434706E+04  0.00000000000E+00 0. -1.
          3    1    5    5  503    0  0.56274738323E+03  0.17165734702E+03 -0.32181555958E+03  0.67060876560E+03  0.00000000000E+00 0. -1.
         -2    1    5    5    0  503 -0.12213583902E+01 -0.30898406508E+01 -0.70500100099E+00  0.33964478468E+01  0.00000000000E+00 0.  1.
         -1    1    6    6    0  502 -0.13957812678E+02  0.12121563189E+02 -0.17529466874E+03  0.17626676862E+03  0.00000000000E+00 0.  1.
<mgrwt>
<rscale>  0 0.17699216E+04</rscale>
<asrwt>0</asrwt>
<pdfrwt beam="1">  1        2 0.36960869E+00 0.17699216E+04</pdfrwt>
<pdfrwt beam="2">  1       -2 0.50150953E-01 0.17699216E+04</pdfrwt>
<totfact> 0.14116806E+01</totfact>
</mgrwt>
</event>
<event>
12    1  0.1496989E-007  0.1580616E+04  0.7818608E-02  0.8832546E-01
          2   -1    0    0  501    0  0.00000000000E+00  0.00000000000E+00  0.50014229928E+03  0.50014229928E+03  0.00000000000E+00 0. -1.
         -2   -1    0    0    0  501 -0.00000000000E+00 -0.00000000000E+00 -0.12488181162E+04  0.12488181162E+04  0.00000000000E+00 0.  1.
         23    2    1    2    0    0  0.43142506243E+03  0.38964106760E+01 -0.60281817932E+03  0.74694039976E+03  0.91582951309E+02 0.  0.
        254    2    1    2    0    0 -0.43142506243E+03 -0.38964106760E+01 -0.14585763759E+03  0.10020200157E+04  0.89253957611E+03 0.  0.
        -24    2    4    4    0    0  0.21225282519E+03 -0.20627039289E+03 -0.97770772727E+02  0.32130554763E+03  0.77970469737E+02 0.  0.
         24    2    4    4    0    0 -0.64367788763E+03  0.20237398221E+03 -0.48086864861E+02  0.68071446808E+03  0.76048594852E+02 0.  0.
         13    1    3    3    0    0  0.31408793163E+03 -0.20479450618E+02 -0.37553462132E+03  0.48999682499E+03  0.00000000000E+00 0. -1.
        -13    1    3    3    0    0  0.11733713080E+03  0.24375861294E+02 -0.22728355800E+03  0.25694357477E+03  0.00000000000E+00 0.  1.
          4    1    6    6  502    0 -0.13152751532E+03  0.17972139638E+02  0.10873406676E+02  0.13319427939E+03  0.00000000000E+00 0. -1.
          1    1    5    5  503    0  0.18558303416E+02 -0.56654006050E+02 -0.32955056897E+02  0.68118446858E+02  0.00000000000E+00 0. -1.
         -2    1    5    5    0  503  0.19369452178E+03 -0.14961638684E+03 -0.64815715830E+02  0.25318710077E+03  0.00000000000E+00 0.  1.
         -3    1    6    6    0  502 -0.51215037231E+03  0.18440184258E+03 -0.58960271536E+02  0.54752018869E+03  0.00000000000E+00 0.  1.
<mgrwt>
<rscale>  0 0.15806160E+04</rscale>
<asrwt>0</asrwt>
<pdfrwt beam="1">  1        2 0.76944969E-01 0.15806160E+04</pdfrwt>
<pdfrwt beam="2">  1       -2 0.19212586E+00 0.15806160E+04</pdfrwt>
<totfact> 0.88584770E+00</totfact>
</mgrwt>
</event>
<event>
12    1  0.1496989E-007  0.1097344E+04  0.7818608E-02  0.9207785E-01
          2   -1    0    0  501    0  0.00000000000E+00  0.00000000000E+00  0.22448037736E+04  0.22448037736E+04  0.00000000000E+00 0. -1.
         -2   -1    0    0    0  501 -0.00000000000E+00 -0.00000000000E+00 -0.13410560852E+03  0.13410560852E+03  0.00000000000E+00 0.  1.
         23    2    1    2    0    0  0.57360835007E+02 -0.25600680007E+02  0.68063357725E+03  0.68871403767E+03  0.84375938510E+02 0.  0.
        254    2    1    2    0    0 -0.57360835007E+02  0.25600680007E+02  0.14300645878E+04  0.16901953444E+04  0.89873795782E+03 0.  0.
        -24    2    4    4    0    0 -0.30649000784E+03  0.30827417947E+03  0.10915690329E+04  0.11777595200E+04  0.81396798106E+02 0.  0.
         24    2    4    4    0    0  0.24912917283E+03 -0.28267349946E+03  0.33849555490E+03  0.51243582442E+03  0.77727610363E+02 0.  0.
         11    1    3    3    0    0  0.91281923011E+00 -0.11403410819E+02  0.89809072274E+01  0.14543992295E+02  0.00000000000E+00 0.  1.
        -11    1    3    3    0    0  0.56448015777E+02 -0.14197269188E+02  0.67165267002E+03  0.67417004538E+03  0.00000000000E+00 0. -1.
          4    1    6    6  502    0  0.72509198174E+02 -0.11697326941E+03  0.16314051063E+03  0.21343653808E+03  0.00000000000E+00 0. -1.
          3    1    5    5  503    0 -0.99172783940E+02  0.11889409880E+03  0.29520863775E+03  0.33334544786E+03  0.00000000000E+00 0. -1.
         -4    1    5    5    0  503 -0.20731722390E+03  0.18938008067E+03  0.79636039515E+03  0.84441407215E+03  0.00000000000E+00 0.  1.
         -1    1    6    6    0  502  0.17661997465E+03 -0.16570023005E+03  0.17535504427E+03  0.29899928634E+03  0.00000000000E+00 0.  1.
<mgrwt>
<rscale>  0 0.10973437E+04</rscale>
<asrwt>0</asrwt>
<pdfrwt beam="1">  1        2 0.34535440E+00 0.10973437E+04</pdfrwt>
<pdfrwt beam="2">  1       -2 0.20631634E-01 0.10973437E+04</pdfrwt>
<totfact> 0.98388212E+01</totfact>
</mgrwt>
</event>
<event>
12    1  0.1496989E-007  0.1050363E+04  0.7818608E-02  0.9254970E-01
          1   -1    0    0  501    0  0.00000000000E+00  0.00000000000E+00  0.13088684037E+04  0.13088684037E+04  0.00000000000E+00 0. -1.
         -1   -1    0    0    0  501 -0.00000000000E+00 -0.00000000000E+00 -0.21072811691E+03  0.21072811691E+03  0.00000000000E+00 0.  1.
         23    2    1    2    0    0 -0.87275556275E+02  0.11469641752E+02  0.25281558179E+03  0.28265282711E+03  0.90710125539E+02 0.  0.
        254    2    1    2    0    0  0.87275556275E+02 -0.11469641752E+02  0.84532470501E+03  0.12369436935E+04  0.89872535772E+03 0.  0.
        -24    2    4    4    0    0 -0.26941252807E+03  0.25915463241E+03  0.62210700425E+03  0.73063509851E+03  0.84061219743E+02 0.  0.
         24    2    4    4    0    0  0.35668808434E+03 -0.27062427416E+03  0.22321770076E+03  0.50630859500E+03  0.77835494249E+02 0.  0.
         13    1    3    3    0    0 -0.88754975791E+02 -0.22876754890E+02  0.19309965725E+03  0.21374814448E+03  0.00000000000E+00 0. -1.
        -13    1    3    3    0    0  0.14794195159E+01  0.34346396641E+02  0.59715924543E+02  0.68904682630E+02  0.00000000000E+00 0.  1.
          2    1    6    6  502    0  0.17711088201E+03 -0.16218834011E+03  0.15452192066E+03  0.28557021231E+03  0.00000000000E+00 0. -1.
          3    1    5    5  503    0 -0.23297754357E+03  0.23140169527E+03  0.48192984463E+03  0.58316520432E+03  0.00000000000E+00 0. -1.
         -4    1    5    5    0  503 -0.36434984495E+02  0.27752937141E+02  0.14017715962E+03  0.14746989419E+03  0.00000000000E+00 0.  1.
         -1    1    6    6    0  502  0.17957720233E+03 -0.10843593405E+03  0.68695780102E+02  0.22073838269E+03  0.00000000000E+00 0.  1.
<mgrwt>
<rscale>  0 0.10503626E+04</rscale>
<asrwt>0</asrwt>
<pdfrwt beam="1">  1        1 0.20136436E+00 0.10503626E+04</pdfrwt>
<pdfrwt beam="2">  1       -1 0.32419711E-01 0.10503626E+04</pdfrwt>
<totfact> 0.79218002E+01</totfact>
</mgrwt>
</event>
<event>
12    1  0.1496989E-007  0.1684388E+04  0.7818608E-02  0.8770319E-01
          1   -1    0    0  501    0  0.00000000000E+00  0.00000000000E+00  0.65324143218E+03  0.65324143218E+03  0.00000000000E+00 0. -1.
         -1   -1    0    0    0  501 -0.00000000000E+00 -0.00000000000E+00 -0.10858019812E+04  0.10858019812E+04  0.00000000000E+00 0.  1.
         23    2    1    2    0    0  0.11992938217E+03 -0.49716197306E+03  0.16134591290E+03  0.54387947121E+03  0.90660307945E+02 0.  0.
        254    2    1    2    0    0 -0.11992938217E+03  0.49716197306E+03 -0.59390646193E+03  0.11951639422E+04  0.90229644741E+03 0.  0.
        -24    2    4    4    0    0  0.29059803052E+03 -0.88459136133E+02 -0.22632536941E+03  0.38706186511E+03  0.79507738464E+02 0.  0.
         24    2    4    4    0    0 -0.41052741270E+03  0.58562110919E+03 -0.36758109252E+03  0.80810207707E+03  0.80176475881E+02 0.  0.
         13    1    3    3    0    0  0.76064511859E+02 -0.41341939145E+03  0.15866476392E+03  0.44930603212E+03  0.00000000000E+00 0. -1.
        -13    1    3    3    0    0  0.43864870315E+02 -0.83742581604E+02  0.26811489790E+01  0.94573439090E+02  0.00000000000E+00 0.  1.
          2    1    6    6  502    0 -0.40679799577E+01  0.14765241666E+02  0.26432843720E+01  0.15541807316E+02  0.00000000000E+00 0. -1.
          3    1    5    5  503    0  0.82688439014E+02 -0.24950910377E+02 -0.11201532643E+03  0.14144737265E+03  0.00000000000E+00 0. -1.
         -4    1    5    5    0  503  0.20790959151E+03 -0.63508225756E+02 -0.11431004299E+03  0.24561449246E+03  0.00000000000E+00 0.  1.
         -1    1    6    6    0  502 -0.40645943274E+03  0.57085586752E+03 -0.37022437689E+03  0.79256026976E+03  0.00000000000E+00 0.  1.
<mgrwt>
<rscale>  0 0.16843881E+04</rscale>
<asrwt>0</asrwt>
<pdfrwt beam="1">  1        1 0.10049868E+00 0.16843881E+04</pdfrwt>
<pdfrwt beam="2">  1       -1 0.16704646E+00 0.16843881E+04</pdfrwt>
<totfact> 0.74533692E+00</totfact>
</mgrwt>
</event>
<event>
12    1  0.1496989E-007  0.2170374E+04  0.7818608E-02  0.8530861E-01
         -2   -1    0    0    0  501 -0.00000000000E+00  0.00000000000E+00  0.64450659880E+03  0.64450659880E+03  0.00000000000E+00 0.  1.
          2   -1    0    0  501    0  0.00000000000E+00 -0.00000000000E+00 -0.18271814888E+04  0.18271814888E+04  0.00000000000E+00 0. -1.
         23    2    1    2    0    0 -0.64157276583E+03 -0.38194350763E+03 -0.10581448945E+04  0.12982097974E+04  0.90452217109E+02 0.  0.
        254    2    1    2    0    0  0.64157276583E+03  0.38194350763E+03 -0.12452999550E+03  0.11734782901E+04  0.89668674617E+03 0.  0.
        -24    2    4    4    0    0  0.41649737680E+03 -0.19805874064E+03 -0.25488398674E+03  0.53293206109E+03  0.79708251844E+02 0.  0.
         24    2    4    4    0    0  0.22507538903E+03  0.58000224826E+03  0.13035399124E+03  0.64054622904E+03  0.79030182659E+02 0.  0.
         11    1    3    3    0    0 -0.18967222811E+03 -0.10724769787E+03 -0.38248309870E+03  0.44019421124E+03  0.00000000000E+00 0.  1.
        -11    1    3    3    0    0 -0.45190053772E+03 -0.27469580976E+03 -0.67566179576E+03  0.85801558619E+03  0.00000000000E+00 0. -1.
          4    1    6    6  502    0  0.23152720983E+03  0.56271125320E+03  0.12369469102E+03  0.62092606642E+03  0.00000000000E+00 0. -1.
          1    1    5    5  503    0  0.25101624394E+03 -0.15344092163E+03 -0.18692171506E+03  0.34855845810E+03  0.00000000000E+00 0. -1.
         -4    1    5    5    0  503  0.16548113287E+03 -0.44617819004E+02 -0.67962271688E+02  0.18437360299E+03  0.00000000000E+00 0.  1.
         -3    1    6    6    0  502 -0.64518208046E+01  0.17290995061E+02  0.66593002198E+01  0.19620162622E+02  0.00000000000E+00 0.  1.
<mgrwt>
<rscale>  0 0.21703737E+04</rscale>
<asrwt>0</asrwt>
<pdfrwt beam="1">  1        2 0.28110484E+00 0.21703737E+04</pdfrwt>
<pdfrwt beam="2">  1       -2 0.99154864E-01 0.21703737E+04</pdfrwt>
<totfact> 0.64355902E+00</totfact>
</mgrwt>
</event>
<event>
12    1  0.1496989E-007  0.1251764E+04  0.7818608E-02  0.9068716E-01
         -1   -1    0    0    0  501 -0.00000000000E+00  0.00000000000E+00  0.10203095254E+04  0.10203095254E+04  0.00000000000E+00 0.  1.
          1   -1    0    0  501    0  0.00000000000E+00 -0.00000000000E+00 -0.38393097160E+03  0.38393097160E+03  0.00000000000E+00 0. -1.
         23    2    1    2    0    0  0.90167319444E+02 -0.16337207813E+03  0.37594252321E+03  0.42943637099E+03  0.90896834692E+02 0.  0.
        254    2    1    2    0    0 -0.90167319444E+02  0.16337207813E+03  0.26043603055E+03  0.97480412597E+03  0.92064954059E+03 0.  0.
        -24    2    4    4    0    0 -0.46960590610E+03 -0.76642526351E+02  0.11498964489E+03  0.49628057667E+03  0.81657874469E+02 0.  0.
         24    2    4    4    0    0  0.37943858665E+03  0.24001460448E+03  0.14544638566E+03  0.47852354930E+03  0.79053682542E+02 0.  0.
         11    1    3    3    0    0  0.14730610549E+02 -0.89838612035E+01  0.13429085487E+01  0.17306185387E+02  0.00000000000E+00 0. -1.
        -11    1    3    3    0    0  0.75436708894E+02 -0.15438821693E+03  0.37459961467E+03  0.41213018560E+03  0.00000000000E+00 0.  1.
          4    1    6    6  502    0  0.68960873338E+02  0.59403263468E+02  0.38804368726E-01  0.91018411698E+02  0.00000000000E+00 0. -1.
          1    1    5    5  503    0 -0.72661653568E+02 -0.42035706522E+02  0.27541298340E+02  0.88347267283E+02  0.00000000000E+00 0. -1.
         -2    1    5    5    0  503 -0.39694425253E+03 -0.34606819828E+02  0.87448346547E+02  0.40793330939E+03  0.00000000000E+00 0.  1.
         -3    1    6    6    0  502  0.31047771332E+03  0.18061134102E+03  0.14540758129E+03  0.38750513760E+03  0.00000000000E+00 0.  1.
<mgrwt>
<rscale>  0 0.12517642E+04</rscale>
<asrwt>0</asrwt>
<pdfrwt beam="1">  1        1 0.59066304E-01 0.12517642E+04</pdfrwt>
<pdfrwt beam="2">  1       -1 0.15697069E+00 0.12517642E+04</pdfrwt>
<totfact> 0.19255897E+01</totfact>
</mgrwt>
</event>
<event>
12    1  0.1496989E-007  0.1493211E+04  0.7818608E-02  0.8888980E-01
          1   -1    0    0  501    0  0.00000000000E+00  0.00000000000E+00  0.11257335104E+04  0.11257335104E+04  0.00000000000E+00 0. -1.
         -1   -1    0    0    0  501 -0.00000000000E+00 -0.00000000000E+00 -0.49516165822E+03  0.49516165822E+03  0.00000000000E+00 0.  1.
         23    2    1    2    0    0  0.13146644920E+03 -0.36789633565E+03 -0.66315992073E+02  0.40699183647E+03  0.92808421470E+02 0.  0.
        254    2    1    2    0    0 -0.13146644920E+03  0.36789633565E+03  0.69688784429E+03  0.12139033322E+04  0.91393516802E+03 0.  0.
        -24    2    4    4    0    0 -0.40534429028E+03  0.42969657189E+03  0.70327888805E+03  0.92183201051E+03  0.78929865443E+02 0.  0.
         24    2    4    4    0    0  0.27387784108E+03 -0.61800236241E+02 -0.63910437593E+01  0.29207132169E+03  0.80227616693E+02 0.  0.
         11    1    3    3    0    0  0.18139302004E+02 -0.29836926018E+02  0.19867733561E+02  0.40174659529E+02  0.00000000000E+00 0. -1.
        -11    1    3    3    0    0  0.11332714720E+03 -0.33805940964E+03 -0.86183725634E+02  0.36681717694E+03  0.00000000000E+00 0.  1.
          4    1    6    6  502    0  0.12161613628E+03 -0.29966988396E+01  0.28987564317E+02  0.12505896086E+03  0.00000000000E+00 0. -1.
          1    1    5    5  503    0 -0.38658808769E+03  0.42179834759E+03  0.65661513236E+03  0.87092343384E+03  0.00000000000E+00 0. -1.
         -2    1    5    5    0  503 -0.18756202585E+02  0.78982243046E+01  0.46663755694E+02  0.50908576665E+02  0.00000000000E+00 0.  1.
         -3    1    6    6    0  502  0.15226170480E+03 -0.58803537402E+02 -0.35378608076E+02  0.16701236083E+03  0.00000000000E+00 0.  1.
<mgrwt>
<rscale>  0 0.14932114E+04</rscale>
<asrwt>0</asrwt>
<pdfrwt beam="1">  1        1 0.17318977E+00 0.14932114E+04</pdfrwt>
<pdfrwt beam="2">  1       -1 0.76178717E-01 0.14932114E+04</pdfrwt>
<totfact> 0.20311968E+01</totfact>
</mgrwt>
</event>
<event>
12    1  0.1496989E-007  0.2177699E+04  0.7818608E-02  0.8527768E-01
         -2   -1    0    0    0  501 -0.00000000000E+00  0.00000000000E+00  0.55320276735E+03  0.55320276735E+03  0.00000000000E+00 0.  1.
          2   -1    0    0  501    0  0.00000000000E+00 -0.00000000000E+00 -0.21431445947E+04  0.21431445947E+04  0.00000000000E+00 0. -1.
         23    2    1    2    0    0 -0.99389765580E+02  0.57837111313E+03 -0.15133256119E+04  0.16257196063E+04  0.91751625388E+02 0.  0.
        254    2    1    2    0    0  0.99389765580E+02 -0.57837111313E+03 -0.76616215480E+02  0.10706277557E+04  0.89217838849E+03 0.  0.
        -24    2    4    4    0    0  0.39816852927E+03 -0.61156858716E+03  0.48620287959E+02  0.73570217933E+03  0.79620661620E+02 0.  0.
         24    2    4    4    0    0 -0.29877876369E+03  0.33197474030E+02 -0.12523650344E+03  0.33492557642E+03  0.78231311056E+02 0.  0.
         11    1    3    3    0    0 -0.10999630942E+03  0.44218380051E+03 -0.12140532204E+04  0.12967462834E+04  0.00000000000E+00 0. -1.
        -11    1    3    3    0    0  0.10606543844E+02  0.13618731263E+03 -0.29927239150E+03  0.32897332294E+03  0.00000000000E+00 0.  1.
          2    1    6    6  502    0 -0.11293552812E+02 -0.10459343825E+01  0.10238123479E+02  0.15279315633E+02  0.00000000000E+00 0. -1.
          1    1    5    5  503    0  0.68835623116E+02 -0.16520074969E+03  0.22492103105E+02  0.18037606662E+03  0.00000000000E+00 0. -1.
         -2    1    5    5    0  503  0.32933290616E+03 -0.44636783747E+03  0.26128184854E+02  0.55532611271E+03  0.00000000000E+00 0.  1.
         -1    1    6    6    0  502 -0.28748521088E+03  0.34243408413E+02 -0.13547462692E+03  0.31964626079E+03  0.00000000000E+00 0.  1.
<mgrwt>
<rscale>  0 0.21776993E+04</rscale>
<asrwt>0</asrwt>
<pdfrwt beam="1">  1        2 0.32971455E+00 0.21776993E+04</pdfrwt>
<pdfrwt beam="2">  1       -2 0.85108118E-01 0.21776993E+04</pdfrwt>
<totfact> 0.61139282E+00</totfact>
</mgrwt>
</event>
<event>
12    1  0.1496989E-007  0.1941918E+04  0.7818608E-02  0.8634268E-01
          2   -1    0    0  501    0  0.00000000000E+00  0.00000000000E+00  0.25311904954E+04  0.25311904954E+04  0.00000000000E+00 0. -1.
         -2   -1    0    0    0  501 -0.00000000000E+00 -0.00000000000E+00 -0.37245767014E+03  0.37245767014E+03  0.00000000000E+00 0.  1.
         23    2    1    2    0    0  0.75292321600E+03 -0.49714716725E+02  0.74021932597E+03  0.10608686584E+04  0.90292511532E+02 0.  0.
        254    2    1    2    0    0 -0.75292321600E+03  0.49714716725E+02  0.14185134993E+04  0.18427795072E+04  0.90238065248E+03 0.  0.
        -24    2    4    4    0    0 -0.93911195593E+03  0.13501050502E+03  0.10797252508E+04  0.14394510342E+04  0.77804628689E+02 0.  0.
         24    2    4    4    0    0  0.18618873993E+03 -0.85295788293E+02  0.33878824851E+03  0.40332847300E+03  0.77167100667E+02 0.  0.
         11    1    3    3    0    0  0.85205967429E+02 -0.22464310829E+02  0.12198502767E+03  0.15048272035E+03  0.00000000000E+00 0.  1.
        -11    1    3    3    0    0  0.66771724857E+03 -0.27250405895E+02  0.61823429830E+03  0.91038593808E+03  0.00000000000E+00 0. -1.
          2    1    6    6  502    0  0.13028491486E+02  0.14048357364E+02  0.27102422340E+02  0.33190951052E+02  0.00000000000E+00 0. -1.
          1    1    5    5  503    0 -0.28392086414E+03  0.27546834776E+02  0.27554669915E+03  0.39660543190E+03  0.00000000000E+00 0. -1.
         -4    1    5    5    0  503 -0.65519109179E+03  0.10746367024E+03  0.80417855168E+03  0.10428456023E+04  0.00000000000E+00 0.  1.
         -1    1    6    6    0  502  0.17316024844E+03 -0.99344145657E+02  0.31168582617E+03  0.37013752195E+03  0.00000000000E+00 0.  1.
<mgrwt>
<rscale>  0 0.19419179E+04</rscale>
<asrwt>0</asrwt>
<pdfrwt beam="1">  1        2 0.38941391E+00 0.19419179E+04</pdfrwt>
<pdfrwt beam="2">  1       -2 0.57301182E-01 0.19419179E+04</pdfrwt>
<totfact> 0.89007217E+00</totfact>
</mgrwt>
</event>
<event>
12    1  0.1496989E-007  0.1742387E+04  0.7818608E-02  0.8737552E-01
         -2   -1    0    0    0  501 -0.00000000000E+00  0.00000000000E+00  0.30334865304E+03  0.30334865304E+03  0.00000000000E+00 0.  1.
          2   -1    0    0  501    0  0.00000000000E+00 -0.00000000000E+00 -0.25019993073E+04  0.25019993073E+04  0.00000000000E+00 0. -1.
         23    2    1    2    0    0  0.52166216342E+02 -0.49999028256E+02 -0.18268304776E+04  0.18305820782E+04  0.92195087788E+02 0.  0.
        254    2    1    2    0    0 -0.52166216342E+02  0.49999028256E+02 -0.37182017672E+03  0.97476588219E+03  0.89816316129E+03 0.  0.
        -24    2    4    4    0    0 -0.28933672146E+03 -0.10847507994E+03 -0.54452490122E+03  0.63125124952E+03  0.80549305512E+02 0.  0.
         24    2    4    4    0    0  0.23717050512E+03  0.15847410820E+03  0.17270472449E+03  0.34351463267E+03  0.82531748604E+02 0.  0.
         13    1    3    3    0    0  0.48029217999E+02 -0.60522401833E+02 -0.80730858159E+03  0.81099748015E+03  0.00000000000E+00 0.  1.
        -13    1    3    3    0    0  0.41369983433E+01  0.10523373577E+02 -0.10195218960E+04  0.10195845980E+04  0.00000000000E+00 0. -1.
          2    1    6    6  502    0  0.47004074366E+02  0.45048691388E+02  0.80822545852E+02  0.10378367656E+03  0.00000000000E+00 0. -1.
          1    1    5    5  503    0 -0.18646523240E+03 -0.73285774201E+02 -0.27186590576E+03  0.33771461074E+03  0.00000000000E+00 0. -1.
         -2    1    5    5    0  503 -0.10287148906E+03 -0.35189305741E+02 -0.27265899546E+03  0.29353663878E+03  0.00000000000E+00 0.  1.
         -1    1    6    6    0  502  0.19016643075E+03  0.11342541681E+03  0.91882178642E+02  0.23973095611E+03  0.00000000000E+00 0.  1.
<mgrwt>
<rscale>  0 0.17423870E+04</rscale>
<asrwt>0</asrwt>
<pdfrwt beam="1">  1        2 0.38492298E+00 0.17423870E+04</pdfrwt>
<pdfrwt beam="2">  1       -2 0.46669023E-01 0.17423870E+04</pdfrwt>
<totfact> 0.14352490E+01</totfact>
</mgrwt>
</event>
<event>
12    1  0.1496989E-007  0.1606939E+04  0.7818608E-02  0.8816296E-01
          1   -1    0    0  501    0  0.00000000000E+00  0.00000000000E+00  0.13348164289E+04  0.13348164289E+04  0.00000000000E+00 0. -1.
         -1   -1    0    0    0  501 -0.00000000000E+00 -0.00000000000E+00 -0.48363449601E+03  0.48363449601E+03  0.00000000000E+00 0.  1.
         23    2    1    2    0    0  0.21383193790E+03  0.47662430541E+03  0.39073334020E+03  0.65955855222E+03  0.97211699363E+02 0.  0.
        254    2    1    2    0    0 -0.21383193790E+03 -0.47662430541E+03  0.46044859268E+03  0.11588923727E+04  0.92634971732E+03 0.  0.
        -24    2    4    4    0    0  0.93557214650E+02 -0.14710916158E+03  0.63956606677E+03  0.66775705266E+03  0.80378291757E+02 0.  0.
         24    2    4    4    0    0 -0.30738915255E+03 -0.32951514383E+03 -0.17911747409E+03  0.49113532001E+03  0.77862134045E+02 0.  0.
         13    1    3    3    0    0  0.20818252285E+03  0.46346548560E+03  0.35155189515E+03  0.61784217576E+03  0.00000000000E+00 0. -1.
        -13    1    3    3    0    0  0.56494150505E+01  0.13158819812E+02  0.39181445050E+02  0.41716376466E+02  0.00000000000E+00 0.  1.
          4    1    6    6  502    0 -0.97280039731E+02 -0.57871611473E+02 -0.32825012366E+02  0.11785589074E+03  0.00000000000E+00 0. -1.
          1    1    5    5  503    0  0.38449646131E+02 -0.11044879768E+02  0.82719248761E+02  0.91884921354E+02  0.00000000000E+00 0. -1.
         -2    1    5    5    0  503  0.55107568519E+02 -0.13606428181E+03  0.55684681801E+03  0.57587213131E+03  0.00000000000E+00 0.  1.
         -3    1    6    6    0  502 -0.21010911282E+03 -0.27164353236E+03 -0.14629246173E+03  0.37327942927E+03  0.00000000000E+00 0.  1.
<mgrwt>
<rscale>  0 0.16069390E+04</rscale>
<asrwt>0</asrwt>
<pdfrwt beam="1">  1        1 0.20535637E+00 0.16069390E+04</pdfrwt>
<pdfrwt beam="2">  1       -1 0.74405308E-01 0.16069390E+04</pdfrwt>
<totfact> 0.14893610E+01</totfact>
</mgrwt>
</event>
<event>
12    1  0.1496989E-007  0.2020741E+04  0.7818608E-02  0.8596984E-01
         -2   -1    0    0    0  501 -0.00000000000E+00  0.00000000000E+00  0.23425710715E+04  0.23425710715E+04  0.00000000000E+00 0.  1.
          2   -1    0    0  501    0  0.00000000000E+00 -0.00000000000E+00 -0.43578144267E+03  0.43578144267E+03  0.00000000000E+00 0. -1.
         23    2    1    2    0    0 -0.25197879939E+03  0.61793965517E+03  0.13945306699E+04  0.15487814589E+04  0.93088589056E+02 0.  0.
        254    2    1    2    0    0  0.25197879939E+03 -0.61793965517E+03  0.51225895894E+03  0.12295710553E+04  0.89671233187E+03 0.  0.
        -24    2    4    4    0    0  0.55361360975E+03 -0.22526221126E+03  0.37286857200E+03  0.70909378802E+03  0.80944027020E+02 0.  0.
         24    2    4    4    0    0 -0.30163481036E+03 -0.39267744392E+03  0.13939038695E+03  0.52047726723E+03  0.79295472457E+02 0.  0.
         13    1    3    3    0    0 -0.23374159962E+03  0.48083606846E+03  0.10754014001E+04  0.12009690385E+04  0.00000000000E+00 0.  1.
        -13    1    3    3    0    0 -0.18237199767E+02  0.13710358671E+03  0.31912926976E+03  0.34781242037E+03  0.00000000000E+00 0. -1.
          2    1    6    6  502    0 -0.24585719718E+03 -0.35837570430E+03  0.13392352064E+03  0.45476853037E+03  0.00000000000E+00 0. -1.
          3    1    5    5  503    0  0.39684634969E+03 -0.18513563686E+03  0.30479340565E+03  0.53353654929E+03  0.00000000000E+00 0. -1.
         -4    1    5    5    0  503  0.15676726006E+03 -0.40126574400E+02  0.68075166346E+02  0.17555723874E+03  0.00000000000E+00 0.  1.
         -3    1    6    6    0  502 -0.55777613178E+02 -0.34301739617E+02  0.54668663121E+01  0.65708736861E+02  0.00000000000E+00 0.  1.
<mgrwt>
<rscale>  0 0.20207414E+04</rscale>
<asrwt>0</asrwt>
<pdfrwt beam="1">  1        2 0.67043300E-01 0.20207414E+04</pdfrwt>
<pdfrwt beam="2">  1       -2 0.36039554E+00 0.20207414E+04</pdfrwt>
<totfact> 0.89690430E-01</totfact>
</mgrwt>
</event>
<event>
12    1  0.1496989E-007  0.1312872E+04  0.7818608E-02  0.9019419E-01
          2   -1    0    0  501    0  0.00000000000E+00  0.00000000000E+00  0.43229695512E+03  0.43229695512E+03  0.00000000000E+00 0. -1.
         -2   -1    0    0    0  501 -0.00000000000E+00 -0.00000000000E+00 -0.99678733724E+03  0.99678733724E+03  0.00000000000E+00 0.  1.
         23    2    1    2    0    0  0.10650748117E+03 -0.19792702622E+03 -0.43187684907E+03  0.49548655382E+03  0.92034564172E+02 0.  0.
        254    2    1    2    0    0 -0.10650748117E+03  0.19792702622E+03 -0.13261353305E+03  0.93359773854E+03  0.89638130113E+03 0.  0.
        -24    2    4    4    0    0  0.26952346480E+02 -0.13553059828E+03 -0.43125448407E+03  0.45980152322E+03  0.79636917814E+02 0.  0.
         24    2    4    4    0    0 -0.13345982765E+03  0.33345762450E+03  0.29864095101E+03  0.47379621532E+03  0.79315339600E+02 0.  0.
         11    1    3    3    0    0  0.38857864424E+02 -0.14833583287E+03 -0.32719439361E+03  0.36134419070E+03  0.00000000000E+00 0.  1.
        -11    1    3    3    0    0  0.67649616744E+02 -0.49591193348E+02 -0.10468245546E+03  0.13414236313E+03  0.00000000000E+00 0. -1.
          2    1    6    6  502    0 -0.56740160014E+02  0.16403085568E+03  0.19432125213E+03  0.26055002668E+03  0.00000000000E+00 0. -1.
          1    1    5    5  503    0  0.43105555778E+01 -0.36586656518E+02 -0.24437586999E+03  0.24713706755E+03  0.00000000000E+00 0. -1.
         -2    1    5    5    0  503  0.22641790903E+02 -0.98943941762E+02 -0.18687861408E+03  0.21266445567E+03  0.00000000000E+00 0.  1.
         -1    1    6    6    0  502 -0.76719667635E+02  0.16942676881E+03  0.10431969889E+03  0.21324618864E+03  0.00000000000E+00 0.  1.
<mgrwt>
<rscale>  0 0.13128719E+04</rscale>
<asrwt>0</asrwt>
<pdfrwt beam="1">  1        2 0.66507225E-01 0.13128719E+04</pdfrwt>
<pdfrwt beam="2">  1       -2 0.15335189E+00 0.13128719E+04</pdfrwt>
<totfact> 0.20122370E+01</totfact>
</mgrwt>
</event>
<event>
12    1  0.1496989E-007  0.1537048E+04  0.7818608E-02  0.8860183E-01
          2   -1    0    0  501    0  0.00000000000E+00  0.00000000000E+00  0.13547853420E+04  0.13547853420E+04  0.00000000000E+00 0. -1.
         -2   -1    0    0    0  501 -0.00000000000E+00 -0.00000000000E+00 -0.43595788216E+03  0.43595788216E+03  0.00000000000E+00 0.  1.
         23    2    1    2    0    0  0.42045532196E+03 -0.72071658977E+02  0.59993883191E+03  0.74184032975E+03  0.91779469479E+02 0.  0.
        254    2    1    2    0    0 -0.42045532196E+03  0.72071658977E+02  0.31888862789E+03  0.10489028944E+04  0.90362067431E+03 0.  0.
        -24    2    4    4    0    0 -0.34783349478E+03 -0.37970328430E+03  0.25665927333E+03  0.58082226766E+03  0.79484588565E+02 0.  0.
         24    2    4    4    0    0 -0.72621827176E+02  0.45177494328E+03  0.62229354561E+02  0.46808062671E+03  0.76501316173E+02 0.  0.
         13    1    3    3    0    0  0.12789524030E+03  0.20104915925E+02  0.18690069965E+03  0.22736154395E+03  0.00000000000E+00 0.  1.
        -13    1    3    3    0    0  0.29256008166E+03 -0.92176574903E+02  0.41303813226E+03  0.51447878580E+03  0.00000000000E+00 0. -1.
          2    1    6    6  502    0 -0.76597088611E+02  0.25679363238E+03  0.50623150512E+02  0.27271374549E+03  0.00000000000E+00 0. -1.
          1    1    5    5  503    0 -0.31254138289E+03 -0.30242279947E+03  0.22877370473E+03  0.49140520310E+03  0.00000000000E+00 0. -1.
         -2    1    5    5    0  503 -0.35292111889E+02 -0.77280484837E+02  0.27885568599E+02  0.89417064559E+02  0.00000000000E+00 0.  1.
         -3    1    6    6    0  502  0.39752614348E+01  0.19498131090E+03  0.11606204049E+02  0.19536688122E+03  0.00000000000E+00 0.  1.
<mgrwt>
<rscale>  0 0.15370483E+04</rscale>
<asrwt>0</asrwt>
<pdfrwt beam="1">  1        2 0.20842851E+00 0.15370483E+04</pdfrwt>
<pdfrwt beam="2">  1       -2 0.67070444E-01 0.15370483E+04</pdfrwt>
<totfact> 0.30200686E+01</totfact>
</mgrwt>
</event>
<event>
12    1  0.1496989E-007  0.1844788E+04  0.7818608E-02  0.8682838E-01
         -2   -1    0    0    0  501 -0.00000000000E+00  0.00000000000E+00  0.18588287283E+04  0.18588287283E+04  0.00000000000E+00 0.  1.
          2   -1    0    0  501    0  0.00000000000E+00 -0.00000000000E+00 -0.45771357939E+03  0.45771357939E+03  0.00000000000E+00 0. -1.
         23    2    1    2    0    0 -0.29134161799E+03  0.12378734819E+02 -0.26980263238E+03  0.40749446990E+03  0.90692398303E+02 0.  0.
        254    2    1    2    0    0  0.29134161799E+03 -0.12378734819E+02  0.16709177813E+04  0.19090478378E+04  0.87605036597E+03 0.  0.
        -24    2    4    4    0    0  0.35541331502E+03  0.34513042622E+03  0.64315228141E+03  0.81612549589E+03  0.83560351556E+02 0.  0.
         24    2    4    4    0    0 -0.64071697031E+02 -0.35750916104E+03  0.10277654999E+04  0.10929223419E+04  0.79115991459E+02 0.  0.
         13    1    3    3    0    0 -0.16182832488E+02  0.11973316867E+02 -0.54541993566E+02  0.58138399069E+02  0.00000000000E+00 0.  1.
        -13    1    3    3    0    0 -0.27515878550E+03  0.40541795155E+00 -0.21526063881E+03  0.34935607083E+03  0.00000000000E+00 0. -1.
          2    1    6    6  502    0 -0.25391425884E+02 -0.30346891071E+03  0.81595607107E+03  0.87093192282E+03  0.00000000000E+00 0. -1.
          3    1    5    5  503    0  0.35952763907E+03  0.33883717187E+03  0.63839065879E+03  0.80722573394E+03  0.00000000000E+00 0. -1.
         -4    1    5    5    0  503 -0.41143240505E+01  0.62932543579E+01  0.47616226154E+01  0.88997619484E+01  0.00000000000E+00 0.  1.
         -1    1    6    6    0  502 -0.38680271147E+02 -0.54040250336E+02  0.21180942884E+03  0.22199041911E+03  0.00000000000E+00 0.  1.
<mgrwt>
<rscale>  0 0.18447885E+04</rscale>
<asrwt>0</asrwt>
<pdfrwt beam="1">  1        2 0.70417475E-01 0.18447885E+04</pdfrwt>
<pdfrwt beam="2">  1       -2 0.28597365E+00 0.18447885E+04</pdfrwt>
<totfact> 0.24868947E+00</totfact>
</mgrwt>
</event>
<event>
12    1  0.1496989E-007  0.1526142E+04  0.7818608E-02  0.8867253E-01
         -2   -1    0    0    0  501 -0.00000000000E+00  0.00000000000E+00  0.44829868038E+03  0.44829868038E+03  0.00000000000E+00 0.  1.
          2   -1    0    0  501    0  0.00000000000E+00 -0.00000000000E+00 -0.12988599579E+04  0.12988599579E+04  0.00000000000E+00 0. -1.
         23    2    1    2    0    0 -0.71215144372E+02  0.73791385013E+02  0.26351053962E+03  0.29722092036E+03  0.91573498997E+02 0.  0.
        254    2    1    2    0    0  0.71215144372E+02 -0.73791385013E+02 -0.11140718171E+04  0.14499377179E+04  0.92230505085E+03 0.  0.
        -24    2    4    4    0    0  0.16825343387E+03 -0.47231729785E+03 -0.57182846461E+03  0.76475881158E+03  0.80469864542E+02 0.  0.
         24    2    4    4    0    0 -0.97038289499E+02  0.39852591283E+03 -0.54224335254E+03  0.68517890635E+03  0.84870180324E+02 0.  0.
         13    1    3    3    0    0 -0.66695358025E+02  0.11011356756E+02  0.89381178819E+02  0.11206478433E+03  0.00000000000E+00 0. -1.
        -13    1    3    3    0    0 -0.45197863462E+01  0.62780028257E+02  0.17412936080E+03  0.18515613603E+03  0.00000000000E+00 0.  1.
          4    1    6    6  502    0 -0.22234094855E+02  0.43699271878E+02 -0.29691590378E+02  0.57319908199E+02  0.00000000000E+00 0. -1.
          1    1    5    5  503    0  0.23730021929E+02 -0.32383482507E+02 -0.21540520760E+02  0.45560925305E+02  0.00000000000E+00 0. -1.
         -2    1    5    5    0  503  0.14452341194E+03 -0.43993381534E+03 -0.55028794385E+03  0.71919788627E+03  0.00000000000E+00 0.  1.
         -3    1    6    6    0  502 -0.74804194644E+02  0.35482664095E+03 -0.51255176216E+03  0.62785899815E+03  0.00000000000E+00 0.  1.
<mgrwt>
<rscale>  0 0.15261418E+04</rscale>
<asrwt>0</asrwt>
<pdfrwt beam="1">  1        2 0.19982461E+00 0.15261418E+04</pdfrwt>
<pdfrwt beam="2">  1       -2 0.68969029E-01 0.15261418E+04</pdfrwt>
<totfact> 0.30656544E+01</totfact>
</mgrwt>
</event>
<event>
12    1  0.1496989E-007  0.1163105E+04  0.7818608E-02  0.9145778E-01
          2   -1    0    0  501    0  0.00000000000E+00  0.00000000000E+00  0.24377879364E+04  0.24377879364E+04  0.00000000000E+00 0. -1.
         -2   -1    0    0    0  501 -0.00000000000E+00 -0.00000000000E+00 -0.13873380657E+03  0.13873380657E+03  0.00000000000E+00 0.  1.
         23    2    1    2    0    0 -0.15984887037E+03  0.12854110713E+03  0.38484363572E+03  0.44596091854E+03  0.93284721841E+02 0.  0.
        254    2    1    2    0    0  0.15984887037E+03 -0.12854110713E+03  0.19142104941E+04  0.21305608244E+04  0.91269553153E+03 0.  0.
        -24    2    4    4    0    0 -0.38875944435E+02  0.36803110095E+03  0.98878954201E+03  0.10588013735E+04  0.79983497180E+02 0.  0.
         24    2    4    4    0    0  0.19872481480E+03 -0.49657220808E+03  0.92542095208E+03  0.10717594509E+04  0.78669385516E+02 0.  0.
         13    1    3    3    0    0 -0.15582525514E+02 -0.12147307264E-01  0.10340165288E+03  0.10456919751E+03  0.00000000000E+00 0. -1.
        -13    1    3    3    0    0 -0.14426634485E+03  0.12855325443E+03  0.28144198284E+03  0.34139172103E+03  0.00000000000E+00 0.  1.
          4    1    6    6  502    0  0.65102163423E+02 -0.13281558085E+03  0.19326126730E+03  0.24336841956E+03  0.00000000000E+00 0. -1.
          1    1    5    5  503    0 -0.27327648996E+02  0.11821453592E+03  0.42615599545E+03  0.44309187462E+03  0.00000000000E+00 0. -1.
         -2    1    5    5    0  503 -0.11548295439E+02  0.24981656504E+03  0.56263354656E+03  0.61570949888E+03  0.00000000000E+00 0.  1.
         -3    1    6    6    0  502  0.13362265138E+03 -0.36375662722E+03  0.73215968477E+03  0.82839103135E+03  0.00000000000E+00 0.  1.
<mgrwt>
<rscale>  0 0.11631055E+04</rscale>
<asrwt>0</asrwt>
<pdfrwt beam="1">  1        2 0.37504427E+00 0.11631055E+04</pdfrwt>
<pdfrwt beam="2">  1       -2 0.21343664E-01 0.11631055E+04</pdfrwt>
<totfact> 0.71721457E+01</totfact>
</mgrwt>
</event>
<event>
12    1  0.1496989E-007  0.2483241E+04  0.7818608E-02  0.8408980E-01
         -1   -1    0    0    0  501 -0.00000000000E+00  0.00000000000E+00  0.72540084819E+03  0.72540084819E+03  0.00000000000E+00 0.  1.
          1   -1    0    0  501    0  0.00000000000E+00 -0.00000000000E+00 -0.21251997600E+04  0.21251997600E+04  0.00000000000E+00 0. -1.
         23    2    1    2    0    0  0.85167164577E+03  0.64386286164E+03 -0.49885500744E+03  0.11818615085E+04  0.89645580505E+02 0.  0.
        254    2    1    2    0    0 -0.85167164577E+03 -0.64386286164E+03 -0.90094390432E+03  0.16687390996E+04  0.91273560629E+03 0.  0.
        -24    2    4    4    0    0 -0.95307690791E+03 -0.49043608230E+03 -0.97879776133E+03  0.14538207614E+04  0.81649283352E+02 0.  0.
         24    2    4    4    0    0  0.10140526214E+03 -0.15342677934E+03  0.77853857002E+02  0.21491833821E+03  0.79409478270E+02 0.  0.
         11    1    3    3    0    0  0.57399239625E+02  0.20148418144E+02 -0.38480145008E+02  0.71981615869E+02  0.00000000000E+00 0.  1.
        -11    1    3    3    0    0  0.79427240615E+03  0.62371444350E+03 -0.46037486243E+03  0.11098798927E+04  0.00000000000E+00 0. -1.
          4    1    6    6  502    0  0.23102814067E+02 -0.73055095779E+02  0.67709763550E+02  0.10225164604E+03  0.00000000000E+00 0. -1.
          1    1    5    5  503    0 -0.14560719415E+03 -0.71772483164E+02 -0.18969707455E+03  0.24967523790E+03  0.00000000000E+00 0. -1.
         -2    1    5    5    0  503 -0.80746971376E+03 -0.41866359914E+03 -0.78910068678E+03  0.12041455235E+04  0.00000000000E+00 0.  1.
         -3    1    6    6    0  502  0.78302448075E+02 -0.80371683558E+02  0.10144093453E+02  0.11266669217E+03  0.00000000000E+00 0.  1.
<mgrwt>
<rscale>  0 0.24832412E+04</rscale>
<asrwt>0</asrwt>
<pdfrwt beam="1">  1        1 0.32695380E+00 0.24832412E+04</pdfrwt>
<pdfrwt beam="2">  1       -1 0.11160013E+00 0.24832412E+04</pdfrwt>
<totfact> 0.16069766E+00</totfact>
</mgrwt>
</event>
<event>
12    1  0.1496989E-007  0.1612642E+04  0.7818608E-02  0.8812819E-01
          1   -1    0    0  501    0  0.00000000000E+00  0.00000000000E+00  0.90969700184E+03  0.90969700184E+03  0.00000000000E+00 0. -1.
         -1   -1    0    0    0  501 -0.00000000000E+00 -0.00000000000E+00 -0.71469199296E+03  0.71469199296E+03  0.00000000000E+00 0.  1.
         23    2    1    2    0    0  0.82318607179E+02  0.25660976980E+03 -0.42080703116E+03  0.50795414616E+03  0.91180754979E+02 0.  0.
        254    2    1    2    0    0 -0.82318607179E+02 -0.25660976980E+03  0.61581204004E+03  0.11164348486E+04  0.89139069749E+03 0.  0.
        -24    2    4    4    0    0  0.10380348190E+03 -0.21987648036E+03 -0.16784823960E+03  0.30614397297E+03  0.80188971700E+02 0.  0.
         24    2    4    4    0    0 -0.18612208908E+03 -0.36733289445E+02  0.78366027964E+03  0.81029087567E+03  0.80356099364E+02 0.  0.
         13    1    3    3    0    0  0.13449975487E+02  0.28499219349E+02 -0.12074839293E+03  0.12479295549E+03  0.00000000000E+00 0. -1.
        -13    1    3    3    0    0  0.68868631692E+02  0.22811055045E+03 -0.30005863823E+03  0.38316119067E+03  0.00000000000E+00 0.  1.
          4    1    6    6  502    0 -0.21415992787E+02 -0.23701934508E+02  0.23891480613E+03  0.24104089080E+03  0.00000000000E+00 0. -1.
          3    1    5    5  503    0  0.41862348248E+02 -0.11329189994E+03 -0.36880266406E+02  0.12628406409E+03  0.00000000000E+00 0. -1.
         -4    1    5    5    0  503  0.61941133649E+02 -0.10658458042E+03 -0.13096797320E+03  0.17985990888E+03  0.00000000000E+00 0.  1.
         -3    1    6    6    0  502 -0.16470609629E+03 -0.13031354937E+02  0.54474547351E+03  0.56924998487E+03  0.00000000000E+00 0.  1.
<mgrwt>
<rscale>  0 0.16126415E+04</rscale>
<asrwt>0</asrwt>
<pdfrwt beam="1">  1        1 0.13995338E+00 0.16126415E+04</pdfrwt>
<pdfrwt beam="2">  1       -1 0.10995261E+00 0.16126415E+04</pdfrwt>
<totfact> 0.13086992E+01</totfact>
</mgrwt>
</event>
<event>
12    1  0.1496989E-007  0.1548300E+04  0.7818608E-02  0.8852954E-01
         -2   -1    0    0    0  501 -0.00000000000E+00  0.00000000000E+00  0.49129410564E+03  0.49129410564E+03  0.00000000000E+00 0.  1.
          2   -1    0    0  501    0  0.00000000000E+00 -0.00000000000E+00 -0.12198567699E+04  0.12198567699E+04  0.00000000000E+00 0. -1.
         23    2    1    2    0    0  0.57610620084E+01  0.30623190576E+03  0.19601681319E+03  0.37769054799E+03  0.10206071256E+03 0.  0.
        254    2    1    2    0    0 -0.57610620084E+01 -0.30623190576E+03 -0.92457947745E+03  0.13334603276E+04  0.91074588394E+03 0.  0.
        -24    2    4    4    0    0  0.28697013006E+03 -0.55610970320E+02 -0.88758984830E+03  0.93793906904E+03  0.80433344129E+02 0.  0.
         24    2    4    4    0    0 -0.29273119206E+03 -0.25062093544E+03 -0.36989629147E+02  0.39552125852E+03  0.81033506587E+02 0.  0.
         11    1    3    3    0    0  0.27609434789E+02  0.16564681360E+02  0.23150444731E+02  0.39656180467E+02  0.00000000000E+00 0. -1.
        -11    1    3    3    0    0 -0.21848372781E+02  0.28966722440E+03  0.17286636845E+03  0.33803436753E+03  0.00000000000E+00 0.  1.
          4    1    6    6  502    0 -0.47315795214E+02 -0.13601930445E+02 -0.22228972646E+02  0.54017813853E+02  0.00000000000E+00 0. -1.
          1    1    5    5  503    0  0.10391934319E+03 -0.57250423924E+01 -0.21131630195E+03  0.23555590731E+03  0.00000000000E+00 0. -1.
         -2    1    5    5    0  503  0.18305078687E+03 -0.49885927928E+02 -0.67627354635E+03  0.70238316173E+03  0.00000000000E+00 0.  1.
         -3    1    6    6    0  502 -0.24541539685E+03 -0.23701900500E+03 -0.14760656501E+02  0.34150344467E+03  0.00000000000E+00 0.  1.
<mgrwt>
<rscale>  0 0.15483003E+04</rscale>
<asrwt>0</asrwt>
<pdfrwt beam="1">  1        2 0.18767027E+00 0.15483003E+04</pdfrwt>
<pdfrwt beam="2">  1       -2 0.75583709E-01 0.15483003E+04</pdfrwt>
<totfact> 0.27851864E+01</totfact>
</mgrwt>
</event>
<event>
12    1  0.1496989E-007  0.2118363E+04  0.7818608E-02  0.8553197E-01
          1   -1    0    0  501    0  0.00000000000E+00  0.00000000000E+00  0.18165445478E+04  0.18165445478E+04  0.00000000000E+00 0. -1.
         -1   -1    0    0    0  501 -0.00000000000E+00 -0.00000000000E+00 -0.61758207740E+03  0.61758207740E+03  0.00000000000E+00 0.  1.
         23    2    1    2    0    0  0.83960212053E+03 -0.16533470053E+03  0.33560167676E+03  0.92362241567E+03  0.90457709925E+02 0.  0.
        254    2    1    2    0    0 -0.83960212053E+03  0.16533470053E+03  0.86336079367E+03  0.15105042096E+04  0.89664029748E+03 0.  0.
        -24    2    4    4    0    0 -0.49994116401E+03 -0.76635090221E+02  0.94833545103E+03  0.10775563054E+04  0.77287509463E+02 0.  0.
         24    2    4    4    0    0 -0.33966095653E+03  0.24196979075E+03 -0.84974657362E+02  0.43294790416E+03  0.79399309185E+02 0.  0.
         11    1    3    3    0    0  0.41592115331E+03 -0.52498696636E+02  0.12669167370E+03  0.43794668523E+03  0.00000000000E+00 0. -1.
        -11    1    3    3    0    0  0.42368096722E+03 -0.11283600389E+03  0.20891000306E+03  0.48567573044E+03  0.00000000000E+00 0.  1.
          2    1    6    6  502    0 -0.93514906561E+02  0.11059840687E+03 -0.40725362893E+02  0.15045132281E+03  0.00000000000E+00 0. -1.
          1    1    5    5  503    0 -0.31635367770E+02 -0.10580395839E+02  0.11082601905E+03  0.11573740869E+03  0.00000000000E+00 0. -1.
         -2    1    5    5    0  503 -0.46830579624E+03 -0.66054694381E+02  0.83750943198E+03  0.96181889672E+03  0.00000000000E+00 0.  1.
         -1    1    6    6    0  502 -0.24614604996E+03  0.13137138388E+03 -0.44249294469E+02  0.28249658135E+03  0.00000000000E+00 0.  1.
<mgrwt>
<rscale>  0 0.21183629E+04</rscale>
<asrwt>0</asrwt>
<pdfrwt beam="1">  1        1 0.27946839E+00 0.21183629E+04</pdfrwt>
<pdfrwt beam="2">  1       -1 0.95012628E-01 0.21183629E+04</pdfrwt>
<totfact> 0.39014415E+00</totfact>
</mgrwt>
</event>
<event>
12    1  0.1496989E-007  0.2754858E+04  0.7818608E-02  0.8317422E-01
          2   -1    0    0  501    0  0.00000000000E+00  0.00000000000E+00  0.18067784078E+04  0.18067784078E+04  0.00000000000E+00 0.  1.
         -2   -1    0    0    0  501 -0.00000000000E+00 -0.00000000000E+00 -0.10501066605E+04  0.10501066605E+04  0.00000000000E+00 0. -1.
         23    2    1    2    0    0  0.72887499237E+03 -0.95929699081E+03  0.12641023928E+03  0.12145679132E+04  0.87670953297E+02 0.  0.
        254    2    1    2    0    0 -0.72887499237E+03  0.95929699081E+03  0.63026150795E+03  0.16423171551E+04  0.92112246666E+03 0.  0.
        -24    2    4    4    0    0 -0.61146028744E+03  0.42837653502E+03 -0.67758032062E+02  0.75390810301E+03  0.79975858839E+02 0.  0.
         24    2    4    4    0    0 -0.11741470493E+03  0.53092045579E+03  0.69801954002E+03  0.88840905213E+03  0.79853756067E+02 0.  0.
         11    1    3    3    0    0  0.70194169703E+03 -0.91242707997E+03  0.13752911185E+03  0.11593789626E+04  0.00000000000E+00 0.  1.
        -11    1    3    3    0    0  0.26933295338E+02 -0.46869910839E+02 -0.11118872566E+02  0.55188950587E+02  0.00000000000E+00 0. -1.
          4    1    6    6  502    0 -0.35573170873E+02  0.13676988286E+03  0.24098839353E+03  0.27936867605E+03  0.00000000000E+00 0. -1.
          3    1    5    5  503    0 -0.57802220755E+03  0.42370513480E+03 -0.59496272386E+02  0.71914916401E+03  0.00000000000E+00 0. -1.
         -4    1    5    5    0  503 -0.33438079894E+02  0.46714002209E+01 -0.82617596759E+01  0.34758938994E+02  0.00000000000E+00 0.  1.
         -1    1    6    6    0  502 -0.81841534056E+02  0.39415057293E+03  0.45703114649E+03  0.60904037608E+03  0.00000000000E+00 0.  1.
<mgrwt>
<rscale>  0 0.27548576E+04</rscale>
<asrwt>0</asrwt>
<pdfrwt beam="1">  1        2 0.27796591E+00 0.27548576E+04</pdfrwt>
<pdfrwt beam="2">  1       -2 0.16155487E+00 0.27548576E+04</pdfrwt>
<totfact> 0.18331375E+00</totfact>
</mgrwt>
</event>
<event>
12    1  0.1496989E-007  0.2124139E+04  0.7818608E-02  0.8550684E-01
         -2   -1    0    0    0  501 -0.00000000000E+00  0.00000000000E+00  0.70125870646E+03  0.70125870646E+03  0.00000000000E+00 0.  1.
          2   -1    0    0  501    0  0.00000000000E+00 -0.00000000000E+00 -0.16085247573E+04  0.16085247573E+04  0.00000000000E+00 0. -1.
         23    2    1    2    0    0  0.47933147503E+03 -0.64699120626E+03 -0.77059588034E+03  0.11181468380E+04  0.89878009677E+02 0.  0.
        254    2    1    2    0    0 -0.47933147503E+03  0.64699120626E+03 -0.13667017045E+03  0.11916366257E+04  0.86773430745E+03 0.  0.
        -24    2    4    4    0    0 -0.58796113276E+03  0.38252941449E+03  0.20941967365E+03  0.73650262656E+03  0.80947344753E+02 0.  0.
         24    2    4    4    0    0  0.10862965773E+03  0.26446179177E+03 -0.34608984410E+03  0.45513399916E+03  0.75022231055E+02 0.  0.
         13    1    3    3    0    0  0.43814090874E+03 -0.55310240744E+03 -0.64472015891E+03  0.95580009015E+03  0.00000000000E+00 0.  1.
        -13    1    3    3    0    0  0.41190566291E+02 -0.93888798814E+02 -0.12587572143E+03  0.16234674786E+03  0.00000000000E+00 0. -1.
          4    1    6    6  502    0  0.11256634520E+03  0.24803373016E+03 -0.34294034320E+03  0.43794976009E+03  0.00000000000E+00 0. -1.
          3    1    5    5  503    0 -0.53915111816E+03  0.36260004372E+03  0.21272482232E+03  0.68367724106E+03  0.00000000000E+00 0. -1.
         -4    1    5    5    0  503 -0.48810014602E+02  0.19929370775E+02 -0.33051486656E+01  0.52825385494E+02  0.00000000000E+00 0.  1.
         -3    1    6    6    0  502 -0.39366874694E+01  0.16428061609E+02 -0.31495009088E+01  0.17184239071E+02  0.00000000000E+00 0.  1.
<mgrwt>
<rscale>  0 0.21241393E+04</rscale>
<asrwt>0</asrwt>
<pdfrwt beam="1">  1        2 0.24746535E+00 0.21241393E+04</pdfrwt>
<pdfrwt beam="2">  1       -2 0.10788596E+00 0.21241393E+04</pdfrwt>
<totfact> 0.69864203E+00</totfact>
</mgrwt>
</event>
<event>
12    1  0.1496989E-007  0.2653351E+04  0.7818608E-02  0.8350302E-01
          2   -1    0    0  501    0  0.00000000000E+00  0.00000000000E+00  0.28441099886E+04  0.28441099886E+04  0.00000000000E+00 0. -1.
         -2   -1    0    0    0  501 -0.00000000000E+00 -0.00000000000E+00 -0.61884645123E+03  0.61884645123E+03  0.00000000000E+00 0.  1.
         23    2    1    2    0    0  0.36939372796E+03 -0.89203898316E+03  0.11782811626E+03  0.97685629316E+03  0.90440470873E+02 0.  0.
        254    2    1    2    0    0 -0.36939372796E+03  0.89203898316E+03  0.21074354211E+04  0.24861001466E+04  0.89845679437E+03 0.  0.
        -24    2    4    4    0    0 -0.43150318921E+02 -0.15763430952E+03  0.54076078462E+03  0.57063453674E+03  0.80566883922E+02 0.  0.
         24    2    4    4    0    0 -0.32624340904E+03  0.10496732927E+04  0.15666746365E+04  0.19154656099E+04  0.79311429502E+02 0.  0.
         11    1    3    3    0    0  0.75971744319E+02 -0.29253795427E+03  0.33423203008E+02  0.30408431581E+03  0.00000000000E+00 0. -1.
        -11    1    3    3    0    0  0.29342198364E+03 -0.59950102889E+03  0.84404913254E+02  0.67277197735E+03  0.00000000000E+00 0.  1.
          2    1    6    6  502    0 -0.21977790652E+03  0.73514965701E+03  0.10302980761E+04  0.12846250317E+04  0.00000000000E+00 0. -1.
          3    1    5    5  503    0 -0.80738865465E+01 -0.48825610632E+02  0.30066158040E+03  0.30470725923E+03  0.00000000000E+00 0. -1.
         -4    1    5    5    0  503 -0.35076432375E+02 -0.10880869889E+03  0.24009920422E+03  0.26592727752E+03  0.00000000000E+00 0.  1.
         -1    1    6    6    0  502 -0.10646550252E+03  0.31452363566E+03  0.53637656033E+03  0.63084057819E+03  0.00000000000E+00 0.  1.
<mgrwt>
<rscale>  0 0.26533506E+04</rscale>
<asrwt>0</asrwt>
<pdfrwt beam="1">  1        2 0.43755537E+00 0.26533506E+04</pdfrwt>
<pdfrwt beam="2">  1       -2 0.95207148E-01 0.26533506E+04</pdfrwt>
<totfact> 0.17748516E+00</totfact>
</mgrwt>
</event>
<event>
12    1  0.1496989E-007  0.1951883E+04  0.7818608E-02  0.8629453E-01
         -2   -1    0    0    0  501 -0.00000000000E+00  0.00000000000E+00  0.91005347996E+03  0.91005347996E+03  0.00000000000E+00 0.  1.
          2   -1    0    0  501    0  0.00000000000E+00 -0.00000000000E+00 -0.10466000597E+04  0.10466000597E+04  0.00000000000E+00 0. -1.
         23    2    1    2    0    0  0.11578654523E+03  0.42012788450E+03  0.49144383456E+03  0.66316864642E+03  0.91442045461E+02 0.  0.
        254    2    1    2    0    0 -0.11578654523E+03 -0.42012788450E+03 -0.62799041425E+03  0.12934848932E+04  0.10434640603E+04 0.  0.
        -24    2    4    4    0    0  0.73132933522E+02 -0.74092334920E+03 -0.38817857089E+03  0.84330006151E+03  0.78463720821E+02 0.  0.
         24    2    4    4    0    0 -0.18891947875E+03  0.32079546470E+03 -0.23981184337E+03  0.45018483169E+03  0.80971370516E+02 0.  0.
         11    1    3    3    0    0  0.69151515605E+02  0.28851687664E+03  0.39259191481E+03  0.49208975989E+03  0.00000000000E+00 0.  1.
        -11    1    3    3    0    0  0.46635029624E+02  0.13161100785E+03  0.98851919750E+02  0.17107888653E+03  0.00000000000E+00 0. -1.
          2    1    6    6  502    0 -0.19646967811E+03  0.31286281507E+03 -0.23684655235E+03  0.43883911041E+03  0.00000000000E+00 0. -1.
          1    1    5    5  503    0  0.86871655662E+02 -0.68609201779E+03 -0.36716940096E+03  0.78299572824E+03  0.00000000000E+00 0. -1.
         -2    1    5    5    0  503 -0.13738722140E+02 -0.54831331407E+02 -0.21009169924E+02  0.60304333268E+02  0.00000000000E+00 0.  1.
         -1    1    6    6    0  502  0.75501993566E+01  0.79326496335E+01 -0.29652910127E+01  0.11345721278E+02  0.00000000000E+00 0.  1.
<mgrwt>
<rscale>  0 0.19518832E+04</rscale>
<asrwt>0</asrwt>
<pdfrwt beam="1">  1        2 0.16101539E+00 0.19518832E+04</pdfrwt>
<pdfrwt beam="2">  1       -2 0.14000823E+00 0.19518832E+04</pdfrwt>
<totfact> 0.78788478E+00</totfact>
</mgrwt>
</event>
<event>
12    1  0.1496989E-007  0.2678024E+04  0.7818608E-02  0.8342171E-01
          2   -1    0    0  501    0  0.00000000000E+00  0.00000000000E+00  0.41136980351E+04  0.41136980351E+04  0.00000000000E+00 0. -1.
         -2   -1    0    0    0  501 -0.00000000000E+00 -0.00000000000E+00 -0.43584941132E+03  0.43584941132E+03  0.00000000000E+00 0.  1.
         23    2    1    2    0    0 -0.77698001855E+03  0.80913263400E+03  0.10150119887E+04  0.15155911012E+04  0.91506721993E+02 0.  0.
        254    2    1    2    0    0  0.77698001855E+03 -0.80913263400E+03  0.26628366350E+04  0.30339563452E+04  0.92509382827E+03 0.  0.
        -24    2    4    4    0    0  0.84933785676E+03 -0.89882765835E+03  0.25971967750E+04  0.28777890204E+04  0.83502115724E+02 0.  0.
         24    2    4    4    0    0 -0.72357838207E+02  0.89695024354E+02  0.65639859963E+02  0.15616732478E+03  0.82454763162E+02 0.  0.
         11    1    3    3    0    0 -0.40234771142E+03  0.36300373228E+03  0.45657573678E+03  0.70860199968E+03  0.00000000000E+00 0.  1.
        -11    1    3    3    0    0 -0.37463230713E+03  0.44612890172E+03  0.55843625197E+03  0.80698910154E+03  0.00000000000E+00 0. -1.
          2    1    6    6  502    0 -0.62456356600E+02  0.69523945356E+02  0.74086218863E+01  0.93751070052E+02  0.00000000000E+00 0. -1.
          1    1    5    5  503    0  0.47574542112E+03 -0.46045082894E+03  0.14568750310E+04  0.16002604562E+04  0.00000000000E+00 0. -1.
         -2    1    5    5    0  503  0.37359243564E+03 -0.43837682941E+03  0.11403217440E+04  0.12775285642E+04  0.00000000000E+00 0.  1.
         -1    1    6    6    0  502 -0.99014816073E+01  0.20171078998E+02  0.58231238076E+02  0.62416254725E+02  0.00000000000E+00 0.  1.
<mgrwt>
<rscale>  0 0.26780238E+04</rscale>
<asrwt>0</asrwt>
<pdfrwt beam="1">  1        2 0.63287659E+00 0.26780238E+04</pdfrwt>
<pdfrwt beam="2">  1       -2 0.67053759E-01 0.26780238E+04</pdfrwt>
<totfact> 0.49541705E-01</totfact>
</mgrwt>
</event>
<event>
12    1  0.1509421E-007  0.1726363E+04  0.7818608E-02  0.8746470E-01
         -2   -1    0    0    0  501 -0.00000000000E+00  0.00000000000E+00  0.28820812183E+03  0.28820812183E+03  0.00000000000E+00 0.  1.
          2   -1    0    0  501    0  0.00000000000E+00 -0.00000000000E+00 -0.25852220636E+04  0.25852220636E+04  0.00000000000E+00 0. -1.
         23    2    1    2    0    0 -0.17828408886E+03  0.59624345693E+03 -0.73618827353E+03  0.96809962356E+03  0.89175281273E+02 0.  0.
        254    2    1    2    0    0  0.17828408886E+03 -0.59624345693E+03 -0.15608256683E+04  0.19053305619E+04  0.89822954031E+03 0.  0.
        -24    2    4    4    0    0  0.37348807685E+03 -0.38903035628E+03 -0.15112116707E+04  0.16067556246E+04  0.84053328252E+02 0.  0.
         24    2    4    4    0    0 -0.19520398799E+03 -0.20721310065E+03 -0.49613997584E+02  0.29857493727E+03  0.75123753899E+02 0.  0.
         11    1    3    3    0    0 -0.14325789175E+03  0.47052356271E+03 -0.52147274948E+03  0.71683266880E+03  0.00000000000E+00 0.  1.
        -11    1    3    3    0    0 -0.35026197112E+02  0.12571989422E+03 -0.21471552405E+03  0.25126695476E+03  0.00000000000E+00 0. -1.
          4    1    6    6  502    0 -0.13592018035E+03 -0.16025166916E+03 -0.38288907284E+01  0.21016553785E+03  0.00000000000E+00 0. -1.
          1    1    5    5  503    0  0.35113014836E+03 -0.33702661089E+03 -0.13010533719E+04  0.13891073371E+04  0.00000000000E+00 0. -1.
         -4    1    5    5    0  503  0.22357928490E+02 -0.52003745393E+02 -0.21015829879E+03  0.21764828750E+03  0.00000000000E+00 0.  1.
         -3    1    6    6    0  502 -0.59283807641E+02 -0.46961431490E+02 -0.45785106855E+02  0.88409399419E+02  0.00000000000E+00 0.  1.
<mgrwt>
<rscale>  0 0.17263626E+04</rscale>
<asrwt>0</asrwt>
<pdfrwt beam="1">  1        2 0.39772646E+00 0.17263626E+04</pdfrwt>
<pdfrwt beam="2">  1       -2 0.44339713E-01 0.17263626E+04</pdfrwt>
<totfact> 0.14248132E+01</totfact>
</mgrwt>
</event>
<event>
12    1  0.1496989E-007  0.2113878E+04  0.7818608E-02  0.8555154E-01
          2   -1    0    0  501    0  0.00000000000E+00  0.00000000000E+00  0.27911334864E+04  0.27911334864E+04  0.00000000000E+00 0. -1.
         -2   -1    0    0    0  501 -0.00000000000E+00 -0.00000000000E+00 -0.40023899828E+03  0.40023899828E+03  0.00000000000E+00 0.  1.
         23    2    1    2    0    0  0.25904610707E+03  0.42190226739E+03 -0.85434816495E+02  0.51063538370E+03  0.91339905807E+02 0.  0.
        254    2    1    2    0    0 -0.25904610707E+03 -0.42190226739E+03  0.24763293046E+04  0.26807371010E+04  0.89946549173E+03 0.  0.
        -24    2    4    4    0    0 -0.31956135494E+03 -0.31227070106E+03  0.24901568192E+04  0.25310470792E+04  0.75404789104E+02 0.  0.
         24    2    4    4    0    0  0.60515247868E+02 -0.10963156633E+03 -0.13827514652E+02  0.14969002178E+03  0.80837657680E+02 0.  0.
         11    1    3    3    0    0  0.21108979027E+03  0.37876688462E+03 -0.48533769469E+02  0.43632416759E+03  0.00000000000E+00 0.  1.
        -11    1    3    3    0    0  0.47956316800E+02  0.43135382771E+02 -0.36901047025E+02  0.74311216108E+02  0.00000000000E+00 0. -1.
          2    1    6    6  502    0 -0.89149903585E+01 -0.63956784096E+02  0.39767360143E+01  0.64697462967E+02  0.00000000000E+00 0. -1.
          3    1    5    5  503    0 -0.30866031886E+02 -0.22294327178E+02  0.35496176162E+03  0.35699804084E+03  0.00000000000E+00 0. -1.
         -4    1    5    5    0  503 -0.28869532305E+03 -0.28997637388E+03  0.21351950576E+04  0.21740490383E+04  0.00000000000E+00 0.  1.
         -1    1    6    6    0  502  0.69430238226E+02 -0.45674782237E+02 -0.17804250666E+02  0.84992558817E+02  0.00000000000E+00 0.  1.
<mgrwt>
<rscale>  0 0.21138784E+04</rscale>
<asrwt>0</asrwt>
<pdfrwt beam="1">  1        2 0.42940514E+00 0.21138784E+04</pdfrwt>
<pdfrwt beam="2">  1       -2 0.61575232E-01 0.21138784E+04</pdfrwt>
<totfact> 0.52878335E+00</totfact>
</mgrwt>
</event>
<event>
12    1  0.1496989E-007  0.3079073E+04  0.7818608E-02  0.8221505E-01
          2   -1    0    0  501    0  0.00000000000E+00  0.00000000000E+00  0.16415477149E+04  0.16415477149E+04  0.00000000000E+00 0. -1.
         -2   -1    0    0    0  501 -0.00000000000E+00 -0.00000000000E+00 -0.14438644236E+04  0.14438644236E+04  0.00000000000E+00 0.  1.
         23    2    1    2    0    0 -0.73320014741E+03  0.59497757094E+03 -0.95221720242E+03  0.13440175056E+04  0.89914896658E+02 0.  0.
        254    2    1    2    0    0  0.73320014741E+03 -0.59497757094E+03  0.11499004937E+04  0.17413946329E+04  0.90476701746E+03 0.  0.
        -24    2    4    4    0    0  0.49043349585E+02 -0.57750969569E+03  0.33523464739E+03  0.67430566892E+03  0.79894728059E+02 0.  0.
         24    2    4    4    0    0  0.68415679782E+03 -0.17467875252E+02  0.81466584633E+03  0.10670889640E+04  0.81380373319E+02 0.  0.
         11    1    3    3    0    0 -0.62010447541E+03  0.52084363811E+03 -0.85380214413E+03  0.11767692030E+04  0.00000000000E+00 0.  1.
        -11    1    3    3    0    0 -0.11309567200E+03  0.74133932825E+02 -0.98415058292E+02  0.16724830259E+03  0.00000000000E+00 0. -1.
          2    1    6    6  502    0  0.52325836873E+03 -0.65856729396E+01  0.56729620374E+03  0.77179509866E+03  0.00000000000E+00 0. -1.
          3    1    5    5  503    0 -0.13795861229E+02 -0.21968173015E+03  0.15125061374E+03  0.26707140713E+03  0.00000000000E+00 0. -1.
         -4    1    5    5    0  503  0.62839210814E+02 -0.35782796554E+03  0.18398403365E+03  0.40723426179E+03  0.00000000000E+00 0.  1.
         -1    1    6    6    0  502  0.16089842909E+03 -0.10882202313E+02  0.24736964259E+03  0.29529386530E+03  0.00000000000E+00 0.  1.
<mgrwt>
<rscale>  0 0.30790728E+04</rscale>
<asrwt>0</asrwt>
<pdfrwt beam="1">  1        2 0.25254580E+00 0.30790728E+04</pdfrwt>
<pdfrwt beam="2">  1       -2 0.22213299E+00 0.30790728E+04</pdfrwt>
<totfact> 0.86144632E-01</totfact>
</mgrwt>
</event>
<event>
12    1  0.1496989E-007  0.2815990E+04  0.7818608E-02  0.8298321E-01
         -2   -1    0    0    0  501 -0.00000000000E+00  0.00000000000E+00  0.14932046268E+04  0.14932046268E+04  0.00000000000E+00 0.  1.
          2   -1    0    0  501    0  0.00000000000E+00 -0.00000000000E+00 -0.13276480341E+04  0.13276480341E+04  0.00000000000E+00 0. -1.
         23    2    1    2    0    0 -0.52471552883E+03 -0.69679848802E+03 -0.83789380419E+03  0.12128277081E+04  0.89613076294E+02 0.  0.
        254    2    1    2    0    0  0.52471552883E+03  0.69679848802E+03  0.10034503969E+04  0.16080249527E+04  0.90442082599E+03 0.  0.
        -24    2    4    4    0    0  0.29277416030E+02  0.55881267411E+03  0.11243249089E+03  0.57633422068E+03  0.79945588283E+02 0.  0.
         24    2    4    4    0    0  0.49543811280E+03  0.13798581391E+03  0.89101790597E+03  0.10316907320E+04  0.77290680829E+02 0.  0.
         11    1    3    3    0    0 -0.51146376051E+02 -0.88532156032E+02 -0.64666813212E+02  0.12097806068E+03  0.00000000000E+00 0.  1.
        -11    1    3    3    0    0 -0.47356915278E+03 -0.60826633199E+03 -0.77322699098E+03  0.10918496475E+04  0.00000000000E+00 0. -1.
          4    1    6    6  502    0  0.44512313236E+03  0.14734197019E+03  0.80579876768E+03  0.93228531745E+03  0.00000000000E+00 0. -1.
          1    1    5    5  503    0  0.13054440541E+02  0.52695821273E+03  0.11797200806E+03  0.54015994952E+03  0.00000000000E+00 0. -1.
         -2    1    5    5    0  503  0.16222975489E+02  0.31854461382E+02 -0.55395171696E+01  0.36174271162E+02  0.00000000000E+00 0.  1.
         -3    1    6    6    0  502  0.50314980442E+02 -0.93561562723E+01  0.85219138290E+02  0.99405414581E+02  0.00000000000E+00 0.  1.
<mgrwt>
<rscale>  0 0.28159902E+04</rscale>
<asrwt>0</asrwt>
<pdfrwt beam="1">  1        2 0.20425354E+00 0.28159902E+04</pdfrwt>
<pdfrwt beam="2">  1       -2 0.22972379E+00 0.28159902E+04</pdfrwt>
<totfact> 0.11883455E+00</totfact>
</mgrwt>
</event>
<event>
12    1  0.1496989E-007  0.2346370E+04  0.7818608E-02  0.8459859E-01
          2   -1    0    0  501    0  0.00000000000E+00  0.00000000000E+00  0.13248525289E+04  0.13248525289E+04  0.00000000000E+00 0. -1.
         -2   -1    0    0    0  501 -0.00000000000E+00 -0.00000000000E+00 -0.10388805403E+04  0.10388805403E+04  0.00000000000E+00 0.  1.
         23    2    1    2    0    0  0.78199114785E+03 -0.59931169501E+03  0.26158110714E+03  0.10233270565E+04  0.89938455800E+02 0.  0.
        254    2    1    2    0    0 -0.78199114785E+03  0.59931169501E+03  0.24390881410E+02  0.13404060128E+04  0.90852006080E+03 0.  0.
        -24    2    4    4    0    0 -0.18763495263E+03  0.70224534316E+03  0.14040225679E+02  0.73161286064E+03  0.81883163552E+02 0.  0.
         24    2    4    4    0    0 -0.59435619522E+03 -0.10293364815E+03  0.10350655731E+02  0.60879315213E+03  0.81653801456E+02 0.  0.
         11    1    3    3    0    0  0.13528894253E+03 -0.68005741868E+02  0.24120922931E+02  0.15332872471E+03  0.00000000000E+00 0.  1.
        -11    1    3    3    0    0  0.64670220532E+03 -0.53130595314E+03  0.23746018421E+03  0.86999833178E+03  0.00000000000E+00 0. -1.
          4    1    6    6  502    0 -0.23389489759E+03 -0.77065907598E+02  0.21770750949E+02  0.24722447862E+03  0.00000000000E+00 0. -1.
          1    1    5    5  503    0 -0.19469929361E+03  0.64412142027E+03  0.14461597360E+02  0.67305969779E+03  0.00000000000E+00 0. -1.
         -2    1    5    5    0  503  0.70643409874E+01  0.58123922890E+02 -0.42137168104E+00  0.58553162850E+02  0.00000000000E+00 0.  1.
         -3    1    6    6    0  502 -0.36046129763E+03 -0.25867740550E+02 -0.11420095218E+02  0.36156867351E+03  0.00000000000E+00 0.  1.
<mgrwt>
<rscale>  0 0.23463704E+04</rscale>
<asrwt>0</asrwt>
<pdfrwt beam="1">  1        2 0.20382347E+00 0.23463704E+04</pdfrwt>
<pdfrwt beam="2">  1       -2 0.15982778E+00 0.23463704E+04</pdfrwt>
<totfact> 0.36488338E+00</totfact>
</mgrwt>
</event>
<event>
12    1  0.1496989E-007  0.1335095E+04  0.7818608E-02  0.9002188E-01
          2   -1    0    0  501    0  0.00000000000E+00  0.00000000000E+00  0.17069476915E+04  0.17069476915E+04  0.00000000000E+00 0. -1.
         -2   -1    0    0    0  501 -0.00000000000E+00 -0.00000000000E+00 -0.26106235226E+03  0.26106235226E+03  0.00000000000E+00 0.  1.
         23    2    1    2    0    0  0.25418016609E+03  0.42698427784E+01  0.91010407076E+01  0.27171735063E+03  0.95507598129E+02 0.  0.
        254    2    1    2    0    0 -0.25418016609E+03 -0.42698427784E+01  0.14367842986E+04  0.16962926932E+04  0.86512079613E+03 0.  0.
        -24    2    4    4    0    0 -0.12615727639E+03  0.42070428605E+03  0.79831535558E+03  0.91464951091E+03  0.79803296724E+02 0.  0.
         24    2    4    4    0    0 -0.12802288970E+03 -0.42497412883E+03  0.63846894298E+03  0.78164318225E+03  0.79565084983E+02 0.  0.
         13    1    3    3    0    0  0.20145245440E+03 -0.28650197462E+02  0.30968216570E+02  0.20582263150E+03  0.00000000000E+00 0. -1.
        -13    1    3    3    0    0  0.52727711686E+02  0.32920040240E+02 -0.21867175862E+02  0.65894719130E+02  0.00000000000E+00 0.  1.
          4    1    6    6  502    0  0.93141442319E+01 -0.37403698834E+02  0.72047334902E+02  0.81710516065E+02  0.00000000000E+00 0. -1.
          1    1    5    5  503    0 -0.14578951840E+02  0.55349241072E+02  0.57464349865E+02  0.81106324226E+02  0.00000000000E+00 0. -1.
         -2    1    5    5    0  503 -0.11157832455E+03  0.36535504498E+03  0.74085100572E+03  0.83354318669E+03  0.00000000000E+00 0.  1.
         -3    1    6    6    0  502 -0.13733703393E+03 -0.38757042999E+03  0.56642160808E+03  0.69993266619E+03  0.00000000000E+00 0.  1.
<mgrwt>
<rscale>  0 0.13350952E+04</rscale>
<asrwt>0</asrwt>
<pdfrwt beam="1">  1        2 0.26260733E+00 0.13350952E+04</pdfrwt>
<pdfrwt beam="2">  1       -2 0.40163440E-01 0.13350952E+04</pdfrwt>
<totfact> 0.55754976E+01</totfact>
</mgrwt>
</event>
<event>
12    1  0.1496989E-007  0.2264246E+04  0.7818608E-02  0.8492153E-01
          2   -1    0    0  501    0  0.00000000000E+00  0.00000000000E+00  0.39616991986E+04  0.39616991986E+04  0.00000000000E+00 0. -1.
         -2   -1    0    0    0  501 -0.00000000000E+00 -0.00000000000E+00 -0.32352340433E+03  0.32352340433E+03  0.00000000000E+00 0.  1.
         23    2    1    2    0    0 -0.88013202319E+02  0.70724845007E+02 -0.25270780154E+03  0.29068877867E+03  0.88827955050E+02 0.  0.
        254    2    1    2    0    0  0.88013202319E+02 -0.70724845007E+02  0.38908835958E+04  0.39945338242E+04  0.89698215672E+03 0.  0.
        -24    2    4    4    0    0 -0.24392394161E+03 -0.63036532923E+02  0.33074497142E+04  0.33180048413E+04  0.80374255399E+02 0.  0.
         24    2    4    4    0    0  0.33193714393E+03 -0.76883120847E+01  0.58343388159E+03  0.67652898297E+03  0.83994005418E+02 0.  0.
         13    1    3    3    0    0 -0.18277692885E+02 -0.44937738771E+00  0.80045803079E+00  0.18300730321E+02  0.00000000000E+00 0. -1.
        -13    1    3    3    0    0 -0.69735509434E+02  0.71174222395E+02 -0.25350825957E+03  0.27238804834E+03  0.00000000000E+00 0.  1.
          2    1    6    6  502    0  0.91657288649E+02 -0.13107383249E+02  0.97798356556E+02  0.13467509274E+03  0.00000000000E+00 0. -1.
          1    1    5    5  503    0 -0.15531437419E+03 -0.51945739914E+02  0.25612588468E+04  0.25664893912E+04  0.00000000000E+00 0. -1.
         -2    1    5    5    0  503 -0.88609567420E+02 -0.11090793009E+02  0.74619086739E+03  0.75151545007E+03  0.00000000000E+00 0.  1.
         -1    1    6    6    0  502  0.24027985528E+03  0.54190711639E+01  0.48563552503E+03  0.54185389023E+03  0.00000000000E+00 0.  1.
<mgrwt>
<rscale>  0 0.22642459E+04</rscale>
<asrwt>0</asrwt>
<pdfrwt beam="1">  1        2 0.60949215E+00 0.22642459E+04</pdfrwt>
<pdfrwt beam="2">  1       -2 0.49772834E-01 0.22642459E+04</pdfrwt>
<totfact> 0.12832944E+00</totfact>
</mgrwt>
</event>
<event>
12    1  0.1496989E-007  0.3517378E+04  0.7818608E-02  0.8109684E-01
         -2   -1    0    0    0  501 -0.00000000000E+00  0.00000000000E+00  0.18052161948E+04  0.18052161948E+04  0.00000000000E+00 0.  1.
          2   -1    0    0  501    0  0.00000000000E+00 -0.00000000000E+00 -0.17133614257E+04  0.17133614257E+04  0.00000000000E+00 0. -1.
         23    2    1    2    0    0 -0.12436916502E+02 -0.69293508520E+03 -0.14460536460E+04  0.16061685403E+04  0.91610716469E+02 0.  0.
        254    2    1    2    0    0  0.12436916502E+02  0.69293508520E+03  0.15379084151E+04  0.19124090802E+04  0.90101747357E+03 0.  0.
        -24    2    4    4    0    0  0.29200480886E+03  0.73529337691E+03  0.13399534779E+04  0.15581034550E+04  0.79296249314E+02 0.  0.
         24    2    4    4    0    0 -0.27956789236E+03 -0.42358291714E+02  0.19795493723E+03  0.35430562520E+03  0.79961788144E+02 0.  0.
         13    1    3    3    0    0  0.34677137074E+02 -0.16861393420E+03 -0.38300554570E+03  0.41991238452E+03  0.00000000000E+00 0. -1.
        -13    1    3    3    0    0 -0.47114053576E+02 -0.52432115100E+03 -0.10630481003E+04  0.11862561558E+04  0.00000000000E+00 0.  1.
          4    1    6    6  502    0 -0.51164008304E+02  0.12453870984E+02  0.67537079959E+02  0.85639429106E+02  0.00000000000E+00 0. -1.
          3    1    5    5  503    0  0.11325186961E+03  0.27577659761E+03  0.58154935242E+03  0.65351233122E+03  0.00000000000E+00 0. -1.
         -4    1    5    5    0  503  0.17875293925E+03  0.45951677931E+03  0.75840412547E+03  0.90459112381E+03  0.00000000000E+00 0.  1.
         -3    1    6    6    0  502 -0.22840388405E+03 -0.54812162698E+02  0.13041785727E+03  0.26866619610E+03  0.00000000000E+00 0.  1.
<mgrwt>
<rscale>  0 0.35173785E+04</rscale>
<asrwt>0</asrwt>
<pdfrwt beam="1">  1        2 0.26359406E+00 0.35173785E+04</pdfrwt>
<pdfrwt beam="2">  1       -2 0.27772557E+00 0.35173785E+04</pdfrwt>
<totfact> 0.34394100E-01</totfact>
</mgrwt>
</event>
<event>
12    1  0.1496989E-007  0.1287254E+04  0.7818608E-02  0.9039735E-01
          2   -1    0    0  501    0  0.00000000000E+00  0.00000000000E+00  0.20547071960E+04  0.20547071960E+04  0.00000000000E+00 0.  1.
         -2   -1    0    0    0  501 -0.00000000000E+00 -0.00000000000E+00 -0.20161289294E+03  0.20161289294E+03  0.00000000000E+00 0. -1.
         23    2    1    2    0    0  0.10992021915E+03 -0.49061999786E+02 -0.39680279956E+02  0.15779440561E+03  0.93994762754E+02 0.  0.
        254    2    1    2    0    0 -0.10992021915E+03  0.49061999786E+02  0.18927745830E+04  0.20985256833E+04  0.89817864987E+03 0.  0.
        -24    2    4    4    0    0  0.37579988673E+03 -0.41477255565E+02  0.61512837881E+03  0.72641314470E+03  0.79669421849E+02 0.  0.
         24    2    4    4    0    0 -0.48572010587E+03  0.90539255351E+02  0.12776462042E+04  0.13721125386E+04  0.78686832080E+02 0.  0.
         11    1    3    3    0    0  0.11784377523E+03 -0.48838920891E+02 -0.56258868825E+02  0.13941827669E+03  0.00000000000E+00 0. -1.
        -11    1    3    3    0    0 -0.79235560839E+01 -0.22307889551E+00  0.16578588870E+02  0.18376128921E+02  0.00000000000E+00 0.  1.
          4    1    6    6  502    0 -0.10114668191E+03  0.76783275092E+01  0.35231961171E+03  0.36663158179E+03  0.00000000000E+00 0. -1.
          3    1    5    5  503    0  0.95731065312E+02 -0.45895319690E+02  0.17712749185E+03  0.20650657521E+03  0.00000000000E+00 0. -1.
         -4    1    5    5    0  503  0.28006882141E+03  0.44180641256E+01  0.43800088696E+03  0.51990656949E+03  0.00000000000E+00 0.  1.
         -1    1    6    6    0  502 -0.38457342396E+03  0.82860927842E+02  0.92532659247E+03  0.10054809568E+04  0.00000000000E+00 0.  1.
<mgrwt>
<rscale>  0 0.12872536E+04</rscale>
<asrwt>0</asrwt>
<pdfrwt beam="1">  1        2 0.31610878E+00 0.12872536E+04</pdfrwt>
<pdfrwt beam="2">  1       -2 0.31017370E-01 0.12872536E+04</pdfrwt>
<totfact> 0.58934861E+01</totfact>
</mgrwt>
</event>
<event>
12    1  0.1496989E-007  0.1502779E+04  0.7818608E-02  0.8882607E-01
         -1   -1    0    0    0  501 -0.00000000000E+00  0.00000000000E+00  0.28293814801E+03  0.28293814801E+03  0.00000000000E+00 0.  1.
          1   -1    0    0  501    0  0.00000000000E+00 -0.00000000000E+00 -0.19954393326E+04  0.19954393326E+04  0.00000000000E+00 0. -1.
         23    2    1    2    0    0 -0.37870435736E+03  0.18805358630E+03 -0.96825052762E+03  0.10604041874E+04  0.90370430810E+02 0.  0.
        254    2    1    2    0    0  0.37870435736E+03 -0.18805358630E+03 -0.74425065700E+03  0.12179732933E+04  0.86646913450E+03 0.  0.
        -24    2    4    4    0    0 -0.35478482601E+02 -0.44860320381E+03 -0.45071104411E+03  0.64181645075E+03  0.79273917372E+02 0.  0.
         24    2    4    4    0    0  0.41418283997E+03  0.26054961751E+03 -0.29353961289E+03  0.57615684251E+03  0.79735028257E+02 0.  0.
         11    1    3    3    0    0 -0.66045907652E+02  0.48058511092E+02 -0.11591920222E+03  0.14180600781E+03  0.00000000000E+00 0.  1.
        -11    1    3    3    0    0 -0.31265844971E+03  0.13999507521E+03 -0.85233132540E+03  0.91859817957E+03  0.00000000000E+00 0. -1.
          2    1    6    6  502    0  0.33500237285E+03  0.19319232619E+03 -0.26347822919E+03  0.46794299009E+03  0.00000000000E+00 0. -1.
          1    1    5    5  503    0 -0.25801959027E+02 -0.43317895262E+03 -0.40904329204E+03  0.59634399540E+03  0.00000000000E+00 0. -1.
         -2    1    5    5    0  503 -0.96765235739E+01 -0.15424251187E+02 -0.41667752072E+02  0.45472455354E+02  0.00000000000E+00 0.  1.
         -1    1    6    6    0  502  0.79180467113E+02  0.67357291318E+02 -0.30061383695E+02  0.10821385242E+03  0.00000000000E+00 0.  1.
<mgrwt>
<rscale>  0 0.15027786E+04</rscale>
<asrwt>0</asrwt>
<pdfrwt beam="1">  1        1 0.30699066E+00 0.15027786E+04</pdfrwt>
<pdfrwt beam="2">  1       -1 0.43528946E-01 0.15027786E+04</pdfrwt>
<totfact> 0.15133873E+01</totfact>
</mgrwt>
</event>
<event>
12    1  0.1496989E-007  0.1617611E+04  0.7818608E-02  0.8809801E-01
         -1   -1    0    0    0  501 -0.00000000000E+00  0.00000000000E+00  0.78135627422E+03  0.78135627422E+03  0.00000000000E+00 0.  1.
          1   -1    0    0  501    0  0.00000000000E+00 -0.00000000000E+00 -0.83721893250E+03  0.83721893250E+03  0.00000000000E+00 0. -1.
         23    2    1    2    0    0 -0.29543500615E+03  0.17463369865E+03  0.41037772883E+03  0.54401555138E+03  0.98814312005E+02 0.  0.
        254    2    1    2    0    0  0.29543500615E+03 -0.17463369865E+03 -0.46624038711E+03  0.10745596553E+04  0.90527320890E+03 0.  0.
        -24    2    4    4    0    0  0.25629662079E+03  0.14150197909E+03 -0.63598942122E+03  0.70473940106E+03  0.80400942699E+02 0.  0.
         24    2    4    4    0    0  0.39138385357E+02 -0.31613567774E+03  0.16974903411E+03  0.36982025428E+03  0.80490409046E+02 0.  0.
         11    1    3    3    0    0 -0.23973497655E+03  0.17851705613E+03  0.36695198063E+03  0.47328105223E+03  0.00000000000E+00 0.  1.
        -11    1    3    3    0    0 -0.55700029601E+02 -0.38833574839E+01  0.43425748204E+02  0.70734499150E+02  0.00000000000E+00 0. -1.
          2    1    6    6  502    0  0.51191305183E+02 -0.28250747140E+03  0.12654121735E+03  0.31375739164E+03  0.00000000000E+00 0. -1.
          1    1    5    5  503    0  0.81207886512E+02  0.89626173558E+02 -0.24734759012E+03  0.27533325654E+03  0.00000000000E+00 0. -1.
         -2    1    5    5    0  503  0.17508873428E+03  0.51875805534E+02 -0.38864183110E+03  0.42940614452E+03  0.00000000000E+00 0.  1.
         -1    1    6    6    0  502 -0.12052919826E+02 -0.33628206339E+02  0.43207816762E+02  0.56062862638E+02  0.00000000000E+00 0.  1.
<mgrwt>
<rscale>  0 0.16176109E+04</rscale>
<asrwt>0</asrwt>
<pdfrwt beam="1">  1        1 0.12880291E+00 0.16176109E+04</pdfrwt>
<pdfrwt beam="2">  1       -1 0.12020866E+00 0.16176109E+04</pdfrwt>
<totfact> 0.12131498E+01</totfact>
</mgrwt>
</event>
<event>
12    1  0.1496989E-007  0.1126407E+04  0.7818608E-02  0.9179829E-01
          1   -1    0    0  501    0  0.00000000000E+00  0.00000000000E+00  0.22761408482E+04  0.22761408482E+04  0.00000000000E+00 0. -1.
         -1   -1    0    0    0  501 -0.00000000000E+00 -0.00000000000E+00 -0.13935784052E+03  0.13935784052E+03  0.00000000000E+00 0.  1.
         23    2    1    2    0    0  0.17340554756E+03  0.23024068053E+02  0.50804508738E+03  0.54458417216E+03  0.88670841461E+02 0.  0.
        254    2    1    2    0    0 -0.17340554756E+03 -0.23024068053E+02  0.16287379203E+04  0.18709145166E+04  0.90384419212E+03 0.  0.
        -24    2    4    4    0    0  0.14908849881E+03  0.31187949996E+03  0.11302439726E+04  0.11846365800E+04  0.80101098543E+02 0.  0.
         24    2    4    4    0    0 -0.32249404637E+03 -0.33490356801E+03  0.49849394771E+03  0.68627793662E+03  0.79488241749E+02 0.  0.
         13    1    3    3    0    0  0.16565127044E+03 -0.18628822959E+01  0.47102202782E+03  0.49930508151E+03  0.00000000000E+00 0. -1.
        -13    1    3    3    0    0  0.77542771205E+01  0.24886950349E+02  0.37023059560E+02  0.45279090655E+02  0.00000000000E+00 0.  1.
          4    1    6    6  502    0 -0.26732239908E+03 -0.31129767987E+03  0.41650592691E+03  0.58467486494E+03  0.00000000000E+00 0. -1.
          1    1    5    5  503    0  0.80213969812E+02  0.23852361657E+03  0.73952625276E+03  0.78117019601E+03  0.00000000000E+00 0. -1.
         -2    1    5    5    0  503  0.68874528996E+02  0.73355883386E+02  0.39071771986E+03  0.40346638396E+03  0.00000000000E+00 0.  1.
         -3    1    6    6    0  502 -0.55171647294E+02 -0.23605888138E+02  0.81988020798E+02  0.10160307168E+03  0.00000000000E+00 0.  1.
<mgrwt>
<rscale>  0 0.11264068E+04</rscale>
<asrwt>0</asrwt>
<pdfrwt beam="1">  1        1 0.35017549E+00 0.11264068E+04</pdfrwt>
<pdfrwt beam="2">  1       -1 0.21439669E-01 0.11264068E+04</pdfrwt>
<totfact> 0.35168690E+01</totfact>
</mgrwt>
</event>
<event>
12    1  0.1496989E-007  0.2910104E+04  0.7818608E-02  0.8269878E-01
          2   -1    0    0  501    0  0.00000000000E+00  0.00000000000E+00  0.37658507805E+04  0.37658507805E+04  0.00000000000E+00 0. -1.
         -2   -1    0    0    0  501 -0.00000000000E+00 -0.00000000000E+00 -0.56220406609E+03  0.56220406609E+03  0.00000000000E+00 0.  1.
         23    2    1    2    0    0  0.17557842137E+03 -0.15883088193E+03  0.33734086106E+04  0.33829760233E+04  0.92661152154E+02 0.  0.
        254    2    1    2    0    0 -0.17557842137E+03  0.15883088193E+03 -0.16976189623E+03  0.94507882325E+03  0.89905497587E+03 0.  0.
        -24    2    4    4    0    0  0.28727419298E+03 -0.18046231785E+03 -0.34587907580E+02  0.34919496630E+03  0.75151121249E+02 0.  0.
         24    2    4    4    0    0 -0.46285261435E+03  0.33929319978E+03 -0.13517398865E+03  0.59588385694E+03  0.86331603324E+02 0.  0.
         13    1    3    3    0    0  0.16734129052E+03 -0.13923165934E+03  0.32783268570E+04  0.32855464604E+04  0.00000000000E+00 0. -1.
        -13    1    3    3    0    0  0.82371308443E+01 -0.19599222592E+02  0.95081753613E+02  0.97429562869E+02  0.00000000000E+00 0.  1.
          2    1    6    6  502    0 -0.42786316056E+03  0.32962643362E+03 -0.14306052495E+03  0.55873677497E+03  0.00000000000E+00 0. -1.
          3    1    5    5  503    0  0.16682395756E+03 -0.12989632718E+03 -0.51107822787E+02  0.21752079942E+03  0.00000000000E+00 0. -1.
         -4    1    5    5    0  503  0.12045023543E+03 -0.50565990663E+02  0.16519915207E+02  0.13167416688E+03  0.00000000000E+00 0.  1.
         -1    1    6    6    0  502 -0.34989453786E+02  0.96667661577E+01  0.78865362969E+01  0.37147081971E+02  0.00000000000E+00 0.  1.
<mgrwt>
<rscale>  0 0.29101042E+04</rscale>
<asrwt>0</asrwt>
<pdfrwt beam="1">  1        2 0.57936164E+00 0.29101042E+04</pdfrwt>
<pdfrwt beam="2">  1       -2 0.86492936E-01 0.29101042E+04</pdfrwt>
<totfact> 0.52032024E-01</totfact>
</mgrwt>
</event>
<event>
12    1  0.1496989E-007  0.1553388E+04  0.7818608E-02  0.8849706E-01
         -1   -1    0    0    0  501 -0.00000000000E+00  0.00000000000E+00  0.29258912375E+03  0.29258912375E+03  0.00000000000E+00 0.  1.
          1   -1    0    0  501    0  0.00000000000E+00 -0.00000000000E+00 -0.20617777162E+04  0.20617777162E+04  0.00000000000E+00 0. -1.
         23    2    1    2    0    0  0.39085136031E+03  0.32520220281E+03 -0.56777641180E+03  0.76801632795E+03  0.94645483932E+02 0.  0.
        254    2    1    2    0    0 -0.39085136031E+03 -0.32520220281E+03 -0.12014121806E+04  0.15863505120E+04  0.90254942276E+03 0.  0.
        -24    2    4    4    0    0 -0.63270199013E+03 -0.34516845428E+02 -0.63429424378E+03  0.89989938465E+03  0.77372436075E+02 0.  0.
         24    2    4    4    0    0  0.24185062982E+03 -0.29068535738E+03 -0.56711793683E+03  0.68645112731E+03  0.81256949132E+02 0.  0.
         11    1    3    3    0    0 -0.34418762913E+01 -0.26756238087E+01 -0.42313261886E+01  0.60753268624E+01  0.00000000000E+00 0. -1.
        -11    1    3    3    0    0  0.39429323660E+03  0.32787782662E+03 -0.56354508561E+03  0.76194100109E+03  0.00000000000E+00 0.  1.
          2    1    6    6  502    0  0.24753742343E+03 -0.27549332500E+03 -0.53882205103E+03  0.65383526273E+03  0.00000000000E+00 0. -1.
          1    1    5    5  503    0 -0.61770703111E+03 -0.45439529456E+02 -0.62097816150E+03  0.87706362608E+03  0.00000000000E+00 0. -1.
         -2    1    5    5    0  503 -0.14994959015E+02  0.10922684028E+02 -0.13316082276E+02  0.22835758569E+02  0.00000000000E+00 0.  1.
         -1    1    6    6    0  502 -0.56867936095E+01 -0.15192032376E+02 -0.28295885799E+02  0.32615864582E+02  0.00000000000E+00 0.  1.
<mgrwt>
<rscale>  0 0.15533882E+04</rscale>
<asrwt>0</asrwt>
<pdfrwt beam="1">  1        1 0.31719655E+00 0.15533882E+04</pdfrwt>
<pdfrwt beam="2">  1       -1 0.45013714E-01 0.15533882E+04</pdfrwt>
<totfact> 0.12763665E+01</totfact>
</mgrwt>
</event>
<event>
12    1  0.1496989E-007  0.1521033E+04  0.7818608E-02  0.8870586E-01
         -2   -1    0    0    0  501 -0.00000000000E+00  0.00000000000E+00  0.94579465007E+03  0.94579465007E+03  0.00000000000E+00 0. -1.
          2   -1    0    0  501    0  0.00000000000E+00 -0.00000000000E+00 -0.61153353885E+03  0.61153353885E+03  0.00000000000E+00 0.  1.
         23    2    1    2    0    0 -0.23458857692E+03 -0.30495440716E+03  0.42586102290E+03  0.58097077533E+03  0.90224387465E+02 0.  0.
        254    2    1    2    0    0  0.23458857692E+03  0.30495440716E+03 -0.91599911672E+02  0.97635741359E+03  0.89266693922E+03 0.  0.
        -24    2    4    4    0    0  0.54062165136E+03  0.28611683295E+03 -0.18793890432E+03  0.64481103719E+03  0.79533828707E+02 0.  0.
         24    2    4    4    0    0 -0.30603307443E+03  0.18837574209E+02  0.96338992644E+02  0.33154637640E+03  0.81429118564E+02 0.  0.
         11    1    3    3    0    0 -0.22252176217E+03 -0.26777386206E+03  0.41220073905E+03  0.53956299457E+03  0.00000000000E+00 0. -1.
        -11    1    3    3    0    0 -0.12066814751E+02 -0.37180545102E+02  0.13660283853E+02  0.41407780758E+02  0.00000000000E+00 0.  1.
          4    1    6    6  502    0 -0.21969099900E+03 -0.55255862521E+01  0.34178957098E+02  0.22240249157E+03  0.00000000000E+00 0. -1.
          3    1    5    5  503    0  0.36214234470E+03  0.21403997629E+03 -0.95923193291E+02  0.43146430708E+03  0.00000000000E+00 0. -1.
         -4    1    5    5    0  503  0.17847930666E+03  0.72076856662E+02 -0.92015711025E+02  0.21334673011E+03  0.00000000000E+00 0.  1.
         -1    1    6    6    0  502 -0.86342075431E+02  0.24363160461E+02  0.62160035546E+02  0.10914388483E+03  0.00000000000E+00 0.  1.
<mgrwt>
<rscale>  0 0.15210327E+04</rscale>
<asrwt>0</asrwt>
<pdfrwt beam="1">  1        2 0.94082083E-01 0.15210327E+04</pdfrwt>
<pdfrwt beam="2">  1       -2 0.14550687E+00 0.15210327E+04</pdfrwt>
<totfact> 0.15169127E+01</totfact>
</mgrwt>
</event>
<event>
12    1  0.1496989E-007  0.1393179E+04  0.7818608E-02  0.8958770E-01
          2   -1    0    0  501    0  0.00000000000E+00  0.00000000000E+00  0.13760611768E+04  0.13760611768E+04  0.00000000000E+00 0. -1.
         -2   -1    0    0    0  501 -0.00000000000E+00 -0.00000000000E+00 -0.35262768519E+03  0.35262768519E+03  0.00000000000E+00 0.  1.
         23    2    1    2    0    0  0.29396662130E+03  0.20975809295E+03  0.87067638704E+02  0.38133231410E+03  0.86132038622E+02 0.  0.
        254    2    1    2    0    0 -0.29396662130E+03 -0.20975809295E+03  0.93636585287E+03  0.13473565478E+04  0.89898488564E+03 0.  0.
        -24    2    4    4    0    0 -0.21190119764E+03 -0.24601436790E+03  0.10967264914E+04  0.11466112131E+04  0.80517638827E+02 0.  0.
         24    2    4    4    0    0 -0.82065423658E+02  0.36256274948E+02 -0.16036063856E+03  0.20074533477E+03  0.80832566454E+02 0.  0.
         13    1    3    3    0    0  0.14715729350E+02  0.28626266410E+02 -0.11521852443E+02  0.34187262286E+02  0.00000000000E+00 0. -1.
        -13    1    3    3    0    0  0.27925089195E+03  0.18113182654E+03  0.98589491147E+02  0.34714505182E+03  0.00000000000E+00 0.  1.
          4    1    6    6  502    0 -0.51912661678E+01  0.28745203267E+01  0.95762452353E+01  0.11265726090E+02  0.00000000000E+00 0. -1.
          3    1    5    5  503    0 -0.12656838038E+03 -0.13532091164E+03  0.75507601768E+03  0.77747739293E+03  0.00000000000E+00 0. -1.
         -4    1    5    5    0  503 -0.85332817262E+02 -0.11069345625E+03  0.34165047375E+03  0.36913382014E+03  0.00000000000E+00 0.  1.
         -3    1    6    6    0  502 -0.76874157490E+02  0.33381754622E+02 -0.16993688380E+03  0.18947960868E+03  0.00000000000E+00 0.  1.
<mgrwt>
<rscale>  0 0.13931795E+04</rscale>
<asrwt>0</asrwt>
<pdfrwt beam="1">  1        2 0.21170172E+00 0.13931795E+04</pdfrwt>
<pdfrwt beam="2">  1       -2 0.54250414E-01 0.13931795E+04</pdfrwt>
<totfact> 0.46518638E+01</totfact>
</mgrwt>
</event>
<event>
12    1  0.1496989E-007  0.1292136E+04  0.7818608E-02  0.9035825E-01
         -2   -1    0    0    0  501 -0.00000000000E+00  0.00000000000E+00  0.31495429061E+03  0.31495429061E+03  0.00000000000E+00 0.  1.
          2   -1    0    0  501    0  0.00000000000E+00 -0.00000000000E+00 -0.13252838832E+04  0.13252838832E+04  0.00000000000E+00 0. -1.
         23    2    1    2    0    0 -0.25722229194E+03  0.96002606154E+02 -0.13270372412E+02  0.28874759942E+03  0.88426610990E+02 0.  0.
        254    2    1    2    0    0  0.25722229194E+03 -0.96002606154E+02 -0.99705922016E+03  0.13514905744E+04  0.87006889166E+03 0.  0.
        -24    2    4    4    0    0  0.39537313428E+02  0.18138586232E+03 -0.96802671102E+03  0.98890341737E+03  0.79938885625E+02 0.  0.
         24    2    4    4    0    0  0.21768497851E+03 -0.27738846847E+03 -0.29032509140E+02  0.36258715700E+03  0.79343856241E+02 0.  0.
         11    1    3    3    0    0 -0.64947197043E+02  0.68165047014E+02 -0.31699030218E+01  0.94205415573E+02  0.00000000000E+00 0. -1.
        -11    1    3    3    0    0 -0.19227509489E+03  0.27837559140E+02 -0.10100469390E+02  0.19454218385E+03  0.00000000000E+00 0.  1.
          2    1    6    6  502    0  0.96942840878E+02 -0.72448554283E+02 -0.30143693918E+02  0.12472108762E+03  0.00000000000E+00 0. -1.
          1    1    5    5  503    0  0.37997717880E+02  0.26415114306E+02 -0.18622604452E+03  0.19188987593E+03  0.00000000000E+00 0. -1.
         -2    1    5    5    0  503  0.15395955485E+01  0.15497074801E+03 -0.78180066650E+03  0.79701354144E+03  0.00000000000E+00 0.  1.
         -1    1    6    6    0  502  0.12074213763E+03 -0.20493991419E+03  0.11111847774E+01  0.23786606937E+03  0.00000000000E+00 0.  1.
<mgrwt>
<rscale>  0 0.12921360E+04</rscale>
<asrwt>0</asrwt>
<pdfrwt beam="1">  1        2 0.20388983E+00 0.12921360E+04</pdfrwt>
<pdfrwt beam="2">  1       -2 0.48454507E-01 0.12921360E+04</pdfrwt>
<totfact> 0.63203705E+01</totfact>
</mgrwt>
</event>
<event>
12    1  0.1496989E-007  0.1206773E+04  0.7818608E-02  0.9106948E-01
          2   -1    0    0  501    0  0.00000000000E+00  0.00000000000E+00  0.17834104549E+04  0.17834104549E+04  0.00000000000E+00 0. -1.
         -2   -1    0    0    0  501 -0.00000000000E+00 -0.00000000000E+00 -0.20414569257E+03  0.20414569257E+03  0.00000000000E+00 0.  1.
         23    2    1    2    0    0  0.56194674132E+02 -0.13463397875E+03  0.66059458869E+03  0.68251813175E+03  0.90341795052E+02 0.  0.
        254    2    1    2    0    0 -0.56194674132E+02  0.13463397875E+03  0.91867017365E+03  0.13050380157E+04  0.91536068569E+03 0.  0.
        -24    2    4    4    0    0  0.41535402048E+03  0.48968918974E+02  0.55263926117E+03  0.69717936723E+03  0.75709971216E+02 0.  0.
         24    2    4    4    0    0 -0.47154869461E+03  0.85665059774E+02  0.36603091248E+03  0.60785864851E+03  0.76268170383E+02 0.  0.
         13    1    3    3    0    0  0.63015872257E+02 -0.14559869720E+03  0.60717891752E+03  0.62756371681E+03  0.00000000000E+00 0. -1.
        -13    1    3    3    0    0 -0.68211981245E+01  0.10964718456E+02  0.53415671173E+02  0.54954414942E+02  0.00000000000E+00 0.  1.
          4    1    6    6  502    0 -0.21338171418E+03  0.76748477195E+02  0.18008458462E+03  0.28957303451E+03  0.00000000000E+00 0. -1.
          3    1    5    5  503    0  0.32609001945E+03  0.14360655268E+02  0.39121464645E+03  0.50949958665E+03  0.00000000000E+00 0. -1.
         -4    1    5    5    0  503  0.89264001031E+02  0.34608263706E+02  0.16142461473E+03  0.18767978058E+03  0.00000000000E+00 0.  1.
         -3    1    6    6    0  502 -0.25816698043E+03  0.89165825784E+01  0.18594632786E+03  0.31828561400E+03  0.00000000000E+00 0.  1.
<mgrwt>
<rscale>  0 0.12067735E+04</rscale>
<asrwt>0</asrwt>
<pdfrwt beam="1">  1        2 0.27437083E+00 0.12067735E+04</pdfrwt>
<pdfrwt beam="2">  1       -2 0.31407031E-01 0.12067735E+04</pdfrwt>
<totfact> 0.81814240E+01</totfact>
</mgrwt>
</event>
<event>
12    1  0.1496989E-007  0.1156790E+04  0.7818608E-02  0.9151542E-01
         -4   -1    0    0    0  501 -0.00000000000E+00  0.00000000000E+00  0.34638265657E+03  0.34638265657E+03  0.00000000000E+00 0. -1.
          4   -1    0    0  501    0  0.00000000000E+00 -0.00000000000E+00 -0.96581277296E+03  0.96581277296E+03  0.00000000000E+00 0.  1.
         23    2    1    2    0    0  0.20012746438E+03  0.56066747547E+02 -0.12355270716E+03  0.25834881826E+03  0.91018450154E+02 0.  0.
        254    2    1    2    0    0 -0.20012746438E+03 -0.56066747547E+02 -0.49587740922E+03  0.10538466113E+04  0.90636846421E+03 0.  0.
        -24    2    4    4    0    0 -0.74974666163E+02 -0.45629989320E+03 -0.11521864426E+03  0.48189835394E+03  0.71553437694E+02 0.  0.
         24    2    4    4    0    0 -0.12515279822E+03  0.40023314565E+03 -0.38065876497E+03  0.57194825733E+03  0.79836833184E+02 0.  0.
         13    1    3    3    0    0  0.12057020041E+03  0.26237229439E+02 -0.12177739454E+03  0.17336464246E+03  0.00000000000E+00 0.  1.
        -13    1    3    3    0    0  0.79557263976E+02  0.29829518107E+02 -0.17753126282E+01  0.84984175803E+02  0.00000000000E+00 0. -1.
          2    1    6    6  502    0 -0.12510404049E+03  0.28805392709E+03 -0.26630323838E+03  0.41175660362E+03  0.00000000000E+00 0. -1.
          3    1    5    5  503    0 -0.17185622914E+02 -0.31159511067E+03 -0.74042054374E+02  0.32073210698E+03  0.00000000000E+00 0. -1.
         -4    1    5    5    0  503 -0.57789043249E+02 -0.14470478252E+03 -0.41176589883E+02  0.16116624696E+03  0.00000000000E+00 0.  1.
         -1    1    6    6    0  502 -0.48757734018E-01  0.11217921856E+03 -0.11435552659E+03  0.16019165371E+03  0.00000000000E+00 0.  1.
<mgrwt>
<rscale>  0 0.11567900E+04</rscale>
<asrwt>0</asrwt>
<pdfrwt beam="1">  1        4 0.14858658E+00 0.11567900E+04</pdfrwt>
<pdfrwt beam="2">  1       -4 0.53289640E-01 0.11567900E+04</pdfrwt>
<totfact> 0.20339508E+00</totfact>
</mgrwt>
</event>
<event>
12    1  0.1496989E-007  0.1699264E+04  0.7818608E-02  0.8761784E-01
          1   -1    0    0  501    0  0.00000000000E+00  0.00000000000E+00  0.95030049453E+03  0.95030049453E+03  0.00000000000E+00 0. -1.
         -1   -1    0    0    0  501 -0.00000000000E+00 -0.00000000000E+00 -0.75962742518E+03  0.75962742518E+03  0.00000000000E+00 0.  1.
         23    2    1    2    0    0  0.16108267395E+03  0.12633025963E+03  0.64037732762E+03  0.67854610537E+03  0.91840802653E+02 0.  0.
        254    2    1    2    0    0 -0.16108267395E+03 -0.12633025963E+03 -0.44970425827E+03  0.10313818143E+04  0.90532180173E+03 0.  0.
        -24    2    4    4    0    0  0.53296726840E+01 -0.72762846355E+02 -0.70429076898E+03  0.71250348635E+03  0.79453719711E+02 0.  0.
         24    2    4    4    0    0 -0.16641234663E+03 -0.53567413280E+02  0.25458651071E+03  0.31887832798E+03  0.79413851114E+02 0.  0.
         11    1    3    3    0    0  0.68096087230E+02  0.10604134096E+03  0.41989740461E+03  0.43840126995E+03  0.00000000000E+00 0. -1.
        -11    1    3    3    0    0  0.92986586715E+02  0.20288918674E+02  0.22047992301E+03  0.24014483542E+03  0.00000000000E+00 0.  1.
          4    1    6    6  502    0 -0.79094070575E+02 -0.51941696142E+02  0.80991453720E+02  0.12455290994E+03  0.00000000000E+00 0. -1.
          1    1    5    5  503    0  0.21375221489E+02  0.26059136152E+01 -0.62548670475E+02  0.66151546147E+02  0.00000000000E+00 0. -1.
         -2    1    5    5    0  503 -0.16045548805E+02 -0.75368759970E+02 -0.64174209850E+03  0.64635194021E+03  0.00000000000E+00 0.  1.
         -3    1    6    6    0  502 -0.87318276054E+02 -0.16257171385E+01  0.17359505699E+03  0.19432541805E+03  0.00000000000E+00 0.  1.
<mgrwt>
<rscale>  0 0.16992637E+04</rscale>
<asrwt>0</asrwt>
<pdfrwt beam="1">  1        1 0.14620008E+00 0.16992637E+04</pdfrwt>
<pdfrwt beam="2">  1       -1 0.11686576E+00 0.16992637E+04</pdfrwt>
<totfact> 0.10411760E+01</totfact>
</mgrwt>
</event>
<event>
12    1  0.1779511E-007  0.1637938E+04  0.7818608E-02  0.8797575E-01
          2   -1    0    0  501    0  0.00000000000E+00  0.00000000000E+00  0.92906176343E+03  0.92906176343E+03  0.00000000000E+00 0. -1.
         -2   -1    0    0    0  501 -0.00000000000E+00 -0.00000000000E+00 -0.72192175624E+03  0.72192175624E+03  0.00000000000E+00 0.  1.
         23    2    1    2    0    0  0.75523702219E+01 -0.11914701901E+03 -0.47921075093E+03  0.50234537860E+03  0.91950449440E+02 0.  0.
        254    2    1    2    0    0 -0.75523702219E+01  0.11914701901E+03  0.68635075812E+03  0.11486381411E+04  0.91325744756E+03 0.  0.
        -24    2    4    4    0    0  0.33195590819E+03  0.12458171103E+03  0.71161715915E+03  0.79938116762E+03  0.83041810161E+02 0.  0.
         24    2    4    4    0    0 -0.33950827842E+03 -0.54346920190E+01 -0.25266401035E+02  0.34925697346E+03  0.77760115076E+02 0.  0.
         13    1    3    3    0    0 -0.20246272310E+02  0.58253471092E+01 -0.45647630764E+02  0.50274769077E+02  0.00000000000E+00 0. -1.
        -13    1    3    3    0    0  0.27798642532E+02 -0.12497236612E+03 -0.43356312017E+03  0.45207060952E+03  0.00000000000E+00 0.  1.
          2    1    6    6  502    0 -0.20155997507E+03 -0.22618566424E+02 -0.47919276122E+02  0.20840892524E+03  0.00000000000E+00 0. -1.
          1    1    5    5  503    0  0.14808415538E+03  0.77885526397E+02  0.41292841676E+03  0.44553894292E+03  0.00000000000E+00 0. -1.
         -2    1    5    5    0  503  0.18387175282E+03  0.46696184636E+02  0.29868874239E+03  0.35384222469E+03  0.00000000000E+00 0.  1.
         -1    1    6    6    0  502 -0.13794830335E+03  0.17183874405E+02  0.22652875088E+02  0.14084804822E+03  0.00000000000E+00 0.  1.
<mgrwt>
<rscale>  0 0.16379376E+04</rscale>
<asrwt>0</asrwt>
<pdfrwt beam="1">  1        2 0.14293258E+00 0.16379376E+04</pdfrwt>
<pdfrwt beam="2">  1       -2 0.11106488E+00 0.16379376E+04</pdfrwt>
<totfact> 0.17204817E+01</totfact>
</mgrwt>
</event>
<event>
12    1  0.1496989E-007  0.2021345E+04  0.7818608E-02  0.8596706E-01
         -1   -1    0    0    0  501 -0.00000000000E+00  0.00000000000E+00  0.14089834825E+04  0.14089834825E+04  0.00000000000E+00 0.  1.
          1   -1    0    0  501    0  0.00000000000E+00 -0.00000000000E+00 -0.72496169798E+03  0.72496169798E+03  0.00000000000E+00 0. -1.
         23    2    1    2    0    0  0.57273181139E+03 -0.56915009699E+03  0.32818019251E+03  0.87637522782E+03  0.91529997721E+02 0.  0.
        254    2    1    2    0    0 -0.57273181139E+03  0.56915009699E+03  0.35584159202E+03  0.12575699527E+04  0.89604987952E+03 0.  0.
        -24    2    4    4    0    0 -0.68385219308E+03  0.53552449246E+03  0.53958803917E+03  0.10256403088E+04  0.79639733036E+02 0.  0.
         24    2    4    4    0    0  0.11112038168E+03  0.33625604528E+02 -0.18374644715E+03  0.23192964385E+03  0.80933196834E+02 0.  0.
         11    1    3    3    0    0  0.43716476716E+03 -0.40660353755E+03  0.27939088564E+03  0.65916518216E+03  0.00000000000E+00 0. -1.
        -11    1    3    3    0    0  0.13556704423E+03 -0.16254655944E+03  0.48789306876E+02  0.21721004566E+03  0.00000000000E+00 0.  1.
          4    1    6    6  502    0  0.11583009252E+03  0.47768728571E+02 -0.15296754603E+03  0.19773095837E+03  0.00000000000E+00 0. -1.
          1    1    5    5  503    0 -0.59893811270E+03  0.48991297105E+03  0.50099667068E+03  0.92181302121E+03  0.00000000000E+00 0. -1.
         -2    1    5    5    0  503 -0.84914080382E+02  0.45611521416E+02  0.38591368497E+02  0.10382728762E+03  0.00000000000E+00 0.  1.
         -1    1    6    6    0  502 -0.47097108329E+01 -0.14143124043E+02 -0.30778901128E+02  0.34198685478E+02  0.00000000000E+00 0.  1.
<mgrwt>
<rscale>  0 0.20213452E+04</rscale>
<asrwt>0</asrwt>
<pdfrwt beam="1">  1        1 0.11153257E+00 0.20213452E+04</pdfrwt>
<pdfrwt beam="2">  1       -1 0.21676669E+00 0.20213452E+04</pdfrwt>
<totfact> 0.27655803E+00</totfact>
</mgrwt>
</event>
<event>
12    1  0.1496989E-007  0.2630989E+04  0.7818608E-02  0.8357751E-01
          2   -1    0    0  501    0  0.00000000000E+00  0.00000000000E+00  0.11619875793E+04  0.11619875793E+04  0.00000000000E+00 0. -1.
         -2   -1    0    0    0  501 -0.00000000000E+00 -0.00000000000E+00 -0.14892806713E+04  0.14892806713E+04  0.00000000000E+00 0.  1.
         23    2    1    2    0    0  0.79447154814E+03  0.61405010985E+02  0.70080773900E+03  0.10664581786E+04  0.10604689282E+03 0.  0.
        254    2    1    2    0    0 -0.79447154814E+03 -0.61405010985E+02 -0.10281008310E+04  0.15848100720E+04  0.90535961321E+03 0.  0.
        -24    2    4    4    0    0 -0.63152256559E+03  0.35709748957E+03 -0.48851689207E+03  0.87827653584E+03  0.79884614653E+02 0.  0.
         24    2    4    4    0    0 -0.16294898255E+03 -0.41850250055E+03 -0.53958393897E+03  0.70653353612E+03  0.79637281399E+02 0.  0.
         11    1    3    3    0    0  0.51636992439E+03  0.87677252862E+02  0.47901810139E+03  0.70977710652E+03  0.00000000000E+00 0. -1.
        -11    1    3    3    0    0  0.27810162375E+03 -0.26272241877E+02  0.22178963761E+03  0.35668107207E+03  0.00000000000E+00 0.  1.
          4    1    6    6  502    0 -0.70909755810E+02 -0.20915216157E+03 -0.32498957857E+03  0.39292626069E+03  0.00000000000E+00 0. -1.
          1    1    5    5  503    0 -0.25880825354E+02 -0.13548986419E+01 -0.13729987795E+02  0.29328577125E+02  0.00000000000E+00 0. -1.
         -2    1    5    5    0  503 -0.60564174024E+03  0.35845238821E+03 -0.47478690428E+03  0.84894795871E+03  0.00000000000E+00 0.  1.
         -3    1    6    6    0  502 -0.92039226740E+02 -0.20935033898E+03 -0.21459436040E+03  0.31360727543E+03  0.00000000000E+00 0.  1.
<mgrwt>
<rscale>  0 0.26309889E+04</rscale>
<asrwt>0</asrwt>
<pdfrwt beam="1">  1        2 0.17876732E+00 0.26309889E+04</pdfrwt>
<pdfrwt beam="2">  1       -2 0.22912010E+00 0.26309889E+04</pdfrwt>
<totfact> 0.15252705E+00</totfact>
</mgrwt>
</event>
<event>
12    1  0.1496989E-007  0.1150805E+04  0.7818608E-02  0.9157041E-01
          1   -1    0    0  501    0  0.00000000000E+00  0.00000000000E+00  0.20323986463E+03  0.20323986463E+03  0.00000000000E+00 0. -1.
         -1   -1    0    0    0  501 -0.00000000000E+00 -0.00000000000E+00 -0.16290516353E+04  0.16290516353E+04  0.00000000000E+00 0.  1.
         23    2    1    2    0    0  0.53459304836E+02  0.11268473821E+03 -0.54799374790E+03  0.56912192871E+03  0.89704372797E+02 0.  0.
        254    2    1    2    0    0 -0.53459304836E+02 -0.11268473821E+03 -0.87781802276E+03  0.12631695712E+04  0.89970947370E+03 0.  0.
        -24    2    4    4    0    0 -0.40806667072E+03 -0.24825714044E+03 -0.30635580991E+03  0.57244051650E+03  0.75393946260E+02 0.  0.
         24    2    4    4    0    0  0.35460736588E+03  0.13557240223E+03 -0.57146221286E+03  0.69072905472E+03  0.80070632115E+02 0.  0.
         11    1    3    3    0    0 -0.10291723403E+02  0.52085013700E+02 -0.32674835440E+03  0.33103361661E+03  0.00000000000E+00 0.  1.
        -11    1    3    3    0    0  0.63751028239E+02  0.60599724514E+02 -0.22124539350E+03  0.23808831210E+03  0.00000000000E+00 0. -1.
          4    1    6    6  502    0  0.21621060917E+02 -0.28773675163E+01 -0.11409664346E+02  0.24615644608E+02  0.00000000000E+00 0. -1.
          1    1    5    5  503    0 -0.92394810630E+02 -0.65801196077E+02 -0.11138916948E+03  0.15897844355E+03  0.00000000000E+00 0. -1.
         -2    1    5    5    0  503 -0.31567186009E+03 -0.18245594437E+03 -0.19496664043E+03  0.41346207295E+03  0.00000000000E+00 0.  1.
         -3    1    6    6    0  502  0.33298630496E+03  0.13844976975E+03 -0.56005254851E+03  0.66611341011E+03  0.00000000000E+00 0.  1.
<mgrwt>
<rscale>  0 0.11508053E+04</rscale>
<asrwt>0</asrwt>
<pdfrwt beam="1">  1        1 0.31267670E-01 0.11508053E+04</pdfrwt>
<pdfrwt beam="2">  1       -1 0.25062334E+00 0.11508053E+04</pdfrwt>
<totfact> 0.10024847E+01</totfact>
</mgrwt>
</event>
<event>
12    1  0.1496989E-007  0.2076547E+04  0.7818608E-02  0.8571646E-01
          2   -1    0    0  501    0  0.00000000000E+00  0.00000000000E+00  0.30700436069E+04  0.30700436069E+04  0.00000000000E+00 0. -1.
         -2   -1    0    0    0  501 -0.00000000000E+00 -0.00000000000E+00 -0.35113880802E+03  0.35113880802E+03  0.00000000000E+00 0.  1.
         23    2    1    2    0    0 -0.33569311564E+03 -0.15475275809E+03  0.23174051926E+04  0.23487992098E+04  0.99260350252E+02 0.  0.
        254    2    1    2    0    0  0.33569311564E+03  0.15475275809E+03  0.40149960626E+03  0.10723832051E+04  0.92312811720E+03 0.  0.
        -24    2    4    4    0    0  0.35352682869E+03 -0.38275924130E+02  0.65140410479E+03  0.74646026508E+03  0.80183256556E+02 0.  0.
         24    2    4    4    0    0 -0.17833713047E+02  0.19302868222E+03 -0.24990449853E+03  0.32592294004E+03  0.78710805964E+02 0.  0.
         13    1    3    3    0    0 -0.15996960177E+03 -0.20402133126E+02  0.93325030496E+03  0.94708112231E+03  0.00000000000E+00 0. -1.
        -13    1    3    3    0    0 -0.17572351387E+03 -0.13435062497E+03  0.13841548876E+04  0.14017180875E+04  0.00000000000E+00 0.  1.
          2    1    6    6  502    0 -0.15911743208E+02  0.12101562951E+03 -0.21173603221E+03  0.24439744985E+03  0.00000000000E+00 0. -1.
          3    1    5    5  503    0  0.50224628849E+02  0.93327192231E+01  0.51391006505E+02  0.72461358949E+02  0.00000000000E+00 0. -1.
         -4    1    5    5    0  503  0.30330219984E+03 -0.47608643353E+02  0.60001309829E+03  0.67399890613E+03  0.00000000000E+00 0.  1.
         -1    1    6    6    0  502 -0.19219698394E+01  0.72013052711E+02 -0.38168466321E+02  0.81525490186E+02  0.00000000000E+00 0.  1.
<mgrwt>
<rscale>  0 0.20765466E+04</rscale>
<asrwt>0</asrwt>
<pdfrwt beam="1">  1        2 0.47231438E+00 0.20765466E+04</pdfrwt>
<pdfrwt beam="2">  1       -2 0.54021357E-01 0.20765466E+04</pdfrwt>
<totfact> 0.46961432E+00</totfact>
</mgrwt>
</event>
<event>
12    1  0.1496989E-007  0.2434941E+04  0.7818608E-02  0.8426537E-01
         -1   -1    0    0    0  501 -0.00000000000E+00  0.00000000000E+00  0.65334700068E+03  0.65334700068E+03  0.00000000000E+00 0.  1.
          1   -1    0    0  501    0  0.00000000000E+00 -0.00000000000E+00 -0.22686782063E+04  0.22686782063E+04  0.00000000000E+00 0. -1.
         23    2    1    2    0    0  0.77527030606E+03  0.45396854619E+03 -0.48070420996E+02  0.90421904945E+03  0.90387143059E+02 0.  0.
        254    2    1    2    0    0 -0.77527030606E+03 -0.45396854619E+03 -0.15672607846E+04  0.20178061575E+04  0.89894595717E+03 0.  0.
        -24    2    4    4    0    0 -0.32011798784E+03 -0.60645257927E+03 -0.52538653038E+03  0.86753650734E+03  0.79550790123E+02 0.  0.
         24    2    4    4    0    0 -0.45515231822E+03  0.15248403308E+03 -0.10418742542E+04  0.11502696502E+04  0.84872217791E+02 0.  0.
         11    1    3    3    0    0  0.17536026703E+03  0.60792169895E+02 -0.53607019448E+01  0.18567619206E+03  0.00000000000E+00 0. -1.
        -11    1    3    3    0    0  0.59991003903E+03  0.39317637629E+03 -0.42709719052E+02  0.71854285739E+03  0.00000000000E+00 0.  1.
          2    1    6    6  502    0 -0.32923132433E+02 -0.10089032597E+02 -0.89187860555E+02  0.95604370707E+02  0.00000000000E+00 0. -1.
          3    1    5    5  503    0 -0.23305895549E+02 -0.77154890433E+02 -0.37512159991E+02  0.88899966435E+02  0.00000000000E+00 0. -1.
         -4    1    5    5    0  503 -0.29681209229E+03 -0.52929768884E+03 -0.48787437039E+03  0.77863654090E+03  0.00000000000E+00 0.  1.
         -1    1    6    6    0  502 -0.42222918578E+03  0.16257306568E+03 -0.95268639368E+03  0.10546652795E+04  0.00000000000E+00 0.  1.
<mgrwt>
<rscale>  0 0.24349407E+04</rscale>
<asrwt>0</asrwt>
<pdfrwt beam="1">  1        1 0.34902741E+00 0.24349407E+04</pdfrwt>
<pdfrwt beam="2">  1       -1 0.10051492E+00 0.24349407E+04</pdfrwt>
<totfact> 0.16451380E+00</totfact>
</mgrwt>
</event>
<event>
12    1  0.1496989E-007  0.1397620E+04  0.7818608E-02  0.8955543E-01
         -2   -1    0    0    0  501 -0.00000000000E+00  0.00000000000E+00  0.36914640078E+03  0.36914640078E+03  0.00000000000E+00 0.  1.
          2   -1    0    0  501    0  0.00000000000E+00 -0.00000000000E+00 -0.13228782856E+04  0.13228782856E+04  0.00000000000E+00 0. -1.
         23    2    1    2    0    0  0.76570237904E+02  0.19939229996E+03 -0.70479902875E+03  0.74218115256E+03  0.92037501461E+02 0.  0.
        254    2    1    2    0    0 -0.76570237904E+02 -0.19939229996E+03 -0.24893285607E+03  0.94984353382E+03  0.89141173500E+03 0.  0.
        -24    2    4    4    0    0 -0.33618296051E+03 -0.27201949049E+03  0.14668234528E+03  0.46454231276E+03  0.85265841864E+02 0.  0.
         24    2    4    4    0    0  0.25961272260E+03  0.72627190535E+02 -0.39561520134E+03  0.48530122105E+03  0.79576460568E+02 0.  0.
         13    1    3    3    0    0 -0.11128502029E+02  0.90906257802E+02 -0.23922319738E+03  0.25615528382E+03  0.00000000000E+00 0.  1.
        -13    1    3    3    0    0  0.87698739934E+02  0.10848604216E+03 -0.46557583136E+03  0.48602586873E+03  0.00000000000E+00 0. -1.
          4    1    6    6  502    0  0.18711825071E+02 -0.77120208818E+01 -0.67056427437E+02  0.70044072727E+02  0.00000000000E+00 0. -1.
          3    1    5    5  503    0 -0.20279035826E+03 -0.12000730516E+03  0.52352412842E+02  0.24138446061E+03  0.00000000000E+00 0. -1.
         -4    1    5    5    0  503 -0.13339260225E+03 -0.15201218533E+03  0.94329932434E+02  0.22315785215E+03  0.00000000000E+00 0.  1.
         -3    1    6    6    0  502  0.24090089753E+03  0.80339211416E+02 -0.32855877391E+03  0.41525714832E+03  0.00000000000E+00 0.  1.
<mgrwt>
<rscale>  0 0.13976205E+04</rscale>
<asrwt>0</asrwt>
<pdfrwt beam="1">  1        2 0.20351973E+00 0.13976205E+04</pdfrwt>
<pdfrwt beam="2">  1       -2 0.56791754E-01 0.13976205E+04</pdfrwt>
<totfact> 0.45373048E+01</totfact>
</mgrwt>
</event>
<event>
12    1  0.1496989E-007  0.2287572E+04  0.7818608E-02  0.8482838E-01
         -1   -1    0    0    0  501 -0.00000000000E+00  0.00000000000E+00  0.12353599042E+04  0.12353599042E+04  0.00000000000E+00 0.  1.
          1   -1    0    0  501    0  0.00000000000E+00 -0.00000000000E+00 -0.10589999453E+04  0.10589999453E+04  0.00000000000E+00 0. -1.
         23    2    1    2    0    0  0.58355908079E+03 -0.71241133059E+03  0.37415163158E+03  0.99812067494E+03  0.90467306917E+02 0.  0.
        254    2    1    2    0    0 -0.58355908079E+03  0.71241133059E+03 -0.19779167271E+03  0.12962391746E+04  0.89052981264E+03 0.  0.
        -24    2    4    4    0    0  0.51291048152E+02  0.55188812093E+03  0.10606772981E+03  0.57000721849E+03  0.80290697959E+02 0.  0.
         24    2    4    4    0    0 -0.63485012894E+03  0.16052320966E+03 -0.30385940252E+03  0.72623195609E+03  0.79246012480E+02 0.  0.
         11    1    3    3    0    0  0.12530295745E+03 -0.12029192776E+03  0.40213469550E+02  0.17829218201E+03  0.00000000000E+00 0. -1.
        -11    1    3    3    0    0  0.45825612333E+03 -0.59211940283E+03  0.33393816203E+03  0.81982849294E+03  0.00000000000E+00 0.  1.
          4    1    6    6  502    0 -0.34102785330E+03  0.91670961207E+02 -0.20677686130E+03  0.40921905164E+03  0.00000000000E+00 0. -1.
          3    1    5    5  503    0 -0.63068392071E+01  0.30916456842E+03  0.78407846619E+02  0.31901457176E+03  0.00000000000E+00 0. -1.
         -4    1    5    5    0  503  0.57597887359E+02  0.24272355251E+03  0.27659883187E+02  0.25099264673E+03  0.00000000000E+00 0.  1.
         -3    1    6    6    0  502 -0.29382227564E+03  0.68852248453E+02 -0.97082541216E+02  0.31701290445E+03  0.00000000000E+00 0.  1.
<mgrwt>
<rscale>  0 0.22875717E+04</rscale>
<asrwt>0</asrwt>
<pdfrwt beam="1">  1        1 0.16292307E+00 0.22875717E+04</pdfrwt>
<pdfrwt beam="2">  1       -1 0.19005537E+00 0.22875717E+04</pdfrwt>
<totfact> 0.21759172E+00</totfact>
</mgrwt>
</event>
<event>
12    1  0.1496989E-007  0.1184061E+04  0.7818608E-02  0.9126924E-01
          2   -1    0    0  501    0  0.00000000000E+00  0.00000000000E+00  0.19985022445E+04  0.19985022445E+04  0.00000000000E+00 0. -1.
         -2   -1    0    0    0  501 -0.00000000000E+00 -0.00000000000E+00 -0.17538126822E+03  0.17538126822E+03  0.00000000000E+00 0.  1.
         23    2    1    2    0    0 -0.31850856329E+02  0.11303958226E+03  0.79219441611E+03  0.80622959517E+03  0.92960975715E+02 0.  0.
        254    2    1    2    0    0  0.31850856329E+02 -0.11303958226E+03  0.10309265602E+04  0.13676539176E+04  0.89099676854E+03 0.  0.
        -24    2    4    4    0    0 -0.20558454599E+03 -0.17256983517E+03 -0.24919815458E+02  0.28095100492E+03  0.79165121139E+02 0.  0.
         24    2    4    4    0    0  0.23743540232E+03  0.59530252901E+02  0.10558463757E+04  0.10867029127E+04  0.78690724398E+02 0.  0.
         11    1    3    3    0    0 -0.43400244747E+02  0.12477555009E+03  0.66699787123E+03  0.67995490981E+03  0.00000000000E+00 0. -1.
        -11    1    3    3    0    0  0.11549388418E+02 -0.11735967831E+02  0.12519654488E+03  0.12627468536E+03  0.00000000000E+00 0.  1.
          4    1    6    6  502    0  0.80744296142E+01  0.58814339835E+01  0.16305042191E+03  0.16335613782E+03  0.00000000000E+00 0. -1.
          3    1    5    5  503    0 -0.74427438039E+02 -0.82264403818E+02 -0.46438669034E+02  0.12026398318E+03  0.00000000000E+00 0. -1.
         -4    1    5    5    0  503 -0.13115710795E+03 -0.90305431347E+02  0.21518853576E+02  0.16068702174E+03  0.00000000000E+00 0.  1.
         -3    1    6    6    0  502  0.22936097271E+03  0.53648818918E+02  0.89279595374E+03  0.92334677483E+03  0.00000000000E+00 0.  1.
<mgrwt>
<rscale>  0 0.11840606E+04</rscale>
<asrwt>0</asrwt>
<pdfrwt beam="1">  1        2 0.30746187E+00 0.11840606E+04</pdfrwt>
<pdfrwt beam="2">  1       -2 0.26981735E-01 0.11840606E+04</pdfrwt>
<totfact> 0.82642423E+01</totfact>
</mgrwt>
</event>
<event>
12    1  0.1496989E-007  0.2288007E+04  0.7818608E-02  0.8482665E-01
          1   -1    0    0  501    0  0.00000000000E+00  0.00000000000E+00  0.80542385051E+03  0.80542385051E+03  0.00000000000E+00 0. -1.
         -1   -1    0    0    0  501 -0.00000000000E+00 -0.00000000000E+00 -0.16249131775E+04  0.16249131775E+04  0.00000000000E+00 0.  1.
         23    2    1    2    0    0  0.16066199178E+03  0.94943453849E+03 -0.23895569032E+03  0.99652580629E+03  0.93411145995E+02 0.  0.
        254    2    1    2    0    0 -0.16066199178E+03 -0.94943453849E+03 -0.58053363663E+03  0.14338112217E+04  0.88969494641E+03 0.  0.
        -24    2    4    4    0    0 -0.44729547420E+03 -0.47781017178E+03 -0.45738288824E+02  0.66104716279E+03  0.80719011851E+02 0.  0.
         24    2    4    4    0    0  0.28663348242E+03 -0.47162436671E+03 -0.53479534781E+03  0.77276405888E+03  0.81055105613E+02 0.  0.
         11    1    3    3    0    0  0.15935144637E+03  0.84317452588E+03 -0.18701354033E+03  0.87824269358E+03  0.00000000000E+00 0.  1.
        -11    1    3    3    0    0  0.13105454101E+01  0.10626001261E+03 -0.51942149986E+02  0.11828311272E+03  0.00000000000E+00 0. -1.
          2    1    6    6  502    0  0.81633145709E+02 -0.83357323804E+02 -0.14063666889E+03  0.18273228107E+03  0.00000000000E+00 0. -1.
          3    1    5    5  503    0 -0.16158684841E+03 -0.19404407840E+03 -0.54247692421E+02  0.25827548485E+03  0.00000000000E+00 0. -1.
         -4    1    5    5    0  503 -0.28570862579E+03 -0.28376609338E+03  0.85094035977E+01  0.40277167794E+03  0.00000000000E+00 0.  1.
         -1    1    6    6    0  502  0.20500033671E+03 -0.38826704291E+03 -0.39415867892E+03  0.59003177781E+03  0.00000000000E+00 0.  1.
<mgrwt>
<rscale>  0 0.22880068E+04</rscale>
<asrwt>0</asrwt>
<pdfrwt beam="1">  1        1 0.12391136E+00 0.22880068E+04</pdfrwt>
<pdfrwt beam="2">  1       -1 0.24998664E+00 0.22880068E+04</pdfrwt>
<totfact> 0.13798450E+00</totfact>
</mgrwt>
</event>
<event>
12    1  0.1496989E-007  0.2457310E+04  0.7818608E-02  0.8418354E-01
         -1   -1    0    0    0  501 -0.00000000000E+00  0.00000000000E+00  0.22151278310E+04  0.22151278310E+04  0.00000000000E+00 0.  1.
          1   -1    0    0  501    0  0.00000000000E+00 -0.00000000000E+00 -0.68149264665E+03  0.68149264665E+03  0.00000000000E+00 0. -1.
         23    2    1    2    0    0  0.48121849730E+03 -0.25273842813E+03 -0.40874115369E+03  0.68600746966E+03  0.89938659750E+02 0.  0.
        254    2    1    2    0    0 -0.48121849730E+03  0.25273842813E+03  0.19423763380E+04  0.22106130080E+04  0.90472983666E+03 0.  0.
        -24    2    4    4    0    0 -0.30770019069E+03 -0.32035238072E+03  0.77454399558E+03  0.89585496651E+03  0.73025096717E+02 0.  0.
         24    2    4    4    0    0 -0.17351830661E+03  0.57309080885E+03  0.11678323424E+04  0.13147580415E+04  0.78833049142E+02 0.  0.
         11    1    3    3    0    0  0.42989140681E+03 -0.23989424388E+03 -0.33588194046E+03  0.59596354572E+03  0.00000000000E+00 0. -1.
        -11    1    3    3    0    0  0.51327090486E+02 -0.12844184250E+02 -0.72859213230E+02  0.90043923944E+02  0.00000000000E+00 0.  1.
          2    1    6    6  502    0 -0.13476073587E+03  0.51464309921E+03  0.99619790990E+03  0.11293485960E+04  0.00000000000E+00 0. -1.
          3    1    5    5  503    0 -0.12639976756E+03 -0.84580100727E+02  0.28511791194E+03  0.32314535180E+03  0.00000000000E+00 0. -1.
         -4    1    5    5    0  503 -0.18130042312E+03 -0.23577227999E+03  0.48942608364E+03  0.57270961471E+03  0.00000000000E+00 0.  1.
         -3    1    6    6    0  502 -0.38757570740E+02  0.58447709640E+02  0.17163443254E+03  0.18540944551E+03  0.00000000000E+00 0.  1.
<mgrwt>
<rscale>  0 0.24573102E+04</rscale>
<asrwt>0</asrwt>
<pdfrwt beam="1">  1        1 0.10484502E+00 0.24573102E+04</pdfrwt>
<pdfrwt beam="2">  1       -1 0.34078889E+00 0.24573102E+04</pdfrwt>
<totfact> 0.45248262E-01</totfact>
</mgrwt>
</event>
<event>
12    1  0.1496989E-007  0.1395192E+04  0.7818608E-02  0.8957306E-01
         -2   -1    0    0    0  501 -0.00000000000E+00  0.00000000000E+00  0.26220827770E+03  0.26220827770E+03  0.00000000000E+00 0.  1.
          2   -1    0    0  501    0  0.00000000000E+00 -0.00000000000E+00 -0.18559303511E+04  0.18559303511E+04  0.00000000000E+00 0. -1.
         23    2    1    2    0    0 -0.39472339266E+03 -0.52972683263E+02 -0.46201043716E+03  0.61675195690E+03  0.91195780659E+02 0.  0.
        254    2    1    2    0    0  0.39472339266E+03  0.52972683263E+02 -0.11317116363E+04  0.15013866719E+04  0.90265056864E+03 0.  0.
        -24    2    4    4    0    0  0.56394751227E+03  0.19795830911E+02 -0.11763817718E+04  0.13070732679E+04  0.78344005009E+02 0.  0.
         24    2    4    4    0    0 -0.16922411960E+03  0.33176852352E+02  0.44670135506E+02  0.19431340405E+03  0.77619403489E+02 0.  0.
         13    1    3    3    0    0 -0.33457788156E+03 -0.50910605602E+02 -0.43404684386E+03  0.55039159810E+03  0.00000000000E+00 0.  1.
        -13    1    3    3    0    0 -0.60145511105E+02 -0.20620776608E+01 -0.27963593297E+02  0.66360358803E+02  0.00000000000E+00 0. -1.
          4    1    6    6  502    0 -0.31166620740E+02 -0.16209511140E+02 -0.11992918576E+02  0.37120568365E+02  0.00000000000E+00 0. -1.
          3    1    5    5  503    0  0.30805814782E+02 -0.23191437814E+01 -0.32416932074E+02  0.44779840747E+02  0.00000000000E+00 0. -1.
         -4    1    5    5    0  503  0.53314169748E+03  0.22114974692E+02 -0.11439648397E+04  0.12622934271E+04  0.00000000000E+00 0.  1.
         -3    1    6    6    0  502 -0.13805749886E+03  0.49386363491E+02  0.56663054082E+02  0.15719283568E+03  0.00000000000E+00 0.  1.
<mgrwt>
<rscale>  0 0.13951922E+04</rscale>
<asrwt>0</asrwt>
<pdfrwt beam="1">  1        2 0.28552775E+00 0.13951922E+04</pdfrwt>
<pdfrwt beam="2">  1       -2 0.40339735E-01 0.13951922E+04</pdfrwt>
<totfact> 0.45506064E+01</totfact>
</mgrwt>
</event>
<event>
12    1  0.1496989E-007  0.1633982E+04  0.7818608E-02  0.8799939E-01
         -1   -1    0    0    0  501 -0.00000000000E+00  0.00000000000E+00  0.11059490743E+04  0.11059490743E+04  0.00000000000E+00 0.  1.
          1   -1    0    0  501    0  0.00000000000E+00 -0.00000000000E+00 -0.60353054481E+03  0.60353054481E+03  0.00000000000E+00 0. -1.
         23    2    1    2    0    0  0.36936847996E+03 -0.24458439784E+03 -0.18548775570E+03  0.48917788724E+03  0.92923066003E+02 0.  0.
        254    2    1    2    0    0 -0.36936847996E+03  0.24458439784E+03  0.68790628520E+03  0.12203017319E+04  0.90535443775E+03 0.  0.
        -24    2    4    4    0    0 -0.33996390006E+02 -0.24745025418E+03  0.54359701684E+03  0.60350231245E+03  0.79560930040E+02 0.  0.
         24    2    4    4    0    0 -0.33537208996E+03  0.49203465202E+03  0.14430926836E+03  0.61679941942E+03  0.71019865968E+02 0.  0.
         11    1    3    3    0    0  0.27991786514E+03 -0.21474910230E+03 -0.11372484931E+03  0.37068116962E+03  0.00000000000E+00 0. -1.
        -11    1    3    3    0    0  0.89450614823E+02 -0.29835295534E+02 -0.71762906394E+02  0.11849671762E+03  0.00000000000E+00 0.  1.
          2    1    6    6  502    0 -0.20363152202E+03  0.23582467699E+03  0.73257100454E+02  0.32007136361E+03  0.00000000000E+00 0. -1.
          3    1    5    5  503    0  0.53507013559E+01 -0.20180032791E+03  0.41771591914E+03  0.46393813322E+03  0.00000000000E+00 0. -1.
         -4    1    5    5    0  503 -0.39347091362E+02 -0.45649926269E+02  0.12588109770E+03  0.13956417923E+03  0.00000000000E+00 0.  1.
         -1    1    6    6    0  502 -0.13174056794E+03  0.25620997502E+03  0.71052167906E+02  0.29672805581E+03  0.00000000000E+00 0.  1.
<mgrwt>
<rscale>  0 0.16339817E+04</rscale>
<asrwt>0</asrwt>
<pdfrwt beam="1">  1        1 0.92850853E-01 0.16339817E+04</pdfrwt>
<pdfrwt beam="2">  1       -1 0.17014601E+00 0.16339817E+04</pdfrwt>
<totfact> 0.79750072E+00</totfact>
</mgrwt>
</event>
<event>
12    1  0.1496989E-007  0.1908185E+04  0.7818608E-02  0.8650793E-01
          1   -1    0    0  501    0  0.00000000000E+00  0.00000000000E+00  0.11431517758E+04  0.11431517758E+04  0.00000000000E+00 0. -1.
         -1   -1    0    0    0  501 -0.00000000000E+00 -0.00000000000E+00 -0.79630059225E+03  0.79630059225E+03  0.00000000000E+00 0.  1.
         23    2    1    2    0    0 -0.84060871499E+02 -0.72475875684E+03  0.12118200477E+03  0.74484597896E+03  0.88141751517E+02 0.  0.
        254    2    1    2    0    0  0.84060871499E+02  0.72475875684E+03  0.22566917879E+03  0.11946063891E+04  0.91859477512E+03 0.  0.
        -24    2    4    4    0    0  0.48132966513E+02  0.62492890165E+03 -0.26594838120E+03  0.68556619369E+03  0.80122093578E+02 0.  0.
         24    2    4    4    0    0  0.35927904986E+02  0.99829855194E+02  0.49161755999E+03  0.50904019541E+03  0.78595679940E+02 0.  0.
         13    1    3    3    0    0 -0.10172963701E+03 -0.60047597046E+03  0.10917947521E+03  0.61874103465E+03  0.00000000000E+00 0. -1.
        -13    1    3    3    0    0  0.17668765513E+02 -0.12428278638E+03  0.12002529563E+02  0.12610494432E+03  0.00000000000E+00 0.  1.
          2    1    6    6  502    0  0.15978921773E+02  0.38145367635E+02  0.35952749126E+03  0.36189834482E+03  0.00000000000E+00 0. -1.
          3    1    5    5  503    0  0.59582570472E+01  0.39840408061E+03 -0.13592997948E+03  0.42099675960E+03  0.00000000000E+00 0. -1.
         -4    1    5    5    0  503  0.42174709466E+02  0.22652482104E+03 -0.13001840172E+03  0.26456943409E+03  0.00000000000E+00 0.  1.
         -1    1    6    6    0  502  0.19948983213E+02  0.61684487559E+02  0.13209006873E+03  0.14714185059E+03  0.00000000000E+00 0.  1.
<mgrwt>
<rscale>  0 0.19081849E+04</rscale>
<asrwt>0</asrwt>
<pdfrwt beam="1">  1        1 0.17586951E+00 0.19081849E+04</pdfrwt>
<pdfrwt beam="2">  1       -1 0.12250778E+00 0.19081849E+04</pdfrwt>
<totfact> 0.64746982E+00</totfact>
</mgrwt>
</event>
<event>
12    1  0.1496989E-007  0.1419025E+04  0.7818608E-02  0.8940161E-01
         -1   -1    0    0    0  501 -0.00000000000E+00  0.00000000000E+00  0.10685263930E+04  0.10685263930E+04  0.00000000000E+00 0.  1.
          1   -1    0    0  501    0  0.00000000000E+00 -0.00000000000E+00 -0.47112348819E+03  0.47112348819E+03  0.00000000000E+00 0. -1.
         23    2    1    2    0    0 -0.39091185916E+03 -0.10820785947E+03  0.35360066879E+02  0.41708894084E+03  0.90508716480E+02 0.  0.
        254    2    1    2    0    0  0.39091185916E+03  0.10820785947E+03  0.56204283791E+03  0.11225609403E+04  0.88302315407E+03 0.  0.
        -24    2    4    4    0    0  0.18805146016E+03  0.45665561953E+03  0.10780417202E+03  0.51064537941E+03  0.72382715396E+02 0.  0.
         24    2    4    4    0    0  0.20286039901E+03 -0.34844776006E+03  0.45423866590E+03  0.61191556092E+03  0.74429195350E+02 0.  0.
         11    1    3    3    0    0 -0.17104698955E+03 -0.83610850121E+02  0.45029528759E+02  0.19564126700E+03  0.00000000000E+00 0. -1.
        -11    1    3    3    0    0 -0.21986486961E+03 -0.24597009349E+02 -0.96694618802E+01  0.22144767384E+03  0.00000000000E+00 0.  1.
          2    1    6    6  502    0  0.52325606149E+02 -0.74809351934E+02  0.61230269562E+02  0.10992522052E+03  0.00000000000E+00 0. -1.
          3    1    5    5  503    0  0.18906644049E+02  0.11210714212E+03  0.42099428154E+02  0.12123462523E+03  0.00000000000E+00 0. -1.
         -4    1    5    5    0  503  0.16914481611E+03  0.34454847741E+03  0.65704743861E+02  0.38941075418E+03  0.00000000000E+00 0.  1.
         -1    1    6    6    0  502  0.15053479286E+03 -0.27363840813E+03  0.39300839634E+03  0.50199034040E+03  0.00000000000E+00 0.  1.
<mgrwt>
<rscale>  0 0.14190249E+04</rscale>
<asrwt>0</asrwt>
<pdfrwt beam="1">  1        1 0.72480537E-01 0.14190249E+04</pdfrwt>
<pdfrwt beam="2">  1       -1 0.16438868E+00 0.14190249E+04</pdfrwt>
<totfact> 0.12682563E+01</totfact>
</mgrwt>
</event>
<event>
12    1  0.1496989E-007  0.1739799E+04  0.7818608E-02  0.8738985E-01
         -1   -1    0    0    0  501 -0.00000000000E+00  0.00000000000E+00  0.21766616518E+03  0.21766616518E+03  0.00000000000E+00 0.  1.
          1   -1    0    0  501    0  0.00000000000E+00 -0.00000000000E+00 -0.34765404303E+04  0.34765404303E+04  0.00000000000E+00 0. -1.
         23    2    1    2    0    0  0.42065897344E+02 -0.61492845986E+03 -0.14397921369E+04  0.15711161725E+04  0.12449128208E+03 0.  0.
        254    2    1    2    0    0 -0.42065897344E+02  0.61492845986E+03 -0.18190821282E+04  0.21230904230E+04  0.90473565462E+03 0.  0.
        -24    2    4    4    0    0  0.26122843375E+02 -0.76172219717E+01 -0.13080467695E+04  0.13107601795E+04  0.79783908113E+02 0.  0.
         24    2    4    4    0    0 -0.68188740719E+02  0.62254568184E+03 -0.51103535868E+03  0.81233024349E+03  0.80687398855E+02 0.  0.
         11    1    3    3    0    0  0.31098856440E+02 -0.29954735987E+03 -0.55049299307E+03  0.62748569314E+03  0.00000000000E+00 0. -1.
        -11    1    3    3    0    0  0.10967040903E+02 -0.31538109999E+03 -0.88929914387E+03  0.94363047932E+03  0.00000000000E+00 0.  1.
          2    1    6    6  502    0 -0.70135961662E+02  0.59590373322E+03 -0.50654175804E+03  0.78524191497E+03  0.00000000000E+00 0. -1.
          3    1    5    5  503    0  0.32310050853E+02 -0.32379392101E+02 -0.11264678631E+04  0.11273962085E+04  0.00000000000E+00 0. -1.
         -4    1    5    5    0  503 -0.61872074775E+01  0.24762170129E+02 -0.18157890645E+03  0.18336397104E+03  0.00000000000E+00 0.  1.
         -1    1    6    6    0  502  0.19472209437E+01  0.26641948616E+02 -0.44936006413E+01  0.27088328523E+02  0.00000000000E+00 0.  1.
<mgrwt>
<rscale>  0 0.17397991E+04</rscale>
<asrwt>0</asrwt>
<pdfrwt beam="1">  1        1 0.53485237E+00 0.17397991E+04</pdfrwt>
<pdfrwt beam="2">  1       -1 0.33487103E-01 0.17397991E+04</pdfrwt>
<totfact> 0.20919869E+00</totfact>
</mgrwt>
</event>
<event>
12    1  0.1496989E-007  0.1951499E+04  0.7818608E-02  0.8629638E-01
         -1   -1    0    0    0  501 -0.00000000000E+00  0.00000000000E+00  0.50141341547E+03  0.50141341547E+03  0.00000000000E+00 0.  1.
          1   -1    0    0  501    0  0.00000000000E+00 -0.00000000000E+00 -0.18988060017E+04  0.18988060017E+04  0.00000000000E+00 0. -1.
         23    2    1    2    0    0  0.59082302855E+03  0.21850117267E+03 -0.18558818838E+02  0.63724434243E+03  0.94452679548E+02 0.  0.
        254    2    1    2    0    0 -0.59082302855E+03 -0.21850117267E+03 -0.13788337674E+04  0.17629750747E+04  0.90004663352E+03 0.  0.
        -24    2    4    4    0    0 -0.71420251258E+03  0.11632206269E+03 -0.83688848088E+03  0.11091905139E+04  0.79405386616E+02 0.  0.
         24    2    4    4    0    0  0.12337948403E+03 -0.33482323536E+03 -0.54194528652E+03  0.65378456086E+03  0.80002890058E+02 0.  0.
         11    1    3    3    0    0  0.60928529052E+02  0.35592199298E+02  0.25289023932E+02  0.74957488183E+02  0.00000000000E+00 0. -1.
        -11    1    3    3    0    0  0.52989449950E+03  0.18290897337E+03 -0.43847842770E+02  0.56228685424E+03  0.00000000000E+00 0.  1.
          2    1    6    6  502    0  0.76736012709E+02 -0.12198238680E+03 -0.17150196745E+03  0.22401125681E+03  0.00000000000E+00 0. -1.
          3    1    5    5  503    0 -0.21677527625E+03  0.34116100486E+02 -0.31139766549E+03  0.38095135488E+03  0.00000000000E+00 0. -1.
         -4    1    5    5    0  503 -0.49742723633E+03  0.82205962203E+02 -0.52549081538E+03  0.72823915901E+03  0.00000000000E+00 0.  1.
         -1    1    6    6    0  502  0.46643471320E+02 -0.21284084855E+03 -0.37044331907E+03  0.42977330405E+03  0.00000000000E+00 0.  1.
<mgrwt>
<rscale>  0 0.19514987E+04</rscale>
<asrwt>0</asrwt>
<pdfrwt beam="1">  1        1 0.29212401E+00 0.19514987E+04</pdfrwt>
<pdfrwt beam="2">  1       -1 0.77140523E-01 0.19514987E+04</pdfrwt>
<totfact> 0.54789540E+00</totfact>
</mgrwt>
</event>
<event>
12    1  0.1496989E-007  0.2127831E+04  0.7818608E-02  0.8549082E-01
          1   -1    0    0  501    0  0.00000000000E+00  0.00000000000E+00  0.11219404142E+04  0.11219404142E+04  0.00000000000E+00 0. -1.
         -1   -1    0    0    0  501 -0.00000000000E+00 -0.00000000000E+00 -0.10088918170E+04  0.10088918170E+04  0.00000000000E+00 0.  1.
         23    2    1    2    0    0 -0.59582755716E+03 -0.61277640532E+03  0.22164023737E+03  0.88761603875E+03  0.90732775992E+02 0.  0.
        254    2    1    2    0    0  0.59582755716E+03  0.61277640532E+03 -0.10859164016E+03  0.12432161924E+04  0.89626388747E+03 0.  0.
        -24    2    4    4    0    0  0.38454636249E+03  0.71161906303E+03  0.21031486248E+03  0.83982901504E+03  0.82479314747E+02 0.  0.
         24    2    4    4    0    0  0.21128119467E+03 -0.98842657702E+02 -0.31890650264E+03  0.40338717738E+03  0.81303402407E+02 0.  0.
         13    1    3    3    0    0 -0.58205649401E+03 -0.59714503436E+03  0.23022080987E+03  0.86508587757E+03  0.00000000000E+00 0. -1.
        -13    1    3    3    0    0 -0.13771063151E+02 -0.15631370965E+02 -0.85805724968E+01  0.22530161183E+02  0.00000000000E+00 0.  1.
          2    1    6    6  502    0  0.60555667883E+02  0.52325918268E+01 -0.10899250550E+03  0.12479477226E+03  0.00000000000E+00 0. -1.
          3    1    5    5  503    0  0.74380914262E+02  0.79510913423E+02  0.32331073684E+02  0.11357730445E+03  0.00000000000E+00 0. -1.
         -4    1    5    5    0  503  0.31016544823E+03  0.63210814960E+03  0.17798378879E+03  0.72625171059E+03  0.00000000000E+00 0.  1.
         -1    1    6    6    0  502  0.15072552679E+03 -0.10407524953E+03 -0.20991399714E+03  0.27859240511E+03  0.00000000000E+00 0.  1.
<mgrwt>
<rscale>  0 0.21278313E+04</rscale>
<asrwt>0</asrwt>
<pdfrwt beam="1">  1        1 0.17260622E+00 0.21278313E+04</pdfrwt>
<pdfrwt beam="2">  1       -1 0.15521413E+00 0.21278313E+04</pdfrwt>
<totfact> 0.35606214E+00</totfact>
</mgrwt>
</event>
<event>
12    1  0.1496989E-007  0.1477999E+04  0.7818608E-02  0.8899216E-01
          2   -1    0    0  501    0  0.00000000000E+00  0.00000000000E+00  0.10462658185E+04  0.10462658185E+04  0.00000000000E+00 0.  1.
         -2   -1    0    0    0  501 -0.00000000000E+00 -0.00000000000E+00 -0.52197101426E+03  0.52197101426E+03  0.00000000000E+00 0. -1.
         23    2    1    2    0    0  0.15437328043E+03 -0.13755386868E+03  0.58702145961E+03  0.62886589748E+03  0.90144031869E+02 0.  0.
        254    2    1    2    0    0 -0.15437328043E+03  0.13755386868E+03 -0.62726655359E+02  0.93937093529E+03  0.91418321155E+03 0.  0.
        -24    2    4    4    0    0 -0.45270660975E+03 -0.14102604919E+02  0.20359735748E+03  0.50308869765E+03  0.80648594275E+02 0.  0.
         24    2    4    4    0    0  0.29833332932E+03  0.15165647360E+03 -0.26632401284E+03  0.43628223764E+03  0.86088615344E+02 0.  0.
         13    1    3    3    0    0  0.10352218633E+03 -0.31980374000E+02  0.28718762681E+03  0.30694677125E+03  0.00000000000E+00 0.  1.
        -13    1    3    3    0    0  0.50851094091E+02 -0.10557349468E+03  0.29983383279E+03  0.32191912624E+03  0.00000000000E+00 0. -1.
          2    1    6    6  502    0  0.18386404307E+03  0.12508101289E+03 -0.21041505007E+03  0.30614659792E+03  0.00000000000E+00 0. -1.
          3    1    5    5  503    0 -0.30714213547E+02  0.18469078255E+02  0.74788657288E+01  0.36611517286E+02  0.00000000000E+00 0. -1.
         -4    1    5    5    0  503 -0.42199239620E+03 -0.32571683175E+02  0.19611849176E+03  0.46647718037E+03  0.00000000000E+00 0.  1.
         -1    1    6    6    0  502  0.11446928625E+03  0.26575460711E+02 -0.55908962771E+02  0.13013563972E+03  0.00000000000E+00 0.  1.
<mgrwt>
<rscale>  0 0.14779992E+04</rscale>
<asrwt>0</asrwt>
<pdfrwt beam="1">  1        2 0.16096397E+00 0.14779992E+04</pdfrwt>
<pdfrwt beam="2">  1       -2 0.80303233E-01 0.14779992E+04</pdfrwt>
<totfact> 0.31224768E+01</totfact>
</mgrwt>
</event>
<event>
12    1  0.1496989E-007  0.2120898E+04  0.7818608E-02  0.8552093E-01
         -1   -1    0    0    0  501 -0.00000000000E+00  0.00000000000E+00  0.24306216346E+04  0.24306216346E+04  0.00000000000E+00 0.  1.
          1   -1    0    0  501    0  0.00000000000E+00 -0.00000000000E+00 -0.46266038609E+03  0.46266038609E+03  0.00000000000E+00 0. -1.
         23    2    1    2    0    0 -0.45768672169E+02 -0.30267699107E+03  0.19158359809E+04  0.19422551525E+04  0.90661125494E+02 0.  0.
        254    2    1    2    0    0  0.45768672169E+02  0.30267699107E+03  0.52125267684E+02  0.95102686820E+03  0.89890318068E+03 0.  0.
        -24    2    4    4    0    0 -0.36764905635E+03  0.69890799083E+02  0.21934963512E+03  0.44100323816E+03  0.79492397190E+02 0.  0.
         24    2    4    4    0    0  0.41341772852E+03  0.23278619198E+03 -0.16722436743E+03  0.51002363004E+03  0.84002885064E+02 0.  0.
         11    1    3    3    0    0  0.10385519879E+02 -0.48268245318E+02  0.16787858043E+03  0.17498828617E+03  0.00000000000E+00 0. -1.
        -11    1    3    3    0    0 -0.56154192049E+02 -0.25440874575E+03  0.17479574004E+04  0.17672668664E+04  0.00000000000E+00 0.  1.
          2    1    6    6  502    0  0.11531341785E+03  0.27643003447E+02 -0.58159449492E+02  0.13207513597E+03  0.00000000000E+00 0. -1.
          1    1    5    5  503    0 -0.63026976755E+02  0.41057494286E+02  0.28842754683E+02  0.80560673617E+02  0.00000000000E+00 0. -1.
         -2    1    5    5    0  503 -0.30462207960E+03  0.28833304797E+02  0.19050688043E+03  0.36044256455E+03  0.00000000000E+00 0.  1.
         -1    1    6    6    0  502  0.29810431067E+03  0.20514318853E+03 -0.10906491794E+03  0.37794849407E+03  0.00000000000E+00 0.  1.
<mgrwt>
<rscale>  0 0.21208982E+04</rscale>
<asrwt>0</asrwt>
<pdfrwt beam="1">  1        1 0.71178522E-01 0.21208982E+04</pdfrwt>
<pdfrwt beam="2">  1       -1 0.37394178E+00 0.21208982E+04</pdfrwt>
<totfact> 0.48722084E-01</totfact>
</mgrwt>
</event>
<event>
12    1  0.2479682E-007  0.1518618E+04  0.7818608E-02  0.8872166E-01
          2   -1    0    0  501    0  0.00000000000E+00  0.00000000000E+00  0.21963825014E+04  0.21963825014E+04  0.00000000000E+00 0. -1.
         -2   -1    0    0    0  501 -0.00000000000E+00 -0.00000000000E+00 -0.26249994024E+03  0.26249994024E+03  0.00000000000E+00 0.  1.
         23    2    1    2    0    0  0.40381844901E+03  0.15843798150E+03  0.27783530400E+03  0.52441578477E+03  0.98221817471E+02 0.  0.
        254    2    1    2    0    0 -0.40381844901E+03 -0.15843798150E+03  0.16560472572E+04  0.19344666569E+04  0.90083116889E+03 0.  0.
        -24    2    4    4    0    0 -0.26450917917E+02  0.92808096697E+02 -0.74330069910E+02  0.14374117351E+03  0.76312330576E+02 0.  0.
         24    2    4    4    0    0 -0.37736753110E+03 -0.25124607819E+03  0.17303773271E+04  0.17907254834E+04  0.83433910295E+02 0.  0.
         11    1    3    3    0    0  0.38652817099E+03  0.16202762930E+03  0.28335753875E+03  0.50591350485E+03  0.00000000000E+00 0.  1.
        -11    1    3    3    0    0  0.17290278028E+02 -0.35896478090E+01 -0.55222347521E+01  0.18502279922E+02  0.00000000000E+00 0. -1.
          2    1    6    6  502    0 -0.86119288892E+02 -0.35960224886E+02  0.25490944716E+03  0.27145625051E+03  0.00000000000E+00 0. -1.
          1    1    5    5  503    0  0.21840750272E+02  0.94768350041E+01 -0.32276944519E+01  0.24025960660E+02  0.00000000000E+00 0. -1.
         -2    1    5    5    0  503 -0.48291668189E+02  0.83331261692E+02 -0.71102375459E+02  0.11971521285E+03  0.00000000000E+00 0.  1.
         -1    1    6    6    0  502 -0.29124824220E+03 -0.21528585331E+03  0.14754678799E+04  0.15192692328E+04  0.00000000000E+00 0.  1.
<mgrwt>
<rscale>  0 0.15186182E+04</rscale>
<asrwt>0</asrwt>
<pdfrwt beam="1">  1        2 0.33790499E+00 0.15186182E+04</pdfrwt>
<pdfrwt beam="2">  1       -2 0.40384608E-01 0.15186182E+04</pdfrwt>
<totfact> 0.29083289E+01</totfact>
</mgrwt>
</event>
<event>
12    1  0.1496989E-007  0.1314794E+04  0.7818608E-02  0.9017915E-01
         -2   -1    0    0    0  501 -0.00000000000E+00  0.00000000000E+00  0.41582487935E+03  0.41582487935E+03  0.00000000000E+00 0. -1.
          2   -1    0    0  501    0  0.00000000000E+00 -0.00000000000E+00 -0.10393094229E+04  0.10393094229E+04  0.00000000000E+00 0.  1.
         23    2    1    2    0    0  0.29197057040E+03 -0.17380514037E+03 -0.14745566939E+03  0.38119079830E+03  0.90045596640E+02 0.  0.
        254    2    1    2    0    0 -0.29197057040E+03  0.17380514037E+03 -0.47602887417E+03  0.10739435040E+04  0.90071977878E+03 0.  0.
        -24    2    4    4    0    0 -0.45611042610E+03  0.27746045193E+03 -0.61781609476E+03  0.82030193690E+03  0.78597185410E+02 0.  0.
         24    2    4    4    0    0  0.16413985570E+03 -0.10365531156E+03  0.14178722058E+03  0.25364156708E+03  0.80895690765E+02 0.  0.
         11    1    3    3    0    0  0.14707081936E+03 -0.69828450123E+02 -0.24669103805E+02  0.16466451663E+03  0.00000000000E+00 0. -1.
        -11    1    3    3    0    0  0.14489975104E+03 -0.10397669025E+03 -0.12278656558E+03  0.21652628167E+03  0.00000000000E+00 0.  1.
          2    1    6    6  502    0  0.14658702477E+03 -0.63089855329E+02  0.13478506585E+03  0.20889016169E+03  0.00000000000E+00 0. -1.
          3    1    5    5  503    0 -0.33448480497E+03  0.16484683181E+03 -0.45000972581E+03  0.58443418452E+03  0.00000000000E+00 0. -1.
         -4    1    5    5    0  503 -0.12162562113E+03  0.11261362012E+03 -0.16780636895E+03  0.23586775238E+03  0.00000000000E+00 0.  1.
         -3    1    6    6    0  502  0.17552830933E+02 -0.40565456231E+02  0.70021547339E+01  0.44751405385E+02  0.00000000000E+00 0.  1.
<mgrwt>
<rscale>  0 0.13147938E+04</rscale>
<asrwt>0</asrwt>
<pdfrwt beam="1">  1        2 0.15989375E+00 0.13147938E+04</pdfrwt>
<pdfrwt beam="2">  1       -2 0.63973060E-01 0.13147938E+04</pdfrwt>
<totfact> 0.52600871E+01</totfact>
</mgrwt>
</event>
<event>
12    1  0.1496989E-007  0.1769325E+04  0.7818608E-02  0.8722784E-01
         -1   -1    0    0    0  501 -0.00000000000E+00  0.00000000000E+00  0.56359381731E+03  0.56359381731E+03  0.00000000000E+00 0.  1.
          1   -1    0    0  501    0  0.00000000000E+00 -0.00000000000E+00 -0.13886378212E+04  0.13886378212E+04  0.00000000000E+00 0. -1.
         23    2    1    2    0    0  0.63256323893E+03 -0.76489420068E+02 -0.45946147760E+03  0.79088890944E+03  0.91725323940E+02 0.  0.
        254    2    1    2    0    0 -0.63256323893E+03  0.76489420068E+02 -0.36558252632E+03  0.11613427291E+04  0.89948844807E+03 0.  0.
        -24    2    4    4    0    0 -0.35919382064E+03  0.23380408813E+03 -0.61267450658E+03  0.75195850523E+03  0.79918647113E+02 0.  0.
         24    2    4    4    0    0 -0.27336941830E+03 -0.15731466806E+03  0.24709198027E+03  0.40938422385E+03  0.84037208306E+02 0.  0.
         13    1    3    3    0    0  0.57468052756E+03 -0.42084823919E+02 -0.41707938952E+03  0.71132556423E+03  0.00000000000E+00 0. -1.
        -13    1    3    3    0    0  0.57882711374E+02 -0.34404596149E+02 -0.42382088072E+02  0.79563345214E+02  0.00000000000E+00 0.  1.
          4    1    6    6  502    0 -0.14096221533E+03 -0.10872923227E+03  0.94334532957E+02  0.20147306572E+03  0.00000000000E+00 0. -1.
          3    1    5    5  503    0 -0.13859021768E+03  0.12070376640E+03 -0.20973452315E+03  0.27886415664E+03  0.00000000000E+00 0. -1.
         -4    1    5    5    0  503 -0.22060360295E+03  0.11310032173E+03 -0.40293998343E+03  0.47309434858E+03  0.00000000000E+00 0.  1.
         -3    1    6    6    0  502 -0.13240720297E+03 -0.48585435788E+02  0.15275744731E+03  0.20791115814E+03  0.00000000000E+00 0.  1.
<mgrwt>
<rscale>  0 0.17693249E+04</rscale>
<asrwt>0</asrwt>
<pdfrwt beam="1">  1        1 0.21363659E+00 0.17693249E+04</pdfrwt>
<pdfrwt beam="2">  1       -1 0.86706742E-01 0.17693249E+04</pdfrwt>
<totfact> 0.97066438E+00</totfact>
</mgrwt>
</event>
<event>
12    1  0.1496989E-007  0.2949831E+04  0.7818608E-02  0.8258204E-01
         -2   -1    0    0    0  501 -0.00000000000E+00  0.00000000000E+00  0.20158749629E+04  0.20158749629E+04  0.00000000000E+00 0.  1.
          2   -1    0    0  501    0  0.00000000000E+00 -0.00000000000E+00 -0.10791225280E+04  0.10791225280E+04  0.00000000000E+00 0. -1.
         23    2    1    2    0    0  0.36325062028E+03 -0.50904206400E+03  0.16640338375E+04  0.17816906299E+04  0.11974160712E+03 0.  0.
        254    2    1    2    0    0 -0.36325062028E+03  0.50904206400E+03 -0.72728140261E+03  0.13133068610E+04  0.89708518910E+03 0.  0.
        -24    2    4    4    0    0 -0.41402568569E+03  0.73439060464E+03 -0.52776118753E+03  0.99792800563E+03  0.81127090149E+02 0.  0.
         24    2    4    4    0    0  0.50775065411E+02 -0.22534854065E+03 -0.19952021508E+03  0.31537885537E+03  0.79343771955E+02 0.  0.
         13    1    3    3    0    0 -0.38623535511E+01 -0.84430765413E+01  0.77101168730E+02  0.77658183960E+02  0.00000000000E+00 0. -1.
        -13    1    3    3    0    0  0.36711297383E+03 -0.50059898746E+03  0.15869326687E+04  0.17040324460E+04  0.00000000000E+00 0.  1.
          4    1    6    6  502    0 -0.81311781103E+01  0.21319374006E+01 -0.26171405813E+01  0.88040126854E+01  0.00000000000E+00 0. -1.
          1    1    5    5  503    0 -0.14575462932E+02  0.56123635088E+02 -0.53799574137E+02  0.79099309178E+02  0.00000000000E+00 0. -1.
         -2    1    5    5    0  503 -0.39945022276E+03  0.67826696956E+03 -0.47396161339E+03  0.91882869645E+03  0.00000000000E+00 0.  1.
         -3    1    6    6    0  502  0.58906243521E+02 -0.22748047805E+03 -0.19690307450E+03  0.30657484268E+03  0.00000000000E+00 0.  1.
<mgrwt>
<rscale>  0 0.29498312E+04</rscale>
<asrwt>0</asrwt>
<pdfrwt beam="1">  1        2 0.16601885E+00 0.29498312E+04</pdfrwt>
<pdfrwt beam="2">  1       -2 0.31013461E+00 0.29498312E+04</pdfrwt>
<totfact> 0.53134120E-01</totfact>
</mgrwt>
</event>
<event>
12    1  0.1496989E-007  0.1090073E+04  0.7818608E-02  0.9214922E-01
          3   -1    0    0  501    0  0.00000000000E+00  0.00000000000E+00  0.63688053866E+03  0.63688053866E+03  0.00000000000E+00 0. -1.
         -3   -1    0    0    0  501 -0.00000000000E+00 -0.00000000000E+00 -0.46643700427E+03  0.46643700427E+03  0.00000000000E+00 0.  1.
         23    2    1    2    0    0  0.16037229618E+02  0.57586447922E+02 -0.10894460093E+03  0.15386633461E+03  0.90733296730E+02 0.  0.
        254    2    1    2    0    0 -0.16037229618E+02 -0.57586447922E+02  0.27938813531E+03  0.94945120832E+03  0.90544269566E+03 0.  0.
        -24    2    4    4    0    0  0.15507783669E+03 -0.37111622486E+03  0.39184931420E+03  0.56646955516E+03  0.74602172176E+02 0.  0.
         24    2    4    4    0    0 -0.17111506630E+03  0.31352977694E+03 -0.11246117889E+03  0.38298165316E+03  0.80287875531E+02 0.  0.
         11    1    3    3    0    0  0.52921972201E+01 -0.22272612089E+02 -0.46828905232E+02  0.52125070417E+02  0.00000000000E+00 0. -1.
        -11    1    3    3    0    0  0.10745032398E+02  0.79859060011E+02 -0.62115695696E+02  0.10174126419E+03  0.00000000000E+00 0.  1.
          2    1    6    6  502    0 -0.72531631467E+02  0.21195175541E+03 -0.78890588049E+02  0.23750391380E+03  0.00000000000E+00 0. -1.
          3    1    5    5  503    0  0.10829917024E+03 -0.30649128415E+03  0.34471224303E+03  0.47380602364E+03  0.00000000000E+00 0. -1.
         -4    1    5    5    0  503  0.46778666443E+02 -0.64624940709E+02  0.47137071171E+02  0.92663531523E+02  0.00000000000E+00 0.  1.
         -1    1    6    6    0  502 -0.98583434838E+02  0.10157802153E+03 -0.33570590844E+02  0.14547773937E+03  0.00000000000E+00 0.  1.
<mgrwt>
<rscale>  0 0.10900728E+04</rscale>
<asrwt>0</asrwt>
<pdfrwt beam="1">  1        3 0.97981622E-01 0.10900728E+04</pdfrwt>
<pdfrwt beam="2">  1       -3 0.71759539E-01 0.10900728E+04</pdfrwt>
<totfact> 0.44168464E+00</totfact>
</mgrwt>
</event>
<event>
12    1  0.1496989E-007  0.1520118E+04  0.7818608E-02  0.8871184E-01
          3   -1    0    0  501    0  0.00000000000E+00  0.00000000000E+00  0.45010669112E+03  0.45010669112E+03  0.00000000000E+00 0. -1.
         -3   -1    0    0    0  501 -0.00000000000E+00 -0.00000000000E+00 -0.12834501232E+04  0.12834501232E+04  0.00000000000E+00 0.  1.
         23    2    1    2    0    0  0.34331752862E+03  0.77141682244E+02  0.12673931244E+03  0.38450752376E+03  0.89249189992E+02 0.  0.
        254    2    1    2    0    0 -0.34331752862E+03 -0.77141682244E+02 -0.96008274451E+03  0.13490492906E+04  0.87997576526E+03 0.  0.
        -24    2    4    4    0    0 -0.51928856753E+03 -0.20901477514E+03 -0.96138231925E+03  0.11153216690E+04  0.79615757950E+02 0.  0.
         24    2    4    4    0    0  0.17597103891E+03  0.13187309290E+03  0.12995747447E+01  0.23372762158E+03  0.79187076157E+02 0.  0.
         11    1    3    3    0    0  0.32514242161E+03  0.56622452399E+02  0.13391957054E+03  0.35617151461E+03  0.00000000000E+00 0. -1.
        -11    1    3    3    0    0  0.18175107008E+02  0.20519229844E+02 -0.71802580992E+01  0.28336009150E+02  0.00000000000E+00 0.  1.
          4    1    6    6  502    0  0.63712552665E+02  0.43958698375E+01  0.31589731185E+00  0.63864801181E+02  0.00000000000E+00 0. -1.
          3    1    5    5  503    0 -0.51411681057E+03 -0.19396094332E+03 -0.93490282671E+03  0.10844262252E+04  0.00000000000E+00 0. -1.
         -4    1    5    5    0  503 -0.51717569602E+01 -0.15053831819E+02 -0.26479492546E+02  0.30895443807E+02  0.00000000000E+00 0.  1.
         -3    1    6    6    0  502  0.11225848624E+03  0.12747722306E+03  0.98367743287E+00  0.16986282040E+03  0.00000000000E+00 0.  1.
<mgrwt>
<rscale>  0 0.15201177E+04</rscale>
<asrwt>0</asrwt>
<pdfrwt beam="1">  1        3 0.69247184E-01 0.15201177E+04</pdfrwt>
<pdfrwt beam="2">  1       -3 0.19745386E+00 0.15201177E+04</pdfrwt>
<totfact> 0.76755345E-01</totfact>
</mgrwt>
</event>
<event>
12    1  0.1496989E-007  0.2166866E+04  0.7818608E-02  0.8532347E-01
         -1   -1    0    0    0  501 -0.00000000000E+00  0.00000000000E+00  0.13512689417E+04  0.13512689417E+04  0.00000000000E+00 0.  1.
          1   -1    0    0  501    0  0.00000000000E+00 -0.00000000000E+00 -0.86868468040E+03  0.86868468040E+03  0.00000000000E+00 0. -1.
         23    2    1    2    0    0 -0.17359852394E+03 -0.73693962947E+03  0.68816169241E+03  0.10277923514E+04  0.97847522189E+02 0.  0.
        254    2    1    2    0    0  0.17359852394E+03  0.73693962947E+03 -0.20557743116E+03  0.11921612707E+04  0.89764689614E+03 0.  0.
        -24    2    4    4    0    0  0.20550512671E+03  0.24638829231E+03  0.32563113027E+03  0.46402322892E+03  0.79639037410E+02 0.  0.
         24    2    4    4    0    0 -0.31906602774E+02  0.49055133716E+03 -0.53120856144E+03  0.72813804178E+03  0.79648141544E+02 0.  0.
         13    1    3    3    0    0 -0.94124192220E+02 -0.40361222638E+03  0.44172615117E+03  0.60570965443E+03  0.00000000000E+00 0. -1.
        -13    1    3    3    0    0 -0.79474331716E+02 -0.33332740309E+03  0.24643554124E+03  0.42208269692E+03  0.00000000000E+00 0.  1.
          2    1    6    6  502    0 -0.60464171068E+01  0.40932186820E+03 -0.40512196118E+03  0.57593815152E+03  0.00000000000E+00 0. -1.
          1    1    5    5  503    0  0.18778507887E+03  0.17394266745E+03  0.25473558596E+03  0.36112256390E+03  0.00000000000E+00 0. -1.
         -2    1    5    5    0  503  0.17720047841E+02  0.72445624858E+02  0.70895544317E+02  0.10290066502E+03  0.00000000000E+00 0.  1.
         -1    1    6    6    0  502 -0.25860185667E+02  0.81229468964E+02 -0.12608660026E+03  0.15219989026E+03  0.00000000000E+00 0.  1.
<mgrwt>
<rscale>  0 0.21668656E+04</rscale>
<asrwt>0</asrwt>
<pdfrwt beam="1">  1        1 0.13364380E+00 0.21668656E+04</pdfrwt>
<pdfrwt beam="2">  1       -1 0.20788753E+00 0.21668656E+04</pdfrwt>
<totfact> 0.23468212E+00</totfact>
</mgrwt>
</event>
<event>
12    1  0.1496989E-007  0.1430751E+04  0.7818608E-02  0.8931855E-01
         -1   -1    0    0    0  501 -0.00000000000E+00  0.00000000000E+00  0.12982533836E+04  0.12982533836E+04  0.00000000000E+00 0.  1.
          1   -1    0    0  501    0  0.00000000000E+00 -0.00000000000E+00 -0.39419304413E+03  0.39419304413E+03  0.00000000000E+00 0. -1.
         23    2    1    2    0    0  0.95203365475E+02 -0.60204022058E+01  0.80322771311E+03  0.81406371800E+03  0.91788081024E+02 0.  0.
        254    2    1    2    0    0 -0.95203365475E+02  0.60204022058E+01  0.10083262639E+03  0.87838270977E+03  0.86734597494E+03 0.  0.
        -24    2    4    4    0    0  0.70596216279E+02  0.38675254100E+03  0.19367974618E+03  0.44556997280E+03  0.80370410308E+02 0.  0.
         24    2    4    4    0    0 -0.16579958175E+03 -0.38073213880E+03 -0.92847119787E+02  0.43281273697E+03  0.79118991452E+02 0.  0.
         13    1    3    3    0    0  0.16916413292E+02  0.99881458971E+01  0.25244812975E+02  0.31987945843E+02  0.00000000000E+00 0. -1.
        -13    1    3    3    0    0  0.78286952182E+02 -0.16008548103E+02  0.77798290013E+03  0.78207577215E+03  0.00000000000E+00 0.  1.
          4    1    6    6  502    0 -0.24773907991E+02 -0.43920923871E+02  0.14043381655E+02  0.52345110938E+02  0.00000000000E+00 0. -1.
          3    1    5    5  503    0  0.16460164962E+02  0.84003308128E+02  0.72070544548E+01  0.85903634620E+02  0.00000000000E+00 0. -1.
         -4    1    5    5    0  503  0.54136051318E+02  0.30274923288E+03  0.18647269173E+03  0.35966633818E+03  0.00000000000E+00 0.  1.
         -1    1    6    6    0  502 -0.14102567376E+03 -0.33681121493E+03 -0.10689050144E+03  0.38046762603E+03  0.00000000000E+00 0.  1.
<mgrwt>
<rscale>  0 0.14307515E+04</rscale>
<asrwt>0</asrwt>
<pdfrwt beam="1">  1        1 0.60645084E-01 0.14307515E+04</pdfrwt>
<pdfrwt beam="2">  1       -1 0.19973129E+00 0.14307515E+04</pdfrwt>
<totfact> 0.89937565E+00</totfact>
</mgrwt>
</event>
<event>
12    1  0.1496989E-007  0.1742877E+04  0.7818608E-02  0.8737281E-01
          1   -1    0    0  501    0  0.00000000000E+00  0.00000000000E+00  0.18040985241E+04  0.18040985241E+04  0.00000000000E+00 0. -1.
         -1   -1    0    0    0  501 -0.00000000000E+00 -0.00000000000E+00 -0.42093329240E+03  0.42093329240E+03  0.00000000000E+00 0.  1.
         23    2    1    2    0    0  0.37420369645E+03 -0.35699021701E+02  0.11562265658E+04  0.12192404168E+04  0.91566893681E+02 0.  0.
        254    2    1    2    0    0 -0.37420369645E+03  0.35699021701E+02  0.22693866588E+03  0.10057913996E+04  0.90488250889E+03 0.  0.
        -24    2    4    4    0    0 -0.11412575334E+03 -0.22447348950E+02  0.55694399203E+03  0.57464526516E+03  0.80634976707E+02 0.  0.
         24    2    4    4    0    0 -0.26007794312E+03  0.58146370650E+02 -0.33000532615E+03  0.43114613446E+03  0.77213580802E+02 0.  0.
         13    1    3    3    0    0  0.37942086954E+03 -0.37721463369E+02  0.11403969274E+04  0.12024509375E+04  0.00000000000E+00 0. -1.
        -13    1    3    3    0    0 -0.52171730831E+01  0.20224416681E+01  0.15829638405E+02  0.16789479364E+02  0.00000000000E+00 0.  1.
          4    1    6    6  502    0 -0.10466584914E+03  0.57954708592E+02 -0.17201047032E+03  0.20952634709E+03  0.00000000000E+00 0. -1.
          3    1    5    5  503    0 -0.18507424549E+02  0.11597225858E+02  0.25835966350E+03  0.25928119125E+03  0.00000000000E+00 0. -1.
         -4    1    5    5    0  503 -0.95618328787E+02 -0.34044574808E+02  0.29858432853E+03  0.31536407392E+03  0.00000000000E+00 0.  1.
         -3    1    6    6    0  502 -0.15541209397E+03  0.19166205850E+00 -0.15799485583E+03  0.22161978737E+03  0.00000000000E+00 0.  1.
<mgrwt>
<rscale>  0 0.17428771E+04</rscale>
<asrwt>0</asrwt>
<pdfrwt beam="1">  1        1 0.27755361E+00 0.17428771E+04</pdfrwt>
<pdfrwt beam="2">  1       -1 0.64758969E-01 0.17428771E+04</pdfrwt>
<totfact> 0.92799632E+00</totfact>
</mgrwt>
</event>
<event>
12    1  0.1496989E-007  0.1409795E+04  0.7818608E-02  0.8946759E-01
         -2   -1    0    0    0  501 -0.00000000000E+00  0.00000000000E+00  0.37916449689E+03  0.37916449689E+03  0.00000000000E+00 0.  1.
          2   -1    0    0  501    0  0.00000000000E+00 -0.00000000000E+00 -0.13104611223E+04  0.13104611223E+04  0.00000000000E+00 0. -1.
         23    2    1    2    0    0  0.56668469882E+02 -0.40619705146E+03 -0.24332166254E+03  0.49106154870E+03  0.11716933496E+03 0.  0.
        254    2    1    2    0    0 -0.56668469882E+02  0.40619705146E+03 -0.68797496283E+03  0.11985640704E+04  0.89164955078E+03 0.  0.
        -24    2    4    4    0    0  0.27636900417E+03  0.18293372782E+03  0.59549847456E+02  0.34639406450E+03  0.81228617770E+02 0.  0.
         24    2    4    4    0    0 -0.33303747405E+03  0.22326332364E+03 -0.74752481028E+03  0.85217000595E+03  0.81485619910E+02 0.  0.
         13    1    3    3    0    0 -0.19853452533E+02 -0.20432438205E+02 -0.37750457133E+02  0.47294197554E+02  0.00000000000E+00 0.  1.
        -13    1    3    3    0    0  0.76521922416E+02 -0.38576461325E+03 -0.20557120541E+03  0.44376735114E+03  0.00000000000E+00 0. -1.
          2    1    6    6  502    0 -0.19693341729E+03  0.15062469514E+03 -0.38180693035E+03  0.45524400237E+03  0.00000000000E+00 0. -1.
          1    1    5    5  503    0  0.19451956261E+03  0.93763317867E+02  0.11751216971E+02  0.21625797353E+03  0.00000000000E+00 0. -1.
         -2    1    5    5    0  503  0.81849441561E+02  0.89170409955E+02  0.47798630486E+02  0.13013609097E+03  0.00000000000E+00 0.  1.
         -1    1    6    6    0  502 -0.13610405677E+03  0.72638628498E+02 -0.36571787993E+03  0.39692600358E+03  0.00000000000E+00 0.  1.
<mgrwt>
<rscale>  0 0.14097948E+04</rscale>
<asrwt>0</asrwt>
<pdfrwt beam="1">  1        2 0.20160940E+00 0.14097948E+04</pdfrwt>
<pdfrwt beam="2">  1       -2 0.58332999E-01 0.14097948E+04</pdfrwt>
<totfact> 0.43574838E+01</totfact>
</mgrwt>
</event>
<event>
12    1  0.1496989E-007  0.2819229E+04  0.7818608E-02  0.8297323E-01
         -2   -1    0    0    0  501 -0.00000000000E+00  0.00000000000E+00  0.70965754125E+03  0.70965754125E+03  0.00000000000E+00 0.  1.
          2   -1    0    0  501    0  0.00000000000E+00 -0.00000000000E+00 -0.27999603214E+04  0.27999603214E+04  0.00000000000E+00 0. -1.
         23    2    1    2    0    0 -0.70723801874E+03  0.54806640420E+03 -0.20335666857E+04  0.22235939578E+04  0.91729086141E+02 0.  0.
        254    2    1    2    0    0  0.70723801874E+03 -0.54806640420E+03 -0.56736094456E+02  0.12860239049E+04  0.92199571634E+03 0.  0.
        -24    2    4    4    0    0  0.71145512537E+03 -0.31616979325E+03  0.31187682242E+03  0.84262467987E+03  0.81347803806E+02 0.  0.
         24    2    4    4    0    0 -0.42171066257E+01 -0.23189661096E+03 -0.36861291688E+03  0.44339922502E+03  0.83268049696E+02 0.  0.
         13    1    3    3    0    0 -0.46929419699E+03  0.37307605880E+03 -0.14639964271E+04  0.15819950467E+04  0.00000000000E+00 0.  1.
        -13    1    3    3    0    0 -0.23794382175E+03  0.17499034540E+03 -0.56957025859E+03  0.64159891114E+03  0.00000000000E+00 0. -1.
          4    1    6    6  502    0  0.10946934308E+02 -0.79561348741E+02 -0.20071723304E+03  0.21618799972E+03  0.00000000000E+00 0. -1.
          3    1    5    5  503    0  0.64939683105E+03 -0.26170839303E+03  0.27554493338E+03  0.75241779449E+03  0.00000000000E+00 0. -1.
         -4    1    5    5    0  503  0.62058294317E+02 -0.54461400221E+02  0.36331889041E+02  0.90206885374E+02  0.00000000000E+00 0.  1.
         -3    1    6    6    0  502 -0.15164040934E+02 -0.15233526221E+03 -0.16789568384E+03  0.22721122530E+03  0.00000000000E+00 0.  1.
<mgrwt>
<rscale>  0 0.28192289E+04</rscale>
<asrwt>0</asrwt>
<pdfrwt beam="1">  1        2 0.43076313E+00 0.28192289E+04</pdfrwt>
<pdfrwt beam="2">  1       -2 0.10917808E+00 0.28192289E+04</pdfrwt>
<totfact> 0.13436967E+00</totfact>
</mgrwt>
</event>
<event>
12    1  0.1496989E-007  0.1347057E+04  0.7818608E-02  0.8993059E-01
         -1   -1    0    0    0  501 -0.00000000000E+00  0.00000000000E+00  0.74621257425E+03  0.74621257425E+03  0.00000000000E+00 0.  1.
          1   -1    0    0  501    0  0.00000000000E+00 -0.00000000000E+00 -0.60792393749E+03  0.60792393749E+03  0.00000000000E+00 0. -1.
         23    2    1    2    0    0 -0.35373453355E+03  0.14751981800E+03  0.68442319582E+01  0.39406150254E+03  0.91364146942E+02 0.  0.
        254    2    1    2    0    0  0.35373453355E+03 -0.14751981800E+03  0.13144440480E+03  0.96007500920E+03  0.87038851946E+03 0.  0.
        -24    2    4    4    0    0  0.94567121147E+02 -0.47138456231E+03 -0.69601476406E+02  0.49227300514E+03  0.79636675492E+02 0.  0.
         24    2    4    4    0    0  0.25916741240E+03  0.32386474432E+03  0.20104588121E+03  0.46780200406E+03  0.79769344922E+02 0.  0.
         13    1    3    3    0    0 -0.34943240206E+03  0.12750880800E+03  0.14386513704E+02  0.37224786299E+03  0.00000000000E+00 0.  1.
        -13    1    3    3    0    0 -0.43021314915E+01  0.20011009995E+02 -0.75422817462E+01  0.21813639548E+02  0.00000000000E+00 0. -1.
          4    1    6    6  502    0  0.50021069758E+02  0.24358769282E+02  0.40286229215E+02  0.68690882401E+02  0.00000000000E+00 0. -1.
          3    1    5    5  503    0  0.35627526890E+02 -0.52097618897E+02  0.40015486297E+00  0.63116104846E+02  0.00000000000E+00 0. -1.
         -2    1    5    5    0  503  0.58939594257E+02 -0.41928694342E+03 -0.70001631269E+02  0.42915690030E+03  0.00000000000E+00 0.  1.
         -3    1    6    6    0  502  0.20914634264E+03  0.29950597504E+03  0.16075965199E+03  0.39911112166E+03  0.00000000000E+00 0.  1.
<mgrwt>
<rscale>  0 0.13470568E+04</rscale>
<asrwt>0</asrwt>
<pdfrwt beam="1">  1        1 0.93526760E-01 0.13470568E+04</pdfrwt>
<pdfrwt beam="2">  1       -1 0.11480193E+00 0.13470568E+04</pdfrwt>
<totfact> 0.22684838E+01</totfact>
</mgrwt>
</event>
<event>
12    1  0.1496989E-007  0.1055071E+04  0.7818608E-02  0.9250124E-01
         -1   -1    0    0    0  501 -0.00000000000E+00  0.00000000000E+00  0.46870489367E+03  0.46870489367E+03  0.00000000000E+00 0.  1.
          1   -1    0    0  501    0  0.00000000000E+00 -0.00000000000E+00 -0.59375008904E+03  0.59375008904E+03  0.00000000000E+00 0. -1.
         23    2    1    2    0    0  0.20358418154E+02 -0.10032626518E+03 -0.41925635446E+02  0.14350083593E+03  0.91405176707E+02 0.  0.
        254    2    1    2    0    0 -0.20358418154E+02  0.10032626518E+03 -0.83119559924E+02  0.91895414678E+03  0.90944380694E+03 0.  0.
        -24    2    4    4    0    0 -0.26489256794E+03  0.40490520771E+03  0.63885686893E+02  0.49410387255E+03  0.77077597892E+02 0.  0.
         24    2    4    4    0    0  0.24453414979E+03 -0.30457894253E+03 -0.14700524682E+03  0.42485027423E+03  0.79510567070E+02 0.  0.
         11    1    3    3    0    0 -0.12048292475E+02  0.10294699907E+02 -0.21061544903E+02  0.26357747845E+02  0.00000000000E+00 0. -1.
        -11    1    3    3    0    0  0.32406710629E+02 -0.11062096509E+03 -0.20864090543E+02  0.11714308808E+03  0.00000000000E+00 0.  1.
          4    1    6    6  502    0  0.12093994708E+02 -0.37395937625E+02 -0.37101244156E+02  0.54048341110E+02  0.00000000000E+00 0. -1.
          3    1    5    5  503    0 -0.11312790654E+03  0.12042175711E+03  0.44376757807E+02  0.17108073958E+03  0.00000000000E+00 0. -1.
         -4    1    5    5    0  503 -0.15176466140E+03  0.28448345061E+03  0.19508929086E+02  0.32302313297E+03  0.00000000000E+00 0.  1.
         -3    1    6    6    0  502  0.23244015508E+03 -0.26718300491E+03 -0.10990400266E+03  0.37080193312E+03  0.00000000000E+00 0.  1.
<mgrwt>
<rscale>  0 0.10550708E+04</rscale>
<asrwt>0</asrwt>
<pdfrwt beam="1">  1        1 0.91346168E-01 0.10550708E+04</pdfrwt>
<pdfrwt beam="2">  1       -1 0.72108445E-01 0.10550708E+04</pdfrwt>
<totfact> 0.67461721E+01</totfact>
</mgrwt>
</event>
<event>
12    1  0.1496989E-007  0.1616870E+04  0.7818608E-02  0.8810251E-01
          2   -1    0    0  501    0  0.00000000000E+00  0.00000000000E+00  0.12175762034E+04  0.12175762034E+04  0.00000000000E+00 0. -1.
         -2   -1    0    0    0  501 -0.00000000000E+00 -0.00000000000E+00 -0.53677731689E+03  0.53677731689E+03  0.00000000000E+00 0.  1.
         23    2    1    2    0    0 -0.52549994165E+03 -0.53429403560E+02  0.55708053084E+02  0.53905448696E+03  0.92040550292E+02 0.  0.
        254    2    1    2    0    0  0.52549994165E+03  0.53429403560E+02  0.62509083339E+03  0.12152990333E+04  0.89844771718E+03 0.  0.
        -24    2    4    4    0    0  0.67615310907E+03 -0.71919409540E+01  0.13659366279E+03  0.69434669058E+03  0.78897066407E+02 0.  0.
         24    2    4    4    0    0 -0.15065316742E+03  0.60621344515E+02  0.48849717060E+03  0.52095234271E+03  0.79940812044E+02 0.  0.
         11    1    3    3    0    0 -0.41467696608E+03 -0.77994566617E+02  0.32535830446E+02  0.42320056578E+03  0.00000000000E+00 0.  1.
        -11    1    3    3    0    0 -0.11082297557E+03  0.24565163056E+02  0.23172222638E+02  0.11585392118E+03  0.00000000000E+00 0. -1.
          4    1    6    6  502    0 -0.87841370970E+02 -0.22617069970E+01  0.29904611463E+03  0.31168862739E+03  0.00000000000E+00 0. -1.
          1    1    5    5  503    0  0.53862510229E+03  0.12797127710E+02  0.81752194803E+02  0.54494420691E+03  0.00000000000E+00 0. -1.
         -2    1    5    5    0  503  0.13752800678E+03 -0.19989068664E+02  0.54841467989E+02  0.14940248367E+03  0.00000000000E+00 0.  1.
         -3    1    6    6    0  502 -0.62811796451E+02  0.62883051511E+02  0.18945105597E+03  0.20926371532E+03  0.00000000000E+00 0.  1.
<mgrwt>
<rscale>  0 0.16168702E+04</rscale>
<asrwt>0</asrwt>
<pdfrwt beam="1">  1        2 0.18731942E+00 0.16168702E+04</pdfrwt>
<pdfrwt beam="2">  1       -2 0.82581126E-01 0.16168702E+04</pdfrwt>
<totfact> 0.22784309E+01</totfact>
</mgrwt>
</event>
<event>
12    1  0.1496989E-007  0.1657126E+04  0.7818608E-02  0.8786202E-01
          2   -1    0    0  501    0  0.00000000000E+00  0.00000000000E+00  0.19224385875E+04  0.19224385875E+04  0.00000000000E+00 0.  1.
         -2   -1    0    0    0  501 -0.00000000000E+00 -0.00000000000E+00 -0.35710705532E+03  0.35710705532E+03  0.00000000000E+00 0. -1.
         23    2    1    2    0    0 -0.44033803999E+02 -0.46586495460E+03  0.11768673014E+03  0.49830490886E+03  0.12445273771E+03 0.  0.
        254    2    1    2    0    0  0.44033803999E+02  0.46586495460E+03  0.14476448020E+04  0.17812407340E+04  0.92637678493E+03 0.  0.
        -24    2    4    4    0    0  0.21050388904E+03  0.37574917174E+02 -0.31012752805E+02  0.23106863887E+03  0.81897273029E+02 0.  0.
         24    2    4    4    0    0 -0.16647008504E+03  0.42829003742E+03  0.14786575548E+04  0.15501720951E+04  0.73896647851E+02 0.  0.
         11    1    3    3    0    0 -0.44057759880E+02 -0.73617573021E+02  0.52764627193E+02  0.10072109583E+03  0.00000000000E+00 0.  1.
        -11    1    3    3    0    0  0.23955880981E-01 -0.39224738157E+03  0.64922102948E+02  0.39758381302E+03  0.00000000000E+00 0. -1.
          4    1    6    6  502    0 -0.64727680291E+02  0.20251730872E+03  0.56952459242E+03  0.60791544996E+03  0.00000000000E+00 0. -1.
          3    1    5    5  503    0  0.22331802739E+02  0.29153903944E+01 -0.32722350557E+02  0.39723559014E+02  0.00000000000E+00 0. -1.
         -2    1    5    5    0  503  0.18817208630E+03  0.34659526779E+02  0.17095977525E+01  0.19134507985E+03  0.00000000000E+00 0.  1.
         -3    1    6    6    0  502 -0.10174240475E+03  0.22577272871E+03  0.90913296242E+03  0.94225664514E+03  0.00000000000E+00 0.  1.
<mgrwt>
<rscale>  0 0.16571257E+04</rscale>
<asrwt>0</asrwt>
<pdfrwt beam="1">  1        2 0.29575978E+00 0.16571257E+04</pdfrwt>
<pdfrwt beam="2">  1       -2 0.54939548E-01 0.16571257E+04</pdfrwt>
<totfact> 0.21952650E+01</totfact>
</mgrwt>
</event>
<event>
12    1  0.1496989E-007  0.1752854E+04  0.7818608E-02  0.8731781E-01
          1   -1    0    0  501    0  0.00000000000E+00  0.00000000000E+00  0.37443599030E+04  0.37443599030E+04  0.00000000000E+00 0. -1.
         -1   -1    0    0    0  501 -0.00000000000E+00 -0.00000000000E+00 -0.20514167920E+03  0.20514167920E+03  0.00000000000E+00 0.  1.
         23    2    1    2    0    0  0.17166124531E+03  0.63653672146E+03  0.11829598509E+04  0.13569972872E+04  0.86029342009E+02 0.  0.
        254    2    1    2    0    0 -0.17166124531E+03 -0.63653672146E+03  0.23562583729E+04  0.25925042950E+04  0.85701716370E+03 0.  0.
        -24    2    4    4    0    0 -0.49736384917E+03 -0.31327022969E+03  0.15779222963E+04  0.16857158418E+04  0.79310094768E+02 0.  0.
         24    2    4    4    0    0  0.32570260386E+03 -0.32326649177E+03  0.77833607660E+03  0.90678845313E+03  0.76647503095E+02 0.  0.
         13    1    3    3    0    0  0.31754029785E+02  0.13630615783E+03  0.18527248631E+03  0.23219298278E+03  0.00000000000E+00 0.  1.
        -13    1    3    3    0    0  0.13990721553E+03  0.50023056363E+03  0.99768736463E+03  0.11248043044E+04  0.00000000000E+00 0. -1.
          4    1    6    6  502    0  0.25372429520E+03 -0.28889596499E+03  0.66588064448E+03  0.76891737479E+03  0.00000000000E+00 0. -1.
          3    1    5    5  503    0 -0.25418412041E+03 -0.11352419052E+03  0.73028143019E+03  0.78154224210E+03  0.00000000000E+00 0. -1.
         -4    1    5    5    0  503 -0.24317972876E+03 -0.19974603917E+03  0.84764086606E+03  0.90417359974E+03  0.00000000000E+00 0.  1.
         -3    1    6    6    0  502  0.71978308665E+02 -0.34370526776E+02  0.11245543212E+03  0.13787107834E+03  0.00000000000E+00 0.  1.
<mgrwt>
<rscale>  0 0.17528540E+04</rscale>
<asrwt>0</asrwt>
<pdfrwt beam="1">  1        1 0.57605532E+00 0.17528540E+04</pdfrwt>
<pdfrwt beam="2">  1       -1 0.31560261E-01 0.17528540E+04</pdfrwt>
<totfact> 0.14155491E+00</totfact>
</mgrwt>
</event>
<event>
12    1  0.1496989E-007  0.1747417E+04  0.7818608E-02  0.8734774E-01
          1   -1    0    0  501    0  0.00000000000E+00  0.00000000000E+00  0.81469697139E+03  0.81469697139E+03  0.00000000000E+00 0. -1.
         -1   -1    0    0    0  501 -0.00000000000E+00 -0.00000000000E+00 -0.93699394070E+03  0.93699394070E+03  0.00000000000E+00 0.  1.
         23    2    1    2    0    0  0.23487008790E+03  0.58432389220E+03 -0.11616695869E+03  0.64701668705E+03  0.92398386578E+02 0.  0.
        254    2    1    2    0    0 -0.23487008790E+03 -0.58432389220E+03 -0.61300106089E+01  0.11046742250E+04  0.90756222776E+03 0.  0.
        -24    2    4    4    0    0 -0.23275172034E+03  0.19236650478E+03  0.73281842282E+02  0.32082317638E+03  0.79868933940E+02 0.  0.
         24    2    4    4    0    0 -0.21183675597E+01 -0.77669039698E+03 -0.79411852891E+02  0.78385104866E+03  0.69740690219E+02 0.  0.
         11    1    3    3    0    0  0.11998448300E+03  0.21989242585E+03 -0.81105201900E+02  0.26330022575E+03  0.00000000000E+00 0. -1.
        -11    1    3    3    0    0  0.11488560490E+03  0.36443146635E+03 -0.35061756795E+02  0.38371646130E+03  0.00000000000E+00 0.  1.
          2    1    6    6  502    0 -0.14291198120E+02 -0.17370923128E+03 -0.43698494770E+02  0.17969055017E+03  0.00000000000E+00 0. -1.
          3    1    5    5  503    0 -0.32436703061E+02  0.67918307404E+02  0.30179326255E+02  0.81091478710E+02  0.00000000000E+00 0. -1.
         -4    1    5    5    0  503 -0.20031501728E+03  0.12444819738E+03  0.43102516027E+02  0.23973169767E+03  0.00000000000E+00 0.  1.
         -1    1    6    6    0  502  0.12172830560E+02 -0.60298116570E+03 -0.35713358122E+02  0.60416049850E+03  0.00000000000E+00 0.  1.
<mgrwt>
<rscale>  0 0.17474165E+04</rscale>
<asrwt>0</asrwt>
<pdfrwt beam="1">  1        1 0.12533800E+00 0.17474165E+04</pdfrwt>
<pdfrwt beam="2">  1       -1 0.14415291E+00 0.17474165E+04</pdfrwt>
<totfact> 0.78976741E+00</totfact>
</mgrwt>
</event>
<event>
12    1  0.1496989E-007  0.1619002E+04  0.7818608E-02  0.8808959E-01
          2   -1    0    0  501    0  0.00000000000E+00  0.00000000000E+00  0.18743289510E+04  0.18743289510E+04  0.00000000000E+00 0. -1.
         -2   -1    0    0    0  501 -0.00000000000E+00 -0.00000000000E+00 -0.34961414227E+03  0.34961414227E+03  0.00000000000E+00 0.  1.
         23    2    1    2    0    0 -0.23408695218E+03 -0.22425926865E+03  0.11444518462E+04  0.11928442229E+04  0.89545469350E+02 0.  0.
        254    2    1    2    0    0  0.23408695218E+03  0.22425926865E+03  0.38026296255E+03  0.10310988704E+04  0.90192906544E+03 0.  0.
        -24    2    4    4    0    0  0.27743423838E+02 -0.34045057555E+03  0.11293240438E+03  0.36926539263E+03  0.83228061858E+02 0.  0.
         24    2    4    4    0    0  0.20634352834E+03  0.56470984419E+03  0.26733055817E+03  0.66183347776E+03  0.71295617901E+02 0.  0.
         11    1    3    3    0    0 -0.12933034825E+03 -0.15358035649E+03  0.83022582283E+03  0.85415934214E+03  0.00000000000E+00 0. -1.
        -11    1    3    3    0    0 -0.10475660393E+03 -0.70678912160E+02  0.31422602339E+03  0.33868488078E+03  0.00000000000E+00 0.  1.
          2    1    6    6  502    0  0.44709627801E+02  0.65139289943E+02  0.50428627775E+02  0.93728994509E+02  0.00000000000E+00 0. -1.
          3    1    5    5  503    0 -0.10256487047E+02 -0.10635461564E+03  0.60671399115E+00  0.10684974448E+03  0.00000000000E+00 0. -1.
         -4    1    5    5    0  503  0.37999910885E+02 -0.23409595991E+03  0.11232569039E+03  0.26241564815E+03  0.00000000000E+00 0.  1.
         -1    1    6    6    0  502  0.16163390054E+03  0.49957055425E+03  0.21690193039E+03  0.56810448325E+03  0.00000000000E+00 0.  1.
<mgrwt>
<rscale>  0 0.16190020E+04</rscale>
<asrwt>0</asrwt>
<pdfrwt beam="1">  1        2 0.28835829E+00 0.16190020E+04</pdfrwt>
<pdfrwt beam="2">  1       -2 0.53786792E-01 0.16190020E+04</pdfrwt>
<totfact> 0.24467421E+01</totfact>
</mgrwt>
</event>
<event>
12    1  0.1496989E-007  0.1452572E+04  0.7818608E-02  0.8916619E-01
         -2   -1    0    0    0  501 -0.00000000000E+00  0.00000000000E+00  0.11754516249E+04  0.11754516249E+04  0.00000000000E+00 0.  1.
          2   -1    0    0  501    0  0.00000000000E+00 -0.00000000000E+00 -0.44875622863E+03  0.44875622863E+03  0.00000000000E+00 0. -1.
         23    2    1    2    0    0 -0.13903160136E+03  0.29962636927E+03  0.55340599607E+03  0.65099290952E+03  0.91803183017E+02 0.  0.
        254    2    1    2    0    0  0.13903160136E+03 -0.29962636927E+03  0.17328940017E+03  0.97321494398E+03  0.89889507933E+03 0.  0.
        -24    2    4    4    0    0  0.75253530699E+02 -0.46335754667E+03  0.43697051341E+03  0.64620063114E+03  0.79175224363E+02 0.  0.
         24    2    4    4    0    0  0.63778070662E+02  0.16373117740E+03 -0.26368111324E+03  0.32701431284E+03  0.80839907072E+02 0.  0.
         13    1    3    3    0    0 -0.11309982191E+03  0.29440622646E+03  0.49587621845E+03  0.58767322545E+03  0.00000000000E+00 0.  1.
        -13    1    3    3    0    0 -0.25931779451E+02  0.52201428180E+01  0.57529777626E+02  0.63319684066E+02  0.00000000000E+00 0. -1.
          4    1    6    6  502    0  0.67733045224E+02  0.15925202616E+03 -0.26843111517E+03  0.31938102142E+03  0.00000000000E+00 0. -1.
          3    1    5    5  503    0  0.73567574694E+02 -0.44912633399E+03  0.39768883261E+03  0.60438651500E+03  0.00000000000E+00 0. -1.
         -4    1    5    5    0  503  0.16859560048E+01 -0.14231212680E+02  0.39281680797E+02  0.41814116136E+02  0.00000000000E+00 0.  1.
         -3    1    6    6    0  502 -0.39549745617E+01  0.44791512390E+01  0.47500019314E+01  0.76332914234E+01  0.00000000000E+00 0.  1.
<mgrwt>
<rscale>  0 0.14525718E+04</rscale>
<asrwt>0</asrwt>
<pdfrwt beam="1">  1        2 0.69039420E-01 0.14525718E+04</pdfrwt>
<pdfrwt beam="2">  1       -2 0.18083871E+00 0.14525718E+04</pdfrwt>
<totfact> 0.12090006E+01</totfact>
</mgrwt>
</event>
<event>
12    1  0.1496989E-007  0.2147131E+04  0.7818608E-02  0.8540761E-01
         -1   -1    0    0    0  501 -0.00000000000E+00  0.00000000000E+00  0.79847486354E+03  0.79847486354E+03  0.00000000000E+00 0.  1.
          1   -1    0    0  501    0  0.00000000000E+00 -0.00000000000E+00 -0.14434301982E+04  0.14434301982E+04  0.00000000000E+00 0. -1.
         23    2    1    2    0    0 -0.58465102205E+03  0.59835741359E+03 -0.54792250672E+03  0.10041645266E+04  0.90988522503E+02 0.  0.
        254    2    1    2    0    0  0.58465102205E+03 -0.59835741359E+03 -0.97032827895E+02  0.12377405350E+04  0.90704897906E+03 0.  0.
        -24    2    4    4    0    0 -0.22578025440E+03 -0.13542589318E+03  0.73526477649E+02  0.28568818737E+03  0.83034340294E+02 0.  0.
         24    2    4    4    0    0  0.81043127645E+03 -0.46293152040E+03 -0.17055930554E+03  0.95205234767E+03  0.78795618924E+02 0.  0.
         11    1    3    3    0    0 -0.43755799014E+03  0.47471197273E+03 -0.38110808087E+03  0.74970115452E+03  0.00000000000E+00 0.  1.
        -11    1    3    3    0    0 -0.14709303191E+03  0.12364544086E+03 -0.16681442585E+03  0.25446337213E+03  0.00000000000E+00 0. -1.
          4    1    6    6  502    0  0.30559692892E+03 -0.13172666946E+03 -0.54350900408E+02  0.33718751280E+03  0.00000000000E+00 0. -1.
          1    1    5    5  503    0  0.54363890396E+01 -0.13560202213E+02  0.22895029216E+01  0.14787671672E+02  0.00000000000E+00 0. -1.
         -2    1    5    5    0  503 -0.23121664344E+03 -0.12186569097E+03  0.71236974728E+02  0.27090051570E+03  0.00000000000E+00 0.  1.
         -3    1    6    6    0  502  0.50483434753E+03 -0.33120485094E+03 -0.11620840514E+03  0.61486483487E+03  0.00000000000E+00 0.  1.
<mgrwt>
<rscale>  0 0.21471309E+04</rscale>
<asrwt>0</asrwt>
<pdfrwt beam="1">  1        1 0.22206619E+00 0.21471309E+04</pdfrwt>
<pdfrwt beam="2">  1       -1 0.12284229E+00 0.21471309E+04</pdfrwt>
<totfact> 0.38338385E+00</totfact>
</mgrwt>
</event>
<event>
12    1  0.1496989E-007  0.1631320E+04  0.7818608E-02  0.8801535E-01
         -2   -1    0    0    0  501 -0.00000000000E+00  0.00000000000E+00  0.29195115329E+03  0.29195115329E+03  0.00000000000E+00 0.  1.
          2   -1    0    0  501    0  0.00000000000E+00 -0.00000000000E+00 -0.22788093390E+04  0.22788093390E+04  0.00000000000E+00 0. -1.
         23    2    1    2    0    0  0.20563879081E+03 -0.51003392788E+03 -0.51327852190E+03  0.75869836432E+03  0.98724095862E+02 0.  0.
        254    2    1    2    0    0 -0.20563879081E+03  0.51003392788E+03 -0.14735796638E+04  0.18120621280E+04  0.89983899125E+03 0.  0.
        -24    2    4    4    0    0  0.33226628477E+03  0.34440330013E+03 -0.71552497452E+03  0.86454973984E+03  0.80347659283E+02 0.  0.
         24    2    4    4    0    0 -0.53790507558E+03  0.16563062776E+03 -0.75805468932E+03  0.94751238817E+03  0.79733547184E+02 0.  0.
         13    1    3    3    0    0  0.12402698983E+03 -0.27936925939E+03 -0.21916571279E+03  0.37611632105E+03  0.00000000000E+00 0. -1.
        -13    1    3    3    0    0  0.81611800979E+02 -0.23066466849E+03 -0.29411280911E+03  0.38258204327E+03  0.00000000000E+00 0.  1.
          4    1    6    6  502    0 -0.15609665100E+03  0.81137948825E+02 -0.26755732135E+03  0.32021313434E+03  0.00000000000E+00 0. -1.
          3    1    5    5  503    0  0.12964897383E+02  0.43453356401E+01 -0.49459906235E+01  0.14540747203E+02  0.00000000000E+00 0. -1.
         -4    1    5    5    0  503  0.31930138739E+03  0.34005796448E+03 -0.71057898390E+03  0.85000899263E+03  0.00000000000E+00 0.  1.
         -3    1    6    6    0  502 -0.38180842458E+03  0.84492678934E+02 -0.49049736797E+03  0.62729925383E+03  0.00000000000E+00 0.  1.
<mgrwt>
<rscale>  0 0.16313197E+04</rscale>
<asrwt>0</asrwt>
<pdfrwt beam="1">  1        2 0.35058606E+00 0.16313197E+04</pdfrwt>
<pdfrwt beam="2">  1       -2 0.44915562E-01 0.16313197E+04</pdfrwt>
<totfact> 0.20979791E+01</totfact>
</mgrwt>
</event>
<event>
12    1  0.1496989E-007  0.1337923E+04  0.7818608E-02  0.9000021E-01
          2   -1    0    0  501    0  0.00000000000E+00  0.00000000000E+00  0.11156346037E+04  0.11156346037E+04  0.00000000000E+00 0. -1.
         -2   -1    0    0    0  501 -0.00000000000E+00 -0.00000000000E+00 -0.40112561900E+03  0.40112561900E+03  0.00000000000E+00 0.  1.
         23    2    1    2    0    0 -0.34755363150E+03  0.63959464806E+02  0.17085388799E+03  0.40324067664E+03  0.92345288732E+02 0.  0.
        254    2    1    2    0    0  0.34755363150E+03 -0.63959464806E+02  0.54365509667E+03  0.11135195460E+04  0.90525166407E+03 0.  0.
        -24    2    4    4    0    0 -0.25301896362E+03  0.15490852436E+03  0.73050321770E+02  0.31584886925E+03  0.80055679545E+02 0.  0.
         24    2    4    4    0    0  0.60057259512E+03 -0.21886798916E+03  0.47060477490E+03  0.79767067676E+03  0.78860736215E+02 0.  0.
         13    1    3    3    0    0 -0.25565721889E+03  0.18877133119E+02  0.15525025339E+03  0.29969918402E+03  0.00000000000E+00 0. -1.
        -13    1    3    3    0    0 -0.91896412617E+02  0.45082331687E+02  0.15603634591E+02  0.10354149262E+03  0.00000000000E+00 0.  1.
          2    1    6    6  502    0  0.17752163376E+03 -0.28017387451E+02  0.14101080502E+03  0.22843588068E+03  0.00000000000E+00 0. -1.
          3    1    5    5  503    0 -0.20129138968E+02  0.16412783602E+02 -0.16151205505E+02  0.30584688006E+02  0.00000000000E+00 0. -1.
         -4    1    5    5    0  503 -0.23288982465E+03  0.13849574075E+03  0.89201527275E+02  0.28526418124E+03  0.00000000000E+00 0.  1.
         -1    1    6    6    0  502  0.42305096136E+03 -0.19085060171E+03  0.32959396988E+03  0.56923479608E+03  0.00000000000E+00 0.  1.
<mgrwt>
<rscale>  0 0.13379232E+04</rscale>
<asrwt>0</asrwt>
<pdfrwt beam="1">  1        2 0.17163609E+00 0.13379232E+04</pdfrwt>
<pdfrwt beam="2">  1       -2 0.61711634E-01 0.13379232E+04</pdfrwt>
<totfact> 0.50826322E+01</totfact>
</mgrwt>
</event>
<event>
12    1  0.1496989E-007  0.2507524E+04  0.7818608E-02  0.8400310E-01
          1   -1    0    0  501    0  0.00000000000E+00  0.00000000000E+00  0.81170481734E+03  0.81170481734E+03  0.00000000000E+00 0. -1.
         -1   -1    0    0    0  501 -0.00000000000E+00 -0.00000000000E+00 -0.19365655778E+04  0.19365655778E+04  0.00000000000E+00 0.  1.
         23    2    1    2    0    0 -0.83352831831E+03 -0.69165688226E+03 -0.60365076375E+03  0.12433907785E+04  0.92020015874E+02 0.  0.
        254    2    1    2    0    0  0.83352831831E+03  0.69165688226E+03 -0.52120999671E+03  0.15048796166E+04  0.90545242816E+03 0.  0.
        -24    2    4    4    0    0  0.80398241420E+03  0.70311583160E+03 -0.10108165365E+03  0.10760089554E+04  0.82572249738E+02 0.  0.
         24    2    4    4    0    0  0.29545904104E+02 -0.11458949337E+02 -0.42012834307E+03  0.42887066122E+03  0.80112117899E+02 0.  0.
         13    1    3    3    0    0 -0.54512073969E+03 -0.43186476479E+03 -0.33972940482E+03  0.77400249639E+03  0.00000000000E+00 0. -1.
        -13    1    3    3    0    0 -0.28840757862E+03 -0.25979211747E+03 -0.26392135893E+03  0.46938828213E+03  0.00000000000E+00 0.  1.
          4    1    6    6  502    0  0.30445080049E+01 -0.34405694161E+02 -0.82656904638E+02  0.89583395247E+02  0.00000000000E+00 0. -1.
          3    1    5    5  503    0  0.66229082495E+03  0.53889539217E+03 -0.67159261804E+02  0.85647402002E+03  0.00000000000E+00 0. -1.
         -4    1    5    5    0  503  0.14169158926E+03  0.16422043942E+03 -0.33922391842E+02  0.21953493539E+03  0.00000000000E+00 0.  1.
         -3    1    6    6    0  502  0.26501396099E+02  0.22946744824E+02 -0.33747143843E+03  0.33928726597E+03  0.00000000000E+00 0.  1.
<mgrwt>
<rscale>  0 0.25075244E+04</rscale>
<asrwt>0</asrwt>
<pdfrwt beam="1">  1        1 0.12487767E+00 0.25075244E+04</pdfrwt>
<pdfrwt beam="2">  1       -1 0.29793316E+00 0.25075244E+04</pdfrwt>
<totfact> 0.65313665E-01</totfact>
</mgrwt>
</event>
<event>
12    1  0.1496989E-007  0.1819816E+04  0.7818608E-02  0.8695832E-01
         -1   -1    0    0    0  501 -0.00000000000E+00  0.00000000000E+00  0.82607843868E+03  0.82607843868E+03  0.00000000000E+00 0.  1.
          1   -1    0    0  501    0  0.00000000000E+00 -0.00000000000E+00 -0.10022449554E+04  0.10022449554E+04  0.00000000000E+00 0. -1.
         23    2    1    2    0    0 -0.53659395745E+03 -0.44919404556E+02 -0.53838012000E+03  0.76688486337E+03  0.91150490813E+02 0.  0.
        254    2    1    2    0    0  0.53659395745E+03  0.44919404556E+02  0.36221360324E+03  0.10614385307E+04  0.83994180281E+03 0.  0.
        -24    2    4    4    0    0  0.71878063359E+03  0.12470741244E+02  0.43809461466E+03  0.84581852758E+03  0.81737210519E+02 0.  0.
         24    2    4    4    0    0 -0.18218667614E+03  0.32448663311E+02 -0.75881011421E+02  0.21562000317E+03  0.80555304984E+02 0.  0.
         13    1    3    3    0    0 -0.14724609705E+03 -0.22993698059E+02 -0.20742960377E+03  0.25541566860E+03  0.00000000000E+00 0.  1.
        -13    1    3    3    0    0 -0.38934786040E+03 -0.21925706497E+02 -0.33095051624E+03  0.51146919477E+03  0.00000000000E+00 0. -1.
          2    1    6    6  502    0 -0.16317395918E+03 -0.11311803286E+01 -0.63425938785E+02  0.17507104339E+03  0.00000000000E+00 0. -1.
          1    1    5    5  503    0  0.62875659064E+03  0.30632747495E+02  0.40328946942E+03  0.74760658881E+03  0.00000000000E+00 0. -1.
         -2    1    5    5    0  503  0.90024042955E+02 -0.18162006251E+02  0.34805145244E+02  0.98211938767E+02  0.00000000000E+00 0.  1.
         -1    1    6    6    0  502 -0.19012716958E+02  0.33579843640E+02 -0.12455072636E+02  0.40548959782E+02  0.00000000000E+00 0.  1.
<mgrwt>
<rscale>  0 0.18198164E+04</rscale>
<asrwt>0</asrwt>
<pdfrwt beam="1">  1        1 0.15419153E+00 0.18198164E+04</pdfrwt>
<pdfrwt beam="2">  1       -1 0.12708899E+00 0.18198164E+04</pdfrwt>
<totfact> 0.76232743E+00</totfact>
</mgrwt>
</event>
<event>
12    1  0.1496989E-007  0.1478924E+04  0.7818608E-02  0.8898590E-01
         -3   -1    0    0    0  501 -0.00000000000E+00  0.00000000000E+00  0.96575533043E+03  0.96575533043E+03  0.00000000000E+00 0.  1.
          3   -1    0    0  501    0  0.00000000000E+00 -0.00000000000E+00 -0.56619312935E+03  0.56619312935E+03  0.00000000000E+00 0. -1.
         23    2    1    2    0    0  0.22868934817E+03  0.20186989223E+03  0.48082875244E+03  0.57689540016E+03  0.92529682777E+02 0.  0.
        254    2    1    2    0    0 -0.22868934817E+03 -0.20186989223E+03 -0.81266551358E+02  0.95505305962E+03  0.90137218892E+03 0.  0.
        -24    2    4    4    0    0 -0.17675513101E+03  0.34416632502E+03 -0.66995117363E+02  0.40062643510E+03  0.79500686366E+02 0.  0.
         24    2    4    4    0    0 -0.51934217159E+02 -0.54603621724E+03 -0.14271433994E+02  0.55442662452E+03  0.79576973421E+02 0.  0.
         13    1    3    3    0    0  0.59720065273E+02  0.59100641282E+01  0.89153114958E+02  0.10746949782E+03  0.00000000000E+00 0. -1.
        -13    1    3    3    0    0  0.16896928290E+03  0.19595982810E+03  0.39167563748E+03  0.46942590234E+03  0.00000000000E+00 0.  1.
          4    1    6    6  502    0 -0.14823765568E+02 -0.40541447123E+03  0.15471609723E+02  0.40598030520E+03  0.00000000000E+00 0. -1.
          3    1    5    5  503    0 -0.17325441593E+03  0.32310072659E+03 -0.80506499041E+02  0.37535645532E+03  0.00000000000E+00 0. -1.
         -4    1    5    5    0  503 -0.35007150875E+01  0.21065598423E+02  0.13511381677E+02  0.25269979776E+02  0.00000000000E+00 0.  1.
         -3    1    6    6    0  502 -0.37110451591E+02 -0.14062174602E+03 -0.29743043717E+02  0.14844631932E+03  0.00000000000E+00 0.  1.
<mgrwt>
<rscale>  0 0.14789240E+04</rscale>
<asrwt>0</asrwt>
<pdfrwt beam="1">  1        3 0.87106635E-01 0.14789240E+04</pdfrwt>
<pdfrwt beam="2">  1       -3 0.14857774E+00 0.14789240E+04</pdfrwt>
<totfact> 0.10069838E+00</totfact>
</mgrwt>
</event>
<event>
12    1  0.1496989E-007  0.2684427E+04  0.7818608E-02  0.8340075E-01
         -2   -1    0    0    0  501 -0.00000000000E+00  0.00000000000E+00  0.19596191255E+04  0.19596191255E+04  0.00000000000E+00 0.  1.
          2   -1    0    0  501    0  0.00000000000E+00 -0.00000000000E+00 -0.91933052633E+03  0.91933052633E+03  0.00000000000E+00 0. -1.
         23    2    1    2    0    0 -0.16889100883E+03 -0.11940823918E+04  0.32848353078E+03  0.12524691784E+04  0.80129154911E+02 0.  0.
        254    2    1    2    0    0  0.16889100883E+03  0.11940823918E+04  0.71180506842E+03  0.16264804735E+04  0.82729398877E+03 0.  0.
        -24    2    4    4    0    0 -0.28166252514E+03  0.46953343814E+03  0.49589341854E+03  0.74281425388E+03  0.77892911187E+02 0.  0.
         24    2    4    4    0    0  0.45055353397E+03  0.72454895368E+03  0.21591164988E+03  0.88366621960E+03  0.79236821334E+02 0.  0.
         13    1    3    3    0    0 -0.41217125173E+02 -0.13061612083E+03  0.25280132890E+02  0.13927852507E+03  0.00000000000E+00 0.  1.
        -13    1    3    3    0    0 -0.12767388366E+03 -0.10634662710E+04  0.30320339789E+03  0.11131906533E+04  0.00000000000E+00 0. -1.
          4    1    6    6  502    0  0.36935823490E+03  0.53016202767E+03  0.16799460902E+03  0.66762225092E+03  0.00000000000E+00 0. -1.
          1    1    5    5  503    0 -0.18265251744E+03  0.34960912434E+03  0.31912827401E+03  0.50737691830E+03  0.00000000000E+00 0. -1.
         -2    1    5    5    0  503 -0.99010007693E+02  0.11992431380E+03  0.17676514452E+03  0.23543733558E+03  0.00000000000E+00 0.  1.
         -3    1    6    6    0  502  0.81195299067E+02  0.19438692602E+03  0.47917040859E+02  0.21604396868E+03  0.00000000000E+00 0.  1.
<mgrwt>
<rscale>  0 0.26844274E+04</rscale>
<asrwt>0</asrwt>
<pdfrwt beam="1">  1        2 0.14143547E+00 0.26844274E+04</pdfrwt>
<pdfrwt beam="2">  1       -2 0.30147986E+00 0.26844274E+04</pdfrwt>
<totfact> 0.77806449E-01</totfact>
</mgrwt>
</event>
<event>
12    1  0.1496989E-007  0.1328645E+04  0.7818608E-02  0.9007153E-01
          1   -1    0    0  501    0  0.00000000000E+00  0.00000000000E+00  0.27693340453E+04  0.27693340453E+04  0.00000000000E+00 0. -1.
         -1   -1    0    0    0  501 -0.00000000000E+00 -0.00000000000E+00 -0.15936121136E+03  0.15936121136E+03  0.00000000000E+00 0.  1.
         23    2    1    2    0    0  0.14536663534E+03 -0.82503550216E+02  0.50280588957E+02  0.19673083765E+03  0.90755663127E+02 0.  0.
        254    2    1    2    0    0 -0.14536663534E+03  0.82503550216E+02  0.25596922450E+04  0.27319644190E+04  0.94003558618E+03 0.  0.
        -24    2    4    4    0    0 -0.39946264741E+03  0.33544286658E+03  0.10115108862E+04  0.11408814882E+04  0.79774518513E+02 0.  0.
         24    2    4    4    0    0  0.25409601207E+03 -0.25293931637E+03  0.15481813588E+04  0.15910829308E+04  0.78334487580E+02 0.  0.
         11    1    3    3    0    0 -0.10522234900E+02 -0.18653795844E+02  0.93662890915E+01  0.23375390864E+02  0.00000000000E+00 0. -1.
        -11    1    3    3    0    0  0.15588887024E+03 -0.63849754371E+02  0.40914299866E+02  0.17335544679E+03  0.00000000000E+00 0.  1.
          2    1    6    6  502    0  0.98130430541E+02 -0.12016609630E+03  0.51789919764E+03  0.54063763374E+03  0.00000000000E+00 0. -1.
          1    1    5    5  503    0 -0.38132452753E+03  0.33553904237E+03  0.99036627916E+03  0.11130230057E+04  0.00000000000E+00 0. -1.
         -2    1    5    5    0  503 -0.18138119873E+02 -0.96175788039E-01  0.21144607078E+02  0.27858482564E+02  0.00000000000E+00 0.  1.
         -1    1    6    6    0  502  0.15596558153E+03 -0.13277322007E+03  0.10302821611E+04  0.10504452971E+04  0.00000000000E+00 0.  1.
<mgrwt>
<rscale>  0 0.13286451E+04</rscale>
<asrwt>0</asrwt>
<pdfrwt beam="1">  1        1 0.42605136E+00 0.13286451E+04</pdfrwt>
<pdfrwt beam="2">  1       -1 0.24517112E-01 0.13286451E+04</pdfrwt>
<totfact> 0.12529805E+01</totfact>
</mgrwt>
</event>
<event>
12    1  0.1496989E-007  0.1993401E+04  0.7818608E-02  0.8609712E-01
         -3   -1    0    0    0  501 -0.00000000000E+00  0.00000000000E+00  0.10318958593E+04  0.10318958593E+04  0.00000000000E+00 0.  1.
          3   -1    0    0  501    0  0.00000000000E+00 -0.00000000000E+00 -0.96270568097E+03  0.96270568097E+03  0.00000000000E+00 0. -1.
         23    2    1    2    0    0 -0.20239290971E+03 -0.42451477845E+03 -0.60642643398E+03  0.77295664025E+03  0.92375650748E+02 0.  0.
        254    2    1    2    0    0  0.20239290971E+03  0.42451477845E+03  0.67561661234E+03  0.12216449000E+04  0.90265318253E+03 0.  0.
        -24    2    4    4    0    0  0.40755431175E+03 -0.39484439263E+02  0.62470125898E+02  0.42165752933E+03  0.78949461270E+02 0.  0.
         24    2    4    4    0    0 -0.20516140204E+03  0.46399921772E+03  0.61314648644E+03  0.79998737072E+03  0.81515057222E+02 0.  0.
         11    1    3    3    0    0 -0.50692041387E+01  0.37800348222E+01 -0.16806992062E+02  0.17957184524E+02  0.00000000000E+00 0.  1.
        -11    1    3    3    0    0 -0.19732370557E+03 -0.42829481327E+03 -0.58961944192E+03  0.75499945573E+03  0.00000000000E+00 0. -1.
          4    1    6    6  502    0 -0.11872187661E+03  0.19874951616E+03  0.32385558644E+03  0.39809382691E+03  0.00000000000E+00 0. -1.
          3    1    5    5  503    0  0.65026526260E+02 -0.36218698726E+02  0.92794659334E+01  0.75009011078E+02  0.00000000000E+00 0. -1.
         -4    1    5    5    0  503  0.34252778549E+03 -0.32657405373E+01  0.53190659965E+02  0.34664851825E+03  0.00000000000E+00 0.  1.
         -3    1    6    6    0  502 -0.86439525438E+02  0.26524970155E+03  0.28929090000E+03  0.40189354381E+03  0.00000000000E+00 0.  1.
<mgrwt>
<rscale>  0 0.19934011E+04</rscale>
<asrwt>0</asrwt>
<pdfrwt beam="1">  1        3 0.14810857E+00 0.19934011E+04</pdfrwt>
<pdfrwt beam="2">  1       -3 0.15875321E+00 0.19934011E+04</pdfrwt>
<totfact> 0.22570080E-01</totfact>
</mgrwt>
</event>
<event>
12    1  0.1496989E-007  0.1650859E+04  0.7818608E-02  0.8789899E-01
         -1   -1    0    0    0  501 -0.00000000000E+00  0.00000000000E+00  0.60418663805E+03  0.60418663805E+03  0.00000000000E+00 0.  1.
          1   -1    0    0  501    0  0.00000000000E+00 -0.00000000000E+00 -0.11276875177E+04  0.11276875177E+04  0.00000000000E+00 0. -1.
         23    2    1    2    0    0  0.12778311341E+03  0.41886251251E+03  0.20624865220E+03  0.49186949296E+03  0.87308436642E+02 0.  0.
        254    2    1    2    0    0 -0.12778311341E+03 -0.41886251251E+03 -0.72974953187E+03  0.12400046628E+04  0.90183305334E+03 0.  0.
        -24    2    4    4    0    0 -0.32845449035E+03 -0.46262240324E+03 -0.11117434862E+03  0.58376791089E+03  0.80767553984E+02 0.  0.
         24    2    4    4    0    0  0.20067137694E+03  0.43759890733E+02 -0.61857518325E+03  0.65623675194E+03  0.76337983317E+02 0.  0.
         13    1    3    3    0    0  0.83264873580E+02  0.24597759463E+03  0.75035820173E+02  0.27031165447E+03  0.00000000000E+00 0.  1.
        -13    1    3    3    0    0  0.44518239831E+02  0.17288491788E+03  0.13121283202E+03  0.22155783849E+03  0.00000000000E+00 0. -1.
          4    1    6    6  502    0  0.40000360582E+01  0.19888108284E+02 -0.43633094312E+02  0.48118437827E+02  0.00000000000E+00 0. -1.
          1    1    5    5  503    0 -0.11063856173E+02 -0.18590558967E+02  0.11278266184E+02  0.24397071223E+02  0.00000000000E+00 0. -1.
         -2    1    5    5    0  503 -0.31739063418E+03 -0.44403184428E+03 -0.12245261480E+03  0.55937083967E+03  0.00000000000E+00 0.  1.
         -3    1    6    6    0  502  0.19667134088E+03  0.23871782448E+02 -0.57494208894E+03  0.60811831411E+03  0.00000000000E+00 0.  1.
<mgrwt>
<rscale>  0 0.16508588E+04</rscale>
<asrwt>0</asrwt>
<pdfrwt beam="1">  1        1 0.17349039E+00 0.16508588E+04</pdfrwt>
<pdfrwt beam="2">  1       -1 0.92951791E-01 0.16508588E+04</pdfrwt>
<totfact> 0.12986774E+01</totfact>
</mgrwt>
</event>
<event>
12    1  0.1496989E-007  0.1262783E+04  0.7818608E-02  0.9059611E-01
          2   -1    0    0  501    0  0.00000000000E+00  0.00000000000E+00  0.34711913360E+04  0.34711913360E+04  0.00000000000E+00 0. -1.
         -2   -1    0    0    0  501 -0.00000000000E+00 -0.00000000000E+00 -0.11484673763E+03  0.11484673763E+03  0.00000000000E+00 0.  1.
         23    2    1    2    0    0 -0.12072823782E+03 -0.28879332822E+01  0.16487475847E+04  0.16555058020E+04  0.88018265117E+02 0.  0.
        254    2    1    2    0    0  0.12072823782E+03  0.28879332822E+01  0.17075970137E+04  0.19305322716E+04  0.89245932287E+03 0.  0.
        -24    2    4    4    0    0  0.43020438953E+03 -0.23348890723E+03  0.10684860024E+04  0.11779126356E+04  0.78885697482E+02 0.  0.
         24    2    4    4    0    0 -0.30947615171E+03  0.23637684051E+03  0.63911101131E+03  0.75261963600E+03  0.79523157018E+02 0.  0.
         13    1    3    3    0    0 -0.11489449471E+03  0.11991646965E+02  0.16008410743E+04  0.16050036417E+04  0.00000000000E+00 0. -1.
        -13    1    3    3    0    0 -0.58337431131E+01 -0.14879580247E+02  0.47906510370E+02  0.50502160378E+02  0.00000000000E+00 0.  1.
          4    1    6    6  502    0 -0.28800321886E+03  0.22814106762E+03  0.55635284899E+03  0.66672535079E+03  0.00000000000E+00 0. -1.
          1    1    5    5  503    0  0.41494034292E+03 -0.23968216185E+03  0.10376502631E+04  0.11429527967E+04  0.00000000000E+00 0. -1.
         -2    1    5    5    0  503  0.15264046607E+02  0.61932546249E+01  0.30835739262E+02  0.34959838922E+02  0.00000000000E+00 0.  1.
         -3    1    6    6    0  502 -0.21472932845E+02  0.82357728940E+01  0.82758162317E+02  0.85894285202E+02  0.00000000000E+00 0.  1.
<mgrwt>
<rscale>  0 0.12627826E+04</rscale>
<asrwt>0</asrwt>
<pdfrwt beam="1">  1        2 0.53402936E+00 0.12627826E+04</pdfrwt>
<pdfrwt beam="2">  1       -2 0.17668731E-01 0.12627826E+04</pdfrwt>
<totfact> 0.22691160E+01</totfact>
</mgrwt>
</event>
<event>
12    1  0.1496989E-007  0.1247030E+04  0.7818608E-02  0.9072659E-01
         -1   -1    0    0    0  501 -0.00000000000E+00  0.00000000000E+00  0.18555587484E+03  0.18555587484E+03  0.00000000000E+00 0.  1.
          1   -1    0    0  501    0  0.00000000000E+00 -0.00000000000E+00 -0.20951682247E+04  0.20951682247E+04  0.00000000000E+00 0. -1.
         23    2    1    2    0    0  0.12954588184E+03  0.16081754081E+01  0.12652016602E+02  0.15703275630E+03  0.87832176881E+02 0.  0.
        254    2    1    2    0    0 -0.12954588184E+03 -0.16081754081E+01 -0.19222643665E+04  0.21236913432E+04  0.89340914761E+03 0.  0.
        -24    2    4    4    0    0 -0.40301868550E+03  0.28323009794E+03 -0.10184740402E+04  0.11340820574E+04  0.78799703210E+02 0.  0.
         24    2    4    4    0    0  0.27347280365E+03 -0.28483827335E+03 -0.90379032632E+03  0.98960928584E+03  0.81051640114E+02 0.  0.
         11    1    3    3    0    0  0.54554355949E+02  0.29020177779E+02 -0.27529325452E+02  0.67647706769E+02  0.00000000000E+00 0. -1.
        -11    1    3    3    0    0  0.74991525896E+02 -0.27412002370E+02  0.40181342054E+02  0.89385049530E+02  0.00000000000E+00 0.  1.
          2    1    6    6  502    0  0.10561774273E+03 -0.16565744515E+03 -0.41071868914E+03  0.45528819260E+03  0.00000000000E+00 0. -1.
          3    1    5    5  503    0 -0.18753812803E+03  0.17966966828E+03 -0.52136053370E+03  0.58246763452E+03  0.00000000000E+00 0. -1.
         -4    1    5    5    0  503 -0.21548055746E+03  0.10356042967E+03 -0.49711350645E+03  0.55161442288E+03  0.00000000000E+00 0.  1.
         -1    1    6    6    0  502  0.16785506092E+03 -0.11918082820E+03 -0.49307163718E+03  0.53432109324E+03  0.00000000000E+00 0.  1.
<mgrwt>
<rscale>  0 0.12470297E+04</rscale>
<asrwt>0</asrwt>
<pdfrwt beam="1">  1        1 0.32233358E+00 0.12470297E+04</pdfrwt>
<pdfrwt beam="2">  1       -1 0.28547057E-01 0.12470297E+04</pdfrwt>
<totfact> 0.28253815E+01</totfact>
</mgrwt>
</event>
<event>
12    1  0.1496989E-007  0.1244734E+04  0.7818608E-02  0.9074577E-01
          1   -1    0    0  501    0  0.00000000000E+00  0.00000000000E+00  0.32467285185E+03  0.32467285185E+03  0.00000000000E+00 0. -1.
         -1   -1    0    0    0  501 -0.00000000000E+00 -0.00000000000E+00 -0.11930188583E+04  0.11930188583E+04  0.00000000000E+00 0.  1.
         23    2    1    2    0    0 -0.59454430844E+02  0.26528963510E+03 -0.40273736778E+03  0.49319515366E+03  0.84443190078E+02 0.  0.
        254    2    1    2    0    0  0.59454430844E+02 -0.26528963510E+03 -0.46560863864E+03  0.10244965565E+04  0.87114199186E+03 0.  0.
        -24    2    4    4    0    0  0.24134541506E+03  0.22170137182E+03 -0.24922012359E+02  0.33828966177E+03  0.80122911363E+02 0.  0.
         24    2    4    4    0    0 -0.18189098421E+03 -0.48699100692E+03 -0.44068662628E+03  0.68620689469E+03  0.80191201389E+02 0.  0.
         13    1    3    3    0    0 -0.76081613858E+02  0.22093850379E+03 -0.36120834885E+03  0.43020193596E+03  0.00000000000E+00 0.  1.
        -13    1    3    3    0    0  0.16627183014E+02  0.44351131302E+02 -0.41529018933E+02  0.62993217700E+02  0.00000000000E+00 0. -1.
          2    1    6    6  502    0 -0.13837976865E+03 -0.33097419367E+03 -0.34695786721E+03  0.49907177727E+03  0.00000000000E+00 0. -1.
          1    1    5    5  503    0  0.73591962961E+02  0.74738153237E+02  0.29033431633E+02  0.10883248005E+03  0.00000000000E+00 0. -1.
         -2    1    5    5    0  503  0.16775345210E+03  0.14696321858E+03 -0.53955443992E+02  0.22945718172E+03  0.00000000000E+00 0.  1.
         -1    1    6    6    0  502 -0.43511215562E+02 -0.15601681324E+03 -0.93728759074E+02  0.18713511742E+03  0.00000000000E+00 0.  1.
<mgrwt>
<rscale>  0 0.12447342E+04</rscale>
<asrwt>0</asrwt>
<pdfrwt beam="1">  1        1 0.49949670E-01 0.12447342E+04</pdfrwt>
<pdfrwt beam="2">  1       -1 0.18354136E+00 0.12447342E+04</pdfrwt>
<totfact> 0.15310169E+01</totfact>
</mgrwt>
</event>
<event>
12    1  0.1496989E-007  0.2211496E+04  0.7818608E-02  0.8513658E-01
          1   -1    0    0  501    0  0.00000000000E+00  0.00000000000E+00  0.12832750093E+04  0.12832750093E+04  0.00000000000E+00 0. -1.
         -1   -1    0    0    0  501 -0.00000000000E+00 -0.00000000000E+00 -0.95278009299E+03  0.95278009299E+03  0.00000000000E+00 0.  1.
         23    2    1    2    0    0 -0.83034337760E+03 -0.39081597230E+03  0.16717567526E+03  0.93730325203E+03  0.91555616635E+02 0.  0.
        254    2    1    2    0    0  0.83034337760E+03  0.39081597230E+03  0.16331924105E+03  0.12987518503E+04  0.90436494023E+03 0.  0.
        -24    2    4    4    0    0  0.16332138485E+03  0.49609660382E+03 -0.15185937582E+03  0.54937297415E+03  0.77224864082E+02 0.  0.
         24    2    4    4    0    0  0.66702199275E+03 -0.10528063152E+03  0.31517861686E+03  0.74937887611E+03  0.78922678839E+02 0.  0.
         13    1    3    3    0    0 -0.24316317307E+03 -0.78570855529E+02  0.71971758002E+02  0.26548378863E+03  0.00000000000E+00 0. -1.
        -13    1    3    3    0    0 -0.58718020453E+03 -0.31224511677E+03  0.95203917259E+02  0.67181946340E+03  0.00000000000E+00 0.  1.
          4    1    6    6  502    0  0.39226759063E+03 -0.99128099645E+02  0.20108436939E+03  0.45181319858E+03  0.00000000000E+00 0. -1.
          3    1    5    5  503    0  0.13400783802E+01  0.16615257537E+02  0.81811282147E+01  0.18568614702E+02  0.00000000000E+00 0. -1.
         -4    1    5    5    0  503  0.16198130647E+03  0.47948134628E+03 -0.16004050403E+03  0.53080435945E+03  0.00000000000E+00 0.  1.
         -3    1    6    6    0  502  0.27475440213E+03 -0.61525318730E+01  0.11409424748E+03  0.29756567753E+03  0.00000000000E+00 0.  1.
<mgrwt>
<rscale>  0 0.22114962E+04</rscale>
<asrwt>0</asrwt>
<pdfrwt beam="1">  1        1 0.19742692E+00 0.22114962E+04</pdfrwt>
<pdfrwt beam="2">  1       -1 0.14658155E+00 0.22114962E+04</pdfrwt>
<totfact> 0.31440186E+00</totfact>
</mgrwt>
</event>
<event>
12    1  0.1496989E-007  0.1247705E+04  0.7818608E-02  0.9072096E-01
          1   -1    0    0  501    0  0.00000000000E+00  0.00000000000E+00  0.26749036378E+04  0.26749036378E+04  0.00000000000E+00 0. -1.
         -1   -1    0    0    0  501 -0.00000000000E+00 -0.00000000000E+00 -0.14549745537E+03  0.14549745537E+03  0.00000000000E+00 0.  1.
         23    2    1    2    0    0 -0.48283930316E+02  0.94407908122E+01  0.12592922211E+04  0.12635814209E+04  0.91655019303E+02 0.  0.
        254    2    1    2    0    0  0.48283930316E+02 -0.94407908122E+01  0.12701139613E+04  0.15568196723E+04  0.89893133823E+03 0.  0.
        -24    2    4    4    0    0  0.11536633474E+03  0.20916565436E+03 -0.11216747238E+02  0.25275033989E+03  0.81836768896E+02 0.  0.
         24    2    4    4    0    0 -0.67082404429E+02 -0.21860644517E+03  0.12813307086E+04  0.13040693324E+04  0.80620172103E+02 0.  0.
         13    1    3    3    0    0 -0.71875367990E+02 -0.44285799254E+01  0.71916200969E+03  0.72275838081E+03  0.00000000000E+00 0. -1.
        -13    1    3    3    0    0  0.23591437675E+02  0.13869370738E+02  0.54013021141E+03  0.54082304005E+03  0.00000000000E+00 0.  1.
          4    1    6    6  502    0 -0.51075413133E+02 -0.48627260883E+02  0.31794926217E+03  0.32567628352E+03  0.00000000000E+00 0. -1.
          3    1    5    5  503    0 -0.10883396901E+02  0.42396876087E+01  0.11649531780E+01  0.11737989395E+02  0.00000000000E+00 0. -1.
         -4    1    5    5    0  503  0.12624973165E+03  0.20492596675E+03 -0.12381700416E+02  0.24101235050E+03  0.00000000000E+00 0.  1.
         -3    1    6    6    0  502 -0.16006991296E+02 -0.16997918428E+03  0.96338144641E+03  0.97839304891E+03  0.00000000000E+00 0.  1.
<mgrwt>
<rscale>  0 0.12477046E+04</rscale>
<asrwt>0</asrwt>
<pdfrwt beam="1">  1        1 0.41152360E+00 0.12477046E+04</pdfrwt>
<pdfrwt beam="2">  1       -1 0.22384226E-01 0.12477046E+04</pdfrwt>
<totfact> 0.17180713E+01</totfact>
</mgrwt>
</event>
<event>
12    1  0.1496989E-007  0.1962226E+04  0.7818608E-02  0.8624488E-01
          2   -1    0    0  501    0  0.00000000000E+00  0.00000000000E+00  0.46972958303E+04  0.46972958303E+04  0.00000000000E+00 0. -1.
         -2   -1    0    0    0  501 -0.00000000000E+00 -0.00000000000E+00 -0.20492264922E+03  0.20492264922E+03  0.00000000000E+00 0.  1.
         23    2    1    2    0    0  0.71667272365E+03  0.16144098105E+03  0.11922079406E+04  0.14034415237E+04  0.92765045066E+02 0.  0.
        254    2    1    2    0    0 -0.71667272365E+03 -0.16144098105E+03  0.33001652405E+04  0.34987769558E+04  0.90037025107E+03 0.  0.
        -24    2    4    4    0    0 -0.34509649283E+03 -0.76922661412E+02  0.29577162863E+04  0.29797862140E+04  0.77663154454E+02 0.  0.
         24    2    4    4    0    0 -0.37157623082E+03 -0.84518319640E+02  0.34244895419E+03  0.51899074187E+03  0.82872566351E+02 0.  0.
         13    1    3    3    0    0  0.68462608582E+03  0.16913486669E+03  0.11124498679E+04  0.13171424331E+04  0.00000000000E+00 0.  1.
        -13    1    3    3    0    0  0.32046637830E+02 -0.76938856413E+01  0.79758072715E+02  0.86299090584E+02  0.00000000000E+00 0. -1.
          4    1    6    6  502    0 -0.31174753985E+03 -0.10136947835E+03  0.28705576358E+03  0.43573307328E+03  0.00000000000E+00 0. -1.
          3    1    5    5  503    0 -0.20765625845E+03 -0.91195145957E+01  0.15985409209E+04  0.16119979413E+04  0.00000000000E+00 0. -1.
         -4    1    5    5    0  503 -0.13744023439E+03 -0.67803146817E+02  0.13591753654E+04  0.13677882726E+04  0.00000000000E+00 0.  1.
         -3    1    6    6    0  502 -0.59828690969E+02  0.16851158711E+02  0.55393190613E+02  0.83257668591E+02  0.00000000000E+00 0.  1.
<mgrwt>
<rscale>  0 0.19622256E+04</rscale>
<asrwt>0</asrwt>
<pdfrwt beam="1">  1        2 0.72266082E+00 0.19622256E+04</pdfrwt>
<pdfrwt beam="2">  1       -2 0.31526565E-01 0.19622256E+04</pdfrwt>
<totfact> 0.68681403E-01</totfact>
</mgrwt>
</event>
<event>
12    1  0.1496989E-007  0.1348761E+04  0.7818608E-02  0.8991767E-01
         -2   -1    0    0    0  501 -0.00000000000E+00  0.00000000000E+00  0.27383477416E+03  0.27383477416E+03  0.00000000000E+00 0.  1.
          2   -1    0    0  501    0  0.00000000000E+00 -0.00000000000E+00 -0.16608147213E+04  0.16608147213E+04  0.00000000000E+00 0. -1.
         23    2    1    2    0    0 -0.37919419802E+02  0.22234114932E+03  0.19414323481E+02  0.24431599651E+03  0.91869043293E+02 0.  0.
        254    2    1    2    0    0  0.37919419802E+02 -0.22234114932E+03 -0.14063942707E+04  0.16903334990E+04  0.91016977767E+03 0.  0.
        -24    2    4    4    0    0 -0.24183178168E+02  0.31674932709E+02  0.11438144301E+03  0.14509927826E+03  0.79890916752E+02 0.  0.
         24    2    4    4    0    0  0.62102597970E+02 -0.25401608203E+03 -0.15207757137E+04  0.15452342207E+04  0.81296512970E+02 0.  0.
         11    1    3    3    0    0 -0.23740384367E+02  0.22189521530E+03  0.31884930041E+02  0.22542790685E+03  0.00000000000E+00 0. -1.
        -11    1    3    3    0    0 -0.14179035435E+02  0.44593401861E+00 -0.12470606560E+02  0.18888089660E+02  0.00000000000E+00 0.  1.
          4    1    6    6  502    0 -0.13228218819E+02 -0.27921563466E+02 -0.10179315474E+03  0.10637878468E+03  0.00000000000E+00 0. -1.
          1    1    5    5  503    0 -0.20721508158E+02 -0.24954283423E+02  0.45072458201E+02  0.55530384924E+02  0.00000000000E+00 0. -1.
         -2    1    5    5    0  503 -0.34616700097E+01  0.56629216133E+02  0.69308984805E+02  0.89568893338E+02  0.00000000000E+00 0.  1.
         -3    1    6    6    0  502  0.75330816788E+02 -0.22609451856E+03 -0.14189825589E+04  0.14388554360E+04  0.00000000000E+00 0.  1.
<mgrwt>
<rscale>  0 0.13487607E+04</rscale>
<asrwt>0</asrwt>
<pdfrwt beam="1">  1        2 0.25550995E+00 0.13487607E+04</pdfrwt>
<pdfrwt beam="2">  1       -2 0.42128427E-01 0.13487607E+04</pdfrwt>
<totfact> 0.53785808E+01</totfact>
</mgrwt>
</event>
<event>
12    1  0.1496989E-007  0.1814781E+04  0.7818608E-02  0.8698478E-01
         -1   -1    0    0    0  501 -0.00000000000E+00  0.00000000000E+00  0.13457002828E+04  0.13457002828E+04  0.00000000000E+00 0.  1.
          1   -1    0    0  501    0  0.00000000000E+00 -0.00000000000E+00 -0.61184346609E+03  0.61184346609E+03  0.00000000000E+00 0. -1.
         23    2    1    2    0    0  0.41142163915E+03 -0.24976042591E+03 -0.23579165325E+03  0.54388208658E+03  0.92530994007E+02 0.  0.
        254    2    1    2    0    0 -0.41142163915E+03  0.24976042591E+03  0.96964846992E+03  0.14136616623E+04  0.90916065941E+03 0.  0.
        -24    2    4    4    0    0 -0.16190971409E+03  0.56526670444E+03  0.71853815790E+03  0.93191945144E+03  0.80222047808E+02 0.  0.
         24    2    4    4    0    0 -0.24951192506E+03 -0.31550627853E+03  0.25111031202E+03  0.48174221082E+03  0.84963264687E+02 0.  0.
         11    1    3    3    0    0  0.28437005027E+03 -0.15400228530E+03 -0.11179180291E+03  0.34217018656E+03  0.00000000000E+00 0.  1.
        -11    1    3    3    0    0  0.12705158888E+03 -0.95758140606E+02 -0.12399985033E+03  0.20171190003E+03  0.00000000000E+00 0. -1.
          4    1    6    6  502    0 -0.90300012949E+02 -0.17789487413E+03  0.14043489078E+03  0.24397261553E+03  0.00000000000E+00 0. -1.
          1    1    5    5  503    0 -0.15731074579E+03  0.51560097866E+03  0.62074402341E+03  0.82214000178E+03  0.00000000000E+00 0. -1.
         -2    1    5    5    0  503 -0.45989683024E+01  0.49665725778E+02  0.97794134486E+02  0.10977944965E+03  0.00000000000E+00 0.  1.
         -3    1    6    6    0  502 -0.15921191211E+03 -0.13761140440E+03  0.11067542125E+03  0.23776959530E+03  0.00000000000E+00 0.  1.
<mgrwt>
<rscale>  0 0.18147814E+04</rscale>
<asrwt>0</asrwt>
<pdfrwt beam="1">  1        1 0.94129764E-01 0.18147814E+04</pdfrwt>
<pdfrwt beam="2">  1       -1 0.20703081E+00 0.18147814E+04</pdfrwt>
<totfact> 0.42245827E+00</totfact>
</mgrwt>
</event>
<event>
12    1  0.1496989E-007  0.3741334E+04  0.7818608E-02  0.8058863E-01
          2   -1    0    0  501    0  0.00000000000E+00  0.00000000000E+00  0.26125540328E+04  0.26125540328E+04  0.00000000000E+00 0. -1.
         -2   -1    0    0    0  501 -0.00000000000E+00 -0.00000000000E+00 -0.13394538862E+04  0.13394538862E+04  0.00000000000E+00 0.  1.
         23    2    1    2    0    0  0.15833689584E+04  0.29316959827E+02 -0.20354751433E+03  0.15992229898E+04  0.90365025863E+02 0.  0.
        254    2    1    2    0    0 -0.15833689584E+04 -0.29316959827E+02  0.14766476609E+04  0.23527849291E+04  0.92043026117E+03 0.  0.
        -24    2    4    4    0    0 -0.15740710605E+04  0.16256408344E+03  0.11216853995E+04  0.19412847168E+04  0.79255484028E+02 0.  0.
         24    2    4    4    0    0 -0.92978979682E+01 -0.19188104327E+03  0.35496226140E+03  0.41150021230E+03  0.80183739209E+02 0.  0.
         13    1    3    3    0    0  0.14427729507E+04  0.15615074173E+02 -0.16168383154E+03  0.14518881772E+04  0.00000000000E+00 0.  1.
        -13    1    3    3    0    0  0.14059600774E+03  0.13701885655E+02 -0.41863682796E+02  0.14733481259E+03  0.00000000000E+00 0. -1.
          2    1    6    6  502    0  0.43525662806E+01 -0.18892567913E+03  0.29813722537E+03  0.35298394046E+03  0.00000000000E+00 0. -1.
          3    1    5    5  503    0 -0.13111700684E+04  0.13934590195E+03  0.89777742950E+03  0.15951766490E+04  0.00000000000E+00 0. -1.
         -4    1    5    5    0  503 -0.26290099211E+03  0.23218181498E+02  0.22390796998E+03  0.34610806784E+03  0.00000000000E+00 0.  1.
         -1    1    6    6    0  502 -0.13650464249E+02 -0.29553641442E+01  0.56825036022E+02  0.58516271842E+02  0.00000000000E+00 0.  1.
<mgrwt>
<rscale>  0 0.37413343E+04</rscale>
<asrwt>0</asrwt>
<pdfrwt beam="1">  1        2 0.40193139E+00 0.37413343E+04</pdfrwt>
<pdfrwt beam="2">  1       -2 0.20606983E+00 0.37413343E+04</pdfrwt>
<totfact> 0.29260128E-01</totfact>
</mgrwt>
</event>
<event>
12    1  0.1496989E-007  0.2150434E+04  0.7818608E-02  0.8539346E-01
         -1   -1    0    0    0  501 -0.00000000000E+00  0.00000000000E+00  0.83433576106E+03  0.83433576106E+03  0.00000000000E+00 0.  1.
          1   -1    0    0  501    0  0.00000000000E+00 -0.00000000000E+00 -0.13856431739E+04  0.13856431739E+04  0.00000000000E+00 0. -1.
         23    2    1    2    0    0  0.53117994273E+03  0.30635968316E+03  0.42822468632E+03  0.75340307644E+03  0.90727209803E+02 0.  0.
        254    2    1    2    0    0 -0.53117994273E+03 -0.30635968316E+03 -0.97953209918E+03  0.14665758585E+04  0.90296911823E+03 0.  0.
        -24    2    4    4    0    0 -0.35413218721E+03 -0.46849362760E+02 -0.10694012731E+04  0.11304383596E+04  0.81653739250E+02 0.  0.
         24    2    4    4    0    0 -0.17704775552E+03 -0.25951032040E+03  0.89869173884E+02  0.33613749897E+03  0.78869738614E+02 0.  0.
         13    1    3    3    0    0  0.49230613934E+03  0.29201119035E+03  0.36865800522E+03  0.68084109374E+03  0.00000000000E+00 0.  1.
        -13    1    3    3    0    0  0.38873803395E+02  0.14348492809E+02  0.59566681100E+02  0.72561982701E+02  0.00000000000E+00 0. -1.
          2    1    6    6  502    0 -0.48938629412E+01 -0.36459837438E+02 -0.83985900852E+01  0.37733353362E+02  0.00000000000E+00 0. -1.
          3    1    5    5  503    0 -0.83448058986E+01  0.11237713938E+02 -0.68005571126E+02  0.69431114813E+02  0.00000000000E+00 0. -1.
         -4    1    5    5    0  503 -0.34578738132E+03 -0.58087076698E+02 -0.10013957019E+04  0.10610072448E+04  0.00000000000E+00 0.  1.
         -1    1    6    6    0  502 -0.17215389258E+03 -0.22305048296E+03  0.98267763970E+02  0.29840414561E+03  0.00000000000E+00 0.  1.
<mgrwt>
<rscale>  0 0.21504341E+04</rscale>
<asrwt>0</asrwt>
<pdfrwt beam="1">  1        1 0.21317587E+00 0.21504341E+04</pdfrwt>
<pdfrwt beam="2">  1       -1 0.12835935E+00 0.21504341E+04</pdfrwt>
<totfact> 0.37708111E+00</totfact>
</mgrwt>
</event>
<event>
12    1  0.1496989E-007  0.1418656E+04  0.7818608E-02  0.8940424E-01
          2   -1    0    0  501    0  0.00000000000E+00  0.00000000000E+00  0.20234582080E+04  0.20234582080E+04  0.00000000000E+00 0. -1.
         -2   -1    0    0    0  501 -0.00000000000E+00 -0.00000000000E+00 -0.24865671258E+03  0.24865671258E+03  0.00000000000E+00 0.  1.
         23    2    1    2    0    0  0.23162536828E+03 -0.32800852379E+03  0.72388676133E+03  0.83280233449E+03  0.91147036169E+02 0.  0.
        254    2    1    2    0    0 -0.23162536828E+03  0.32800852379E+03  0.10509147341E+04  0.14393125861E+04  0.89775221484E+03 0.  0.
        -24    2    4    4    0    0 -0.53124867120E+03  0.28386562090E+03  0.43162759050E+03  0.74527499425E+03  0.79546205480E+02 0.  0.
         24    2    4    4    0    0  0.29962330292E+03  0.44142902895E+02  0.61928714362E+03  0.69403759186E+03  0.80305000670E+02 0.  0.
         11    1    3    3    0    0  0.14272279135E+03 -0.20597408716E+03  0.53665429003E+03  0.59227776150E+03  0.00000000000E+00 0. -1.
        -11    1    3    3    0    0  0.88902576925E+02 -0.12203443663E+03  0.18723247129E+03  0.24052457300E+03  0.00000000000E+00 0.  1.
          2    1    6    6  502    0  0.56920868971E+02 -0.56183600021E+01  0.63097912713E+02  0.85163947080E+02  0.00000000000E+00 0. -1.
          1    1    5    5  503    0 -0.71281655426E+02  0.25399729058E+02  0.85915711290E+02  0.11448899547E+03  0.00000000000E+00 0. -1.
         -2    1    5    5    0  503 -0.45996701577E+03  0.25846589184E+03  0.34571187921E+03  0.63078599879E+03  0.00000000000E+00 0.  1.
         -1    1    6    6    0  502  0.24270243395E+03  0.49761262897E+02  0.55618923091E+03  0.60887364478E+03  0.00000000000E+00 0.  1.
<mgrwt>
<rscale>  0 0.14186564E+04</rscale>
<asrwt>0</asrwt>
<pdfrwt beam="1">  1        2 0.31130125E+00 0.14186564E+04</pdfrwt>
<pdfrwt beam="2">  1       -2 0.38254880E-01 0.14186564E+04</pdfrwt>
<totfact> 0.40688397E+01</totfact>
</mgrwt>
</event>
<event>
12    1  0.1496989E-007  0.1701402E+04  0.7818608E-02  0.8760565E-01
         -2   -1    0    0    0  501 -0.00000000000E+00  0.00000000000E+00  0.22263685249E+03  0.22263685249E+03  0.00000000000E+00 0. -1.
          2   -1    0    0  501    0  0.00000000000E+00 -0.00000000000E+00 -0.32505517003E+04  0.32505517003E+04  0.00000000000E+00 0.  1.
         23    2    1    2    0    0 -0.30464646115E+03  0.53580856957E+03 -0.12008816926E+04  0.13536738302E+04  0.10205738399E+03 0.  0.
        254    2    1    2    0    0  0.30464646115E+03 -0.53580856957E+03 -0.18270331552E+04  0.21195147225E+04  0.87999557910E+03 0.  0.
        -24    2    4    4    0    0 -0.30129994871E+03 -0.11620276363E+03 -0.55409261502E+03  0.64641209343E+03  0.80902578079E+02 0.  0.
         24    2    4    4    0    0  0.60594640986E+03 -0.41960580593E+03 -0.12729405402E+04  0.14731026291E+04  0.80085285662E+02 0.  0.
         13    1    3    3    0    0 -0.24585482505E+03  0.45137036720E+03 -0.10712424214E+04  0.11881667092E+04  0.00000000000E+00 0.  1.
        -13    1    3    3    0    0 -0.58791636099E+02  0.84438202367E+02 -0.12963927115E+03  0.16550712105E+03  0.00000000000E+00 0. -1.
          2    1    6    6  502    0  0.20781031341E+03 -0.10505547824E+03 -0.43891772030E+03  0.49686068979E+03  0.00000000000E+00 0. -1.
          3    1    5    5  503    0 -0.58628673847E+02 -0.28377109886E+02 -0.18428401387E+03  0.19545633663E+03  0.00000000000E+00 0. -1.
         -4    1    5    5    0  503 -0.24267127487E+03 -0.87825653746E+02 -0.36980860115E+03  0.45095575680E+03  0.00000000000E+00 0.  1.
         -1    1    6    6    0  502  0.39813609645E+03 -0.31455032769E+03 -0.83402281990E+03  0.97624193931E+03  0.00000000000E+00 0.  1.
<mgrwt>
<rscale>  0 0.17014025E+04</rscale>
<asrwt>0</asrwt>
<pdfrwt beam="1">  1        2 0.50008481E+00 0.17014025E+04</pdfrwt>
<pdfrwt beam="2">  1       -2 0.34251828E-01 0.17014025E+04</pdfrwt>
<totfact> 0.91910436E+00</totfact>
</mgrwt>
</event>
<event>
12    1  0.1496989E-007  0.2680471E+04  0.7818608E-02  0.8341369E-01
          2   -1    0    0  501    0  0.00000000000E+00  0.00000000000E+00  0.32926617792E+04  0.32926617792E+04  0.00000000000E+00 0.  1.
         -2   -1    0    0    0  501 -0.00000000000E+00 -0.00000000000E+00 -0.54552555134E+03  0.54552555134E+03  0.00000000000E+00 0. -1.
         23    2    1    2    0    0  0.53405453099E+03  0.92574433699E+03  0.19548305427E+04  0.22297802176E+04  0.91326602211E+02 0.  0.
        254    2    1    2    0    0 -0.53405453099E+03 -0.92574433699E+03  0.79230568510E+03  0.16084071130E+04  0.90388512700E+03 0.  0.
        -24    2    4    4    0    0 -0.12417781336E+03 -0.84479707798E+03  0.81446584938E+03  0.11827084179E+04  0.79638870708E+02 0.  0.
         24    2    4    4    0    0 -0.40987671763E+03 -0.80947259005E+02 -0.22160164282E+02  0.42569869502E+03  0.78593407274E+02 0.  0.
         13    1    3    3    0    0  0.52835345339E+01  0.45358610131E+02  0.83174982095E+02  0.94886231333E+02  0.00000000000E+00 0. -1.
        -13    1    3    3    0    0  0.52877099646E+03  0.88038572686E+03  0.18716555606E+04  0.21348939862E+04  0.00000000000E+00 0.  1.
          2    1    6    6  502    0 -0.83380360972E+00 -0.66754991853E+01  0.60008090985E+01  0.90148337572E+01  0.00000000000E+00 0. -1.
          1    1    5    5  503    0 -0.25565974129E+02 -0.20001580819E+03  0.14772800295E+03  0.24996700865E+03  0.00000000000E+00 0. -1.
         -2    1    5    5    0  503 -0.98611839233E+02 -0.64478126979E+03  0.66673784643E+03  0.93274140927E+03  0.00000000000E+00 0.  1.
         -1    1    6    6    0  502 -0.40904291402E+03 -0.74271759819E+02 -0.28160973380E+02  0.41668386127E+03  0.00000000000E+00 0.  1.
<mgrwt>
<rscale>  0 0.26804710E+04</rscale>
<asrwt>0</asrwt>
<pdfrwt beam="1">  1        2 0.50656334E+00 0.26804710E+04</pdfrwt>
<pdfrwt beam="2">  1       -2 0.83927010E-01 0.26804710E+04</pdfrwt>
<totfact> 0.12276342E+00</totfact>
</mgrwt>
</event>
<event>
12    1  0.1496989E-007  0.1499721E+04  0.7818608E-02  0.8884639E-01
         -1   -1    0    0    0  501 -0.00000000000E+00  0.00000000000E+00  0.30643390806E+03  0.30643390806E+03  0.00000000000E+00 0.  1.
          1   -1    0    0  501    0  0.00000000000E+00 -0.00000000000E+00 -0.18349485271E+04  0.18349485271E+04  0.00000000000E+00 0. -1.
         23    2    1    2    0    0  0.41934420708E+03 -0.12283729421E+03 -0.24110679457E+03  0.50678328994E+03  0.88080938438E+02 0.  0.
        254    2    1    2    0    0 -0.41934420708E+03  0.12283729421E+03 -0.12874078245E+04  0.16345991452E+04  0.90750035490E+03 0.  0.
        -24    2    4    4    0    0  0.26570932710E+03 -0.45709201916E+02 -0.50320707056E+03  0.57668124591E+03  0.81566695906E+02 0.  0.
         24    2    4    4    0    0 -0.68505353418E+03  0.16854649613E+03 -0.78420075391E+03  0.10579178993E+04  0.80704356574E+02 0.  0.
         11    1    3    3    0    0  0.41279953786E+03 -0.10385398099E+03 -0.22949270258E+03  0.48358660896E+03  0.00000000000E+00 0. -1.
        -11    1    3    3    0    0  0.65446692191E+01 -0.18983313218E+02 -0.11614091992E+02  0.23196680985E+02  0.00000000000E+00 0.  1.
          4    1    6    6  502    0 -0.51347139094E+03  0.89840630489E+02 -0.57073582707E+03  0.77295769128E+03  0.00000000000E+00 0. -1.
          3    1    5    5  503    0  0.90379031893E+02  0.22389404862E+02 -0.18272967039E+03  0.20508482951E+03  0.00000000000E+00 0. -1.
         -4    1    5    5    0  503  0.17533029520E+03 -0.68098606778E+02 -0.32047740017E+03  0.37159641640E+03  0.00000000000E+00 0.  1.
         -3    1    6    6    0  502 -0.17158214324E+03  0.78705865637E+02 -0.21346492684E+03  0.28496020802E+03  0.00000000000E+00 0.  1.
<mgrwt>
<rscale>  0 0.14997206E+04</rscale>
<asrwt>0</asrwt>
<pdfrwt beam="1">  1        1 0.28229978E+00 0.14997206E+04</pdfrwt>
<pdfrwt beam="2">  1       -1 0.47143678E-01 0.14997206E+04</pdfrwt>
<totfact> 0.16748826E+01</totfact>
</mgrwt>
</event>
<event>
12    1  0.1496989E-007  0.1808285E+04  0.7818608E-02  0.8701906E-01
          2   -1    0    0  501    0  0.00000000000E+00  0.00000000000E+00  0.90926698477E+03  0.90926698477E+03  0.00000000000E+00 0. -1.
         -2   -1    0    0    0  501 -0.00000000000E+00 -0.00000000000E+00 -0.89904658158E+03  0.89904658158E+03  0.00000000000E+00 0.  1.
         23    2    1    2    0    0  0.30479595393E+03  0.54812745225E+03 -0.25440388273E+03  0.68352629434E+03  0.95616850258E+02 0.  0.
        254    2    1    2    0    0 -0.30479595393E+03 -0.54812745225E+03  0.26462428593E+03  0.11247872720E+04  0.89541952019E+03 0.  0.
        -24    2    4    4    0    0  0.70555626845E+02 -0.45953370178E+03  0.48209310055E+03  0.67457816798E+03  0.80576842667E+02 0.  0.
         24    2    4    4    0    0 -0.37535158078E+03 -0.88593750477E+02 -0.21746881462E+03  0.45020910403E+03  0.81595895772E+02 0.  0.
         13    1    3    3    0    0  0.13398754073E+03  0.31811684657E+03 -0.10732914752E+03  0.36148379639E+03  0.00000000000E+00 0. -1.
        -13    1    3    3    0    0  0.17080841320E+03  0.23001060568E+03 -0.14707473522E+03  0.32204249795E+03  0.00000000000E+00 0.  1.
          4    1    6    6  502    0 -0.21753776737E+03 -0.91470131376E+02 -0.12063164604E+03  0.26503105326E+03  0.00000000000E+00 0. -1.
          3    1    5    5  503    0  0.73851805413E+02 -0.23000728879E+03  0.26588342891E+03  0.35923730294E+03  0.00000000000E+00 0. -1.
         -4    1    5    5    0  503 -0.32961785676E+01 -0.22952641299E+03  0.21620967164E+03  0.31534086504E+03  0.00000000000E+00 0.  1.
         -3    1    6    6    0  502 -0.15781381340E+03  0.28763808995E+01 -0.96837168584E+02  0.18517805077E+03  0.00000000000E+00 0.  1.
<mgrwt>
<rscale>  0 0.18082847E+04</rscale>
<asrwt>0</asrwt>
<pdfrwt beam="1">  1        2 0.13988723E+00 0.18082847E+04</pdfrwt>
<pdfrwt beam="2">  1       -2 0.13831486E+00 0.18082847E+04</pdfrwt>
<totfact> 0.10104645E+01</totfact>
</mgrwt>
</event>
<event>
12    1  0.1496989E-007  0.1333611E+04  0.7818608E-02  0.9003328E-01
          1   -1    0    0  501    0  0.00000000000E+00  0.00000000000E+00  0.14877025495E+04  0.14877025495E+04  0.00000000000E+00 0. -1.
         -1   -1    0    0    0  501 -0.00000000000E+00 -0.00000000000E+00 -0.29887000059E+03  0.29887000059E+03  0.00000000000E+00 0.  1.
         23    2    1    2    0    0  0.61603662439E+02 -0.60901461565E+02 -0.13463355893E+03  0.18327691158E+03  0.89220131586E+02 0.  0.
        254    2    1    2    0    0 -0.61603662439E+02  0.60901461565E+02  0.13234661078E+04  0.16032956385E+04  0.90082760096E+03 0.  0.
        -24    2    4    4    0    0  0.26840310049E+03  0.47852277635E+02  0.51102814178E+02  0.28607739717E+03  0.69990818899E+02 0.  0.
         24    2    4    4    0    0 -0.33000676293E+03  0.13049183930E+02  0.12723632937E+04  0.13172182414E+04  0.84147486572E+02 0.  0.
         11    1    3    3    0    0  0.33572711902E+02 -0.15423013347E+01 -0.12917609333E+00  0.33608367475E+02  0.00000000000E+00 0. -1.
        -11    1    3    3    0    0  0.28030950537E+02 -0.59359160230E+02 -0.13450438284E+03  0.14966854410E+03  0.00000000000E+00 0.  1.
          4    1    6    6  502    0 -0.16644905662E+03  0.98450482251E+01  0.80399678488E+03  0.82110477013E+03  0.00000000000E+00 0. -1.
          1    1    5    5  503    0  0.22600619446E+03  0.56895346966E+02  0.22500710605E+02  0.23414133001E+03  0.00000000000E+00 0. -1.
         -2    1    5    5    0  503  0.42396906026E+02 -0.90430693307E+01  0.28602103573E+02  0.51936067162E+02  0.00000000000E+00 0.  1.
         -3    1    6    6    0  502 -0.16355770631E+03  0.32041357047E+01  0.46836650878E+03  0.49611347122E+03  0.00000000000E+00 0.  1.
<mgrwt>
<rscale>  0 0.13336111E+04</rscale>
<asrwt>0</asrwt>
<pdfrwt beam="1">  1        1 0.22887731E+00 0.13336111E+04</pdfrwt>
<pdfrwt beam="2">  1       -1 0.45980001E-01 0.13336111E+04</pdfrwt>
<totfact> 0.30750680E+01</totfact>
</mgrwt>
</event>
<event>
12    1  0.1496989E-007  0.2235511E+04  0.7818608E-02  0.8503791E-01
          1   -1    0    0  501    0  0.00000000000E+00  0.00000000000E+00  0.97932714148E+03  0.97932714148E+03  0.00000000000E+00 0. -1.
         -1   -1    0    0    0  501 -0.00000000000E+00 -0.00000000000E+00 -0.12757510910E+04  0.12757510910E+04  0.00000000000E+00 0.  1.
         23    2    1    2    0    0  0.62967633043E+03  0.36187711664E+03  0.46616399601E+03  0.86813844408E+03  0.94383040096E+02 0.  0.
        254    2    1    2    0    0 -0.62967633043E+03 -0.36187711664E+03 -0.76258794552E+03  0.13869397884E+04  0.90255984473E+03 0.  0.
        -24    2    4    4    0    0  0.21657074392E+03 -0.16271542312E+03 -0.24035606280E+03  0.36971981612E+03  0.74448032004E+02 0.  0.
         24    2    4    4    0    0 -0.84624707435E+03 -0.19916169352E+03 -0.52223188272E+03  0.10172199723E+04  0.78808893117E+02 0.  0.
         11    1    3    3    0    0  0.60847808433E+03  0.32549083915E+03  0.43467659065E+03  0.81555723523E+03  0.00000000000E+00 0. -1.
        -11    1    3    3    0    0  0.21198246100E+02  0.36386277490E+02  0.31487405362E+02  0.52581208846E+02  0.00000000000E+00 0.  1.
          4    1    6    6  502    0 -0.10462940807E+03 -0.46685891436E+02 -0.50915663552E+02  0.12537659386E+03  0.00000000000E+00 0. -1.
          1    1    5    5  503    0  0.15482392094E+02 -0.13976430707E+02  0.26081879726E+01  0.21020174233E+02  0.00000000000E+00 0. -1.
         -2    1    5    5    0  503  0.20108835183E+03 -0.14873899241E+03 -0.24296425077E+03  0.34869964189E+03  0.00000000000E+00 0.  1.
         -3    1    6    6    0  502 -0.74161766628E+03 -0.15247580209E+03 -0.47131621917E+03  0.89184337841E+03  0.00000000000E+00 0.  1.
<mgrwt>
<rscale>  0 0.22355113E+04</rscale>
<asrwt>0</asrwt>
<pdfrwt beam="1">  1        1 0.15066571E+00 0.22355113E+04</pdfrwt>
<pdfrwt beam="2">  1       -1 0.19626940E+00 0.22355113E+04</pdfrwt>
<totfact> 0.22805272E+00</totfact>
</mgrwt>
</event>
<event>
12    1  0.1496989E-007  0.2601745E+04  0.7818608E-02  0.8367609E-01
         -1   -1    0    0    0  501 -0.00000000000E+00  0.00000000000E+00  0.13887073609E+04  0.13887073609E+04  0.00000000000E+00 0.  1.
          1   -1    0    0  501    0  0.00000000000E+00 -0.00000000000E+00 -0.12185930833E+04  0.12185930833E+04  0.00000000000E+00 0. -1.
         23    2    1    2    0    0  0.24397902884E+03 -0.37619225176E+03 -0.97822904594E+03  0.10798440221E+04  0.89914786848E+02 0.  0.
        254    2    1    2    0    0 -0.24397902884E+03  0.37619225176E+03  0.11483433235E+04  0.15274564221E+04  0.90187823788E+03 0.  0.
        -24    2    4    4    0    0 -0.31910970170E+03  0.29446589800E+03  0.77672124316E+02  0.44834564823E+03  0.80247707658E+02 0.  0.
         24    2    4    4    0    0  0.75130672856E+02  0.81726353752E+02  0.10706711992E+04  0.10791107739E+04  0.76285192421E+02 0.  0.
         13    1    3    3    0    0  0.20643286714E+03 -0.25089484940E+03 -0.65510109796E+03  0.73124565136E+03  0.00000000000E+00 0.  1.
        -13    1    3    3    0    0  0.37546161700E+02 -0.12529740236E+03 -0.32312794798E+03  0.34859837071E+03  0.00000000000E+00 0. -1.
          2    1    6    6  502    0  0.40604251705E+02  0.90153614396E+02  0.75577134874E+03  0.76221172323E+03  0.00000000000E+00 0. -1.
          3    1    5    5  503    0 -0.28432709636E+03  0.25307915730E+03  0.40623213062E+02  0.38280700494E+03  0.00000000000E+00 0. -1.
         -4    1    5    5    0  503 -0.34782605336E+02  0.41386740701E+02  0.37048911253E+02  0.65538643294E+02  0.00000000000E+00 0.  1.
         -1    1    6    6    0  502  0.34526421152E+02 -0.84272606439E+01  0.31489985047E+03  0.31689905065E+03  0.00000000000E+00 0.  1.
<mgrwt>
<rscale>  0 0.26017449E+04</rscale>
<asrwt>0</asrwt>
<pdfrwt beam="1">  1        1 0.18747586E+00 0.26017449E+04</pdfrwt>
<pdfrwt beam="2">  1       -1 0.21364729E+00 0.26017449E+04</pdfrwt>
<totfact> 0.11075853E+00</totfact>
</mgrwt>
</event>
<event>
12    1  0.1496989E-007  0.1661830E+04  0.7818608E-02  0.8783439E-01
          2   -1    0    0  501    0  0.00000000000E+00  0.00000000000E+00  0.23841988708E+04  0.23841988708E+04  0.00000000000E+00 0. -1.
         -2   -1    0    0    0  501 -0.00000000000E+00 -0.00000000000E+00 -0.28958132680E+03  0.28958132680E+03  0.00000000000E+00 0.  1.
         23    2    1    2    0    0 -0.33787628270E+03  0.31731694689E+03  0.13081519282E+04  0.13897801634E+04  0.73328083998E+02 0.  0.
        254    2    1    2    0    0  0.33787628270E+03 -0.31731694689E+03  0.78646561580E+03  0.12840000343E+04  0.90292718201E+03 0.  0.
        -24    2    4    4    0    0 -0.11861170115E+03 -0.40971057468E+03  0.66839421173E+03  0.79693291269E+03  0.80123369936E+02 0.  0.
         24    2    4    4    0    0  0.45648798384E+03  0.92393627789E+02  0.11807140408E+03  0.48706712159E+03  0.79847746535E+02 0.  0.
         11    1    3    3    0    0 -0.12345690357E+03  0.69882848795E+02  0.39908143627E+03  0.42354599794E+03  0.00000000000E+00 0.  1.
        -11    1    3    3    0    0 -0.21441937912E+03  0.24743409810E+03  0.90907049197E+03  0.96623416542E+03  0.00000000000E+00 0. -1.
          2    1    6    6  502    0  0.62497973740E+02  0.27184361640E+02  0.43390421650E+02  0.80794275356E+02  0.00000000000E+00 0. -1.
          1    1    5    5  503    0  0.47546811590E+01 -0.10389264033E+03  0.14936886720E+03  0.18200919262E+03  0.00000000000E+00 0. -1.
         -2    1    5    5    0  503 -0.12336638231E+03 -0.30581793435E+03  0.51902534453E+03  0.61492372008E+03  0.00000000000E+00 0.  1.
         -1    1    6    6    0  502  0.39399001010E+03  0.65209266149E+02  0.74680982426E+02  0.40627284624E+03  0.00000000000E+00 0.  1.
<mgrwt>
<rscale>  0 0.16618297E+04</rscale>
<asrwt>0</asrwt>
<pdfrwt beam="1">  1        2 0.36679981E+00 0.16618297E+04</pdfrwt>
<pdfrwt beam="2">  1       -2 0.44550975E-01 0.16618297E+04</pdfrwt>
<totfact> 0.18534425E+01</totfact>
</mgrwt>
</event>
<event>
12    1  0.1496989E-007  0.1538647E+04  0.7818608E-02  0.8859152E-01
          2   -1    0    0  501    0  0.00000000000E+00  0.00000000000E+00  0.32222190119E+03  0.32222190119E+03  0.00000000000E+00 0. -1.
         -2   -1    0    0    0  501 -0.00000000000E+00 -0.00000000000E+00 -0.18368038810E+04  0.18368038810E+04  0.00000000000E+00 0.  1.
         23    2    1    2    0    0 -0.21232129935E+03 -0.79882716116E+02 -0.11387864617E+04  0.11647853239E+04  0.91807749882E+02 0.  0.
        254    2    1    2    0    0  0.21232129935E+03  0.79882716116E+02 -0.37579551810E+03  0.99424045828E+03  0.89209317617E+03 0.  0.
        -24    2    4    4    0    0  0.48233014769E+02  0.26084091824E+03  0.21451414587E+03  0.35016197814E+03  0.78947348381E+02 0.  0.
         24    2    4    4    0    0  0.16408828458E+03 -0.18095820213E+03 -0.59030966397E+03  0.64407848013E+03  0.81858128146E+02 0.  0.
         13    1    3    3    0    0 -0.19029805109E+03 -0.45439768103E+02 -0.80165474972E+03  0.82518389376E+03  0.00000000000E+00 0.  1.
        -13    1    3    3    0    0 -0.22023248254E+02 -0.34442948012E+02 -0.33713171199E+03  0.33960143015E+03  0.00000000000E+00 0. -1.
          2    1    6    6  502    0  0.61213656151E+02 -0.90964697621E+02 -0.17172189507E+03  0.20374026887E+03  0.00000000000E+00 0. -1.
          3    1    5    5  503    0  0.16593935563E+02  0.35276638012E+02  0.70849749480E+02  0.80867093977E+02  0.00000000000E+00 0. -1.
         -4    1    5    5    0  503  0.31639079207E+02  0.22556428023E+03  0.14366439639E+03  0.26929488417E+03  0.00000000000E+00 0.  1.
         -1    1    6    6    0  502  0.10287462843E+03 -0.89993504505E+02 -0.41858776890E+03  0.44033821126E+03  0.00000000000E+00 0.  1.
<mgrwt>
<rscale>  0 0.15386467E+04</rscale>
<asrwt>0</asrwt>
<pdfrwt beam="1">  1        2 0.49572600E-01 0.15386467E+04</pdfrwt>
<pdfrwt beam="2">  1       -2 0.28258521E+00 0.15386467E+04</pdfrwt>
<totfact> 0.39749734E+00</totfact>
</mgrwt>
</event>
<event>
12    1  0.1496989E-007  0.1363481E+04  0.7818608E-02  0.8980685E-01
          1   -1    0    0  501    0  0.00000000000E+00  0.00000000000E+00  0.16147972939E+04  0.16147972939E+04  0.00000000000E+00 0. -1.
         -1   -1    0    0    0  501 -0.00000000000E+00 -0.00000000000E+00 -0.28781947613E+03  0.28781947613E+03  0.00000000000E+00 0.  1.
         23    2    1    2    0    0 -0.18170521526E+03 -0.74538880572E+02 -0.67524496584E+02  0.22723543400E+03  0.92214721469E+02 0.  0.
        254    2    1    2    0    0  0.18170521526E+03  0.74538880572E+02  0.13945023144E+04  0.16753813361E+04  0.90757538885E+03 0.  0.
        -24    2    4    4    0    0 -0.36624352213E+02  0.44804109623E+03  0.48507725571E+03  0.66559157578E+03  0.75033556860E+02 0.  0.
         24    2    4    4    0    0  0.21832956747E+03 -0.37350221566E+03  0.90942505867E+03  0.10097897603E+04  0.73822201967E+02 0.  0.
         11    1    3    3    0    0 -0.10325619350E+03 -0.80416948191E+02 -0.13004824579E+02  0.13152130061E+03  0.00000000000E+00 0.  1.
        -11    1    3    3    0    0 -0.78449021762E+02  0.58780676198E+01 -0.54519672005E+02  0.95714133386E+02  0.00000000000E+00 0. -1.
          2    1    6    6  502    0  0.22089438395E+02 -0.49840249356E+02  0.68034909416E+02  0.87182238120E+02  0.00000000000E+00 0. -1.
          3    1    5    5  503    0 -0.19156941713E+02  0.24939762597E+03  0.32358388213E+03  0.40898984465E+03  0.00000000000E+00 0. -1.
         -4    1    5    5    0  503 -0.17467410501E+02  0.19864347026E+03  0.16149337358E+03  0.25660173113E+03  0.00000000000E+00 0.  1.
         -1    1    6    6    0  502  0.19624012908E+03 -0.32366196630E+03  0.84139014925E+03  0.92260752216E+03  0.00000000000E+00 0.  1.
<mgrwt>
<rscale>  0 0.13634810E+04</rscale>
<asrwt>0</asrwt>
<pdfrwt beam="1">  1        1 0.24843035E+00 0.13634810E+04</pdfrwt>
<pdfrwt beam="2">  1       -1 0.44279920E-01 0.13634810E+04</pdfrwt>
<totfact> 0.26902790E+01</totfact>
</mgrwt>
</event>
<event>
12    1  0.1496989E-007  0.2992393E+04  0.7818608E-02  0.8245907E-01
          1   -1    0    0  501    0  0.00000000000E+00  0.00000000000E+00  0.22082840104E+04  0.22082840104E+04  0.00000000000E+00 0. -1.
         -1   -1    0    0    0  501 -0.00000000000E+00 -0.00000000000E+00 -0.10137298700E+04  0.10137298700E+04  0.00000000000E+00 0.  1.
         23    2    1    2    0    0  0.46677957185E+03  0.86798550978E+03  0.15517727709E+04  0.18402077278E+04  0.84164928400E+02 0.  0.
        254    2    1    2    0    0 -0.46677957185E+03 -0.86798550978E+03 -0.35721863053E+03  0.13818061526E+04  0.90027833444E+03 0.  0.
        -24    2    4    4    0    0  0.20712767586E+03 -0.43183520627E+03 -0.30520411514E+03  0.57334530618E+03  0.78687792840E+02 0.  0.
         24    2    4    4    0    0 -0.67390724770E+03 -0.43615030351E+03 -0.52014515391E+02  0.80846084641E+03  0.80779728944E+02 0.  0.
         11    1    3    3    0    0  0.40188967004E+03  0.76744075192E+03  0.13115309067E+04  0.15718123087E+04  0.00000000000E+00 0. -1.
        -11    1    3    3    0    0  0.64889901803E+02  0.10054475786E+03  0.24024186415E+03  0.26839541907E+03  0.00000000000E+00 0.  1.
          2    1    6    6  502    0 -0.21330073450E+03 -0.18362457532E+03 -0.22254165429E+02  0.28233036656E+03  0.00000000000E+00 0. -1.
          1    1    5    5  503    0  0.19495399144E+03 -0.40171574472E+03 -0.30519750666E+03  0.54085868432E+03  0.00000000000E+00 0. -1.
         -2    1    5    5    0  503  0.12173684418E+02 -0.30119461551E+02 -0.66084836124E-02  0.32486621863E+02  0.00000000000E+00 0.  1.
         -1    1    6    6    0  502 -0.46060651320E+03 -0.25252572819E+03 -0.29760349962E+02  0.52613047985E+03  0.00000000000E+00 0.  1.
<mgrwt>
<rscale>  0 0.29923927E+04</rscale>
<asrwt>0</asrwt>
<pdfrwt beam="1">  1        1 0.33973600E+00 0.29923927E+04</pdfrwt>
<pdfrwt beam="2">  1       -1 0.15595844E+00 0.29923927E+04</pdfrwt>
<totfact> 0.57448020E-01</totfact>
</mgrwt>
</event>
<event>
12    1  0.1496989E-007  0.2474412E+04  0.7818608E-02  0.8412158E-01
         -2   -1    0    0    0  501 -0.00000000000E+00  0.00000000000E+00  0.20598078588E+04  0.20598078588E+04  0.00000000000E+00 0.  1.
          2   -1    0    0  501    0  0.00000000000E+00 -0.00000000000E+00 -0.74311739524E+03  0.74311739524E+03  0.00000000000E+00 0. -1.
         23    2    1    2    0    0 -0.75124793247E+03  0.54113385616E+03  0.11920903275E+04  0.15122707798E+04  0.93189357281E+02 0.  0.
        254    2    1    2    0    0  0.75124793247E+03 -0.54113385616E+03  0.12460013607E+03  0.12906544742E+04  0.89054167312E+03 0.  0.
        -24    2    4    4    0    0  0.68866284538E+03 -0.24599811930E+03  0.43163224958E+03  0.85290270574E+03  0.79781183670E+02 0.  0.
         24    2    4    4    0    0  0.62585087087E+02 -0.29513573686E+03 -0.30703211351E+03  0.43775176847E+03  0.79598340268E+02 0.  0.
         13    1    3    3    0    0 -0.53875865892E+03  0.38616452355E+03  0.91921983177E+03  0.11332912384E+04  0.00000000000E+00 0.  1.
        -13    1    3    3    0    0 -0.21248927355E+03  0.15496933261E+03  0.27287049572E+03  0.37897954148E+03  0.00000000000E+00 0. -1.
          2    1    6    6  502    0  0.34893493434E+02 -0.10035695126E+03 -0.60242834405E+02  0.12214038091E+03  0.00000000000E+00 0. -1.
          3    1    5    5  503    0  0.14268784107E+03 -0.44237595768E+02  0.52927581125E+02  0.15848695124E+03  0.00000000000E+00 0. -1.
         -4    1    5    5    0  503  0.54597500431E+03 -0.20176052353E+03  0.37870466845E+03  0.69441575450E+03  0.00000000000E+00 0.  1.
         -1    1    6    6    0  502  0.27691593654E+02 -0.19477878560E+03 -0.24678927911E+03  0.31561138756E+03  0.00000000000E+00 0.  1.
<mgrwt>
<rscale>  0 0.24744123E+04</rscale>
<asrwt>0</asrwt>
<pdfrwt beam="1">  1        2 0.11432575E+00 0.24744123E+04</pdfrwt>
<pdfrwt beam="2">  1       -2 0.31689351E+00 0.24744123E+04</pdfrwt>
<totfact> 0.84912745E-01</totfact>
</mgrwt>
</event>
<event>
12    1  0.1496989E-007  0.3288951E+04  0.7818608E-02  0.8165713E-01
         -2   -1    0    0    0  501 -0.00000000000E+00  0.00000000000E+00  0.12585220103E+04  0.12585220103E+04  0.00000000000E+00 0.  1.
          2   -1    0    0  501    0  0.00000000000E+00 -0.00000000000E+00 -0.21487900178E+04  0.21487900178E+04  0.00000000000E+00 0. -1.
         23    2    1    2    0    0 -0.44820439590E+03  0.13778367044E+04 -0.89328015083E+03  0.17045811570E+04  0.91248718394E+02 0.  0.
        254    2    1    2    0    0  0.44820439590E+03 -0.13778367044E+04  0.30121433800E+01  0.17027308710E+04  0.89440604967E+03 0.  0.
        -24    2    4    4    0    0  0.18636425553E+03 -0.12077368885E+04  0.30387746949E+03  0.12617231497E+04  0.79017482269E+02 0.  0.
         24    2    4    4    0    0  0.26184014037E+03 -0.17009981591E+03 -0.30086532611E+03  0.44100772133E+03  0.80459053763E+02 0.  0.
         11    1    3    3    0    0 -0.18203401260E+03  0.60491162000E+03 -0.44010657844E+03  0.76990145482E+03  0.00000000000E+00 0. -1.
        -11    1    3    3    0    0 -0.26617038330E+03  0.77292508440E+03 -0.45317357239E+03  0.93467970222E+03  0.00000000000E+00 0.  1.
          2    1    6    6  502    0  0.11375009807E+03 -0.92786879570E+02 -0.19168845450E+03  0.24143933693E+03  0.00000000000E+00 0. -1.
          3    1    5    5  503    0  0.15434079045E+03 -0.74973442122E+03  0.18795086174E+03  0.78819306542E+03  0.00000000000E+00 0. -1.
         -2    1    5    5    0  503  0.32023465081E+02 -0.45800246727E+03  0.11592660775E+03  0.47353008429E+03  0.00000000000E+00 0.  1.
         -1    1    6    6    0  502  0.14809004230E+03 -0.77312936341E+02 -0.10917687161E+03  0.19956838439E+03  0.00000000000E+00 0.  1.
<mgrwt>
<rscale>  0 0.32889509E+04</rscale>
<asrwt>0</asrwt>
<pdfrwt beam="1">  1        2 0.33058308E+00 0.32889509E+04</pdfrwt>
<pdfrwt beam="2">  1       -2 0.19361877E+00 0.32889509E+04</pdfrwt>
<totfact> 0.67616934E-01</totfact>
</mgrwt>
</event>
<event>
12    1  0.1496989E-007  0.2401876E+04  0.7818608E-02  0.8438802E-01
          2   -1    0    0  501    0  0.00000000000E+00  0.00000000000E+00  0.38479531164E+04  0.38479531164E+04  0.00000000000E+00 0. -1.
         -2   -1    0    0    0  501 -0.00000000000E+00 -0.00000000000E+00 -0.37481004799E+03  0.37481004799E+03  0.00000000000E+00 0.  1.
         23    2    1    2    0    0  0.81696126077E+03 -0.53998153853E+03  0.19753549866E+04  0.22067102639E+04  0.92396440480E+02 0.  0.
        254    2    1    2    0    0 -0.81696126077E+03  0.53998153853E+03  0.14977880818E+04  0.20160529005E+04  0.92849038550E+03 0.  0.
        -24    2    4    4    0    0  0.15024387070E+03  0.17066737977E+03  0.69272177590E+02  0.24997934781E+03  0.77398091336E+02 0.  0.
         24    2    4    4    0    0 -0.96720513147E+03  0.36931415876E+03  0.14285159043E+04  0.17660735527E+04  0.80494662130E+02 0.  0.
         11    1    3    3    0    0  0.31747631824E+03 -0.26093507957E+03  0.78976036177E+03  0.89028071832E+03  0.00000000000E+00 0.  1.
        -11    1    3    3    0    0  0.49948494254E+03 -0.27904645896E+03  0.11855946248E+04  0.13164295456E+04  0.00000000000E+00 0. -1.
          4    1    6    6  502    0 -0.82344176057E+03  0.33798372336E+03  0.11950938266E+04  0.14901471688E+04  0.00000000000E+00 0. -1.
          3    1    5    5  503    0  0.12815581215E+03  0.13447889406E+03  0.85611569600E+02  0.20454296856E+03  0.00000000000E+00 0. -1.
         -4    1    5    5    0  503  0.22088058545E+02  0.36188485711E+02 -0.16339392010E+02  0.45436379253E+02  0.00000000000E+00 0.  1.
         -3    1    6    6    0  502 -0.14376337090E+03  0.31330435403E+02  0.23342207765E+03  0.27592638389E+03  0.00000000000E+00 0.  1.
<mgrwt>
<rscale>  0 0.24018755E+04</rscale>
<asrwt>0</asrwt>
<pdfrwt beam="1">  1        2 0.59199276E+00 0.24018755E+04</pdfrwt>
<pdfrwt beam="2">  1       -2 0.57663087E-01 0.24018755E+04</pdfrwt>
<totfact> 0.11468161E+00</totfact>
</mgrwt>
</event>
<event>
12    1  0.1496989E-007  0.1958493E+04  0.7818608E-02  0.8626276E-01
          2   -1    0    0  501    0  0.00000000000E+00  0.00000000000E+00  0.18805216159E+04  0.18805216159E+04  0.00000000000E+00 0.  1.
         -2   -1    0    0    0  501 -0.00000000000E+00 -0.00000000000E+00 -0.50992455892E+03  0.50992455892E+03  0.00000000000E+00 0. -1.
         23    2    1    2    0    0 -0.64781766370E+03  0.35309932521E+03  0.29061275020E+03  0.79898021805E+03  0.97809812356E+02 0.  0.
        254    2    1    2    0    0  0.64781766370E+03 -0.35309932521E+03  0.10799843068E+04  0.15914659568E+04  0.90667024315E+03 0.  0.
        -24    2    4    4    0    0  0.18846440065E+02  0.26653390242E+03  0.30921049003E+03  0.41640661016E+03  0.79923891281E+02 0.  0.
         24    2    4    4    0    0  0.62897122364E+03 -0.61963322763E+03  0.77077381677E+03  0.11750593466E+04  0.84392265887E+02 0.  0.
         13    1    3    3    0    0 -0.16748800460E+03  0.61760193970E+02  0.35583580056E+02  0.18202402153E+03  0.00000000000E+00 0.  1.
        -13    1    3    3    0    0 -0.48032965910E+03  0.29133913124E+03  0.25502917015E+03  0.61695619652E+03  0.00000000000E+00 0. -1.
          2    1    6    6  502    0  0.54777969109E+03 -0.50898806769E+03  0.67836450314E+03  0.10096087570E+04  0.00000000000E+00 0. -1.
          1    1    5    5  503    0  0.11068861942E+02  0.25597690108E+03  0.25824676375E+03  0.36378301854E+03  0.00000000000E+00 0. -1.
         -2    1    5    5    0  503  0.77775781222E+01  0.10557001342E+02  0.50963726275E+02  0.52623591617E+02  0.00000000000E+00 0.  1.
         -1    1    6    6    0  502  0.81191532548E+02 -0.11064515994E+03  0.92409313634E+02  0.16545058967E+03  0.00000000000E+00 0.  1.
<mgrwt>
<rscale>  0 0.19584935E+04</rscale>
<asrwt>0</asrwt>
<pdfrwt beam="1">  1        2 0.28931101E+00 0.19584935E+04</pdfrwt>
<pdfrwt beam="2">  1       -2 0.78449933E-01 0.19584935E+04</pdfrwt>
<totfact> 0.10480999E+01</totfact>
</mgrwt>
</event>
<event>
12    1  0.1721473E-007  0.2623021E+04  0.7818608E-02  0.8360423E-01
          1   -1    0    0  501    0  0.00000000000E+00  0.00000000000E+00  0.15484511072E+04  0.15484511072E+04  0.00000000000E+00 0. -1.
         -1   -1    0    0    0  501 -0.00000000000E+00 -0.00000000000E+00 -0.11108262631E+04  0.11108262631E+04  0.00000000000E+00 0.  1.
         23    2    1    2    0    0  0.26789649338E+03  0.98089497594E+03 -0.36233356890E+03  0.10834579100E+04  0.93123265311E+02 0.  0.
        254    2    1    2    0    0 -0.26789649338E+03 -0.98089497594E+03  0.79995841306E+03  0.15758194603E+04  0.89963882972E+03 0.  0.
        -24    2    4    4    0    0  0.54625999557E+02 -0.75481386259E+03  0.88262123542E+03  0.11654186411E+04  0.80326812417E+02 0.  0.
         24    2    4    4    0    0 -0.32252249294E+03 -0.22608111335E+03 -0.82662822362E+02  0.41040081924E+03  0.80388195476E+02 0.  0.
         13    1    3    3    0    0  0.83399406401E+01  0.13974763776E+03 -0.35190544124E+02  0.14435141588E+03  0.00000000000E+00 0. -1.
        -13    1    3    3    0    0  0.25955655274E+03  0.84114733818E+03 -0.32714302478E+03  0.93910649409E+03  0.00000000000E+00 0.  1.
          2    1    6    6  502    0 -0.25112868281E+03 -0.16661943641E+03 -0.96532110471E+02  0.31645868652E+03  0.00000000000E+00 0. -1.
          1    1    5    5  503    0  0.65830221354E+02 -0.70918799762E+03  0.84572025036E+03  0.11056780616E+04  0.00000000000E+00 0. -1.
         -2    1    5    5    0  503 -0.11204221797E+02 -0.45625864969E+02  0.36900985063E+02  0.59740579499E+02  0.00000000000E+00 0.  1.
         -1    1    6    6    0  502 -0.71393810122E+02 -0.59461676935E+02  0.13869288109E+02  0.93942132722E+02  0.00000000000E+00 0.  1.
<mgrwt>
<rscale>  0 0.26230213E+04</rscale>
<asrwt>0</asrwt>
<pdfrwt beam="1">  1        1 0.23822325E+00 0.26230213E+04</pdfrwt>
<pdfrwt beam="2">  1       -1 0.17089635E+00 0.26230213E+04</pdfrwt>
<totfact> 0.12900724E+00</totfact>
</mgrwt>
</event>
<event>
12    1  0.1496989E-007  0.1474026E+04  0.7818608E-02  0.8901912E-01
          1   -1    0    0  501    0  0.00000000000E+00  0.00000000000E+00  0.80936242548E+03  0.80936242548E+03  0.00000000000E+00 0. -1.
         -1   -1    0    0    0  501 -0.00000000000E+00 -0.00000000000E+00 -0.67113054654E+03  0.67113054654E+03  0.00000000000E+00 0.  1.
         23    2    1    2    0    0 -0.42806823968E+03  0.58335397375E+02 -0.16178344377E+03  0.47000089758E+03  0.89897300497E+02 0.  0.
        254    2    1    2    0    0  0.42806823968E+03 -0.58335397375E+02  0.30001532270E+03  0.10104920744E+04  0.86280913431E+03 0.  0.
        -24    2    4    4    0    0 -0.80534627441E+02  0.22620338837E+03 -0.12695212203E+03  0.28394447285E+03  0.82787820639E+02 0.  0.
         24    2    4    4    0    0  0.50860286712E+03 -0.28453878575E+03  0.42696744473E+03  0.72654760160E+03  0.77013125418E+02 0.  0.
         11    1    3    3    0    0 -0.41521238253E+03  0.48935237731E+02 -0.13591588953E+03  0.43962382684E+03  0.00000000000E+00 0. -1.
        -11    1    3    3    0    0 -0.12855857148E+02  0.94001596438E+01 -0.25867554236E+02  0.30377070736E+02  0.00000000000E+00 0.  1.
          2    1    6    6  502    0  0.30456818967E+03 -0.14439083022E+03  0.28357454826E+03  0.44048271071E+03  0.00000000000E+00 0. -1.
          1    1    5    5  503    0 -0.11919520797E+02 -0.25185910879E+01 -0.17351168940E+02  0.21200974993E+02  0.00000000000E+00 0. -1.
         -2    1    5    5    0  503 -0.68615106644E+02  0.22872197946E+03 -0.10960095309E+03  0.26274349785E+03  0.00000000000E+00 0.  1.
         -1    1    6    6    0  502  0.20403467745E+03 -0.14014795553E+03  0.14339289647E+03  0.28606489089E+03  0.00000000000E+00 0.  1.
<mgrwt>
<rscale>  0 0.14740256E+04</rscale>
<asrwt>0</asrwt>
<pdfrwt beam="1">  1        1 0.12451730E+00 0.14740256E+04</pdfrwt>
<pdfrwt beam="2">  1       -1 0.10325085E+00 0.14740256E+04</pdfrwt>
<totfact> 0.18628025E+01</totfact>
</mgrwt>
</event>
<event>
12    1  0.1496989E-007  0.1735785E+04  0.7818608E-02  0.8741214E-01
          2   -1    0    0  501    0  0.00000000000E+00  0.00000000000E+00  0.11019746651E+04  0.11019746651E+04  0.00000000000E+00 0. -1.
         -2   -1    0    0    0  501 -0.00000000000E+00 -0.00000000000E+00 -0.68353404848E+03  0.68353404848E+03  0.00000000000E+00 0.  1.
         23    2    1    2    0    0 -0.49811692807E+03  0.33463507886E+03  0.37403879133E+03  0.71265854071E+03  0.88747215141E+02 0.  0.
        254    2    1    2    0    0  0.49811692807E+03 -0.33463507886E+03  0.44401825318E+02  0.10728501729E+04  0.88822005233E+03 0.  0.
        -24    2    4    4    0    0  0.29921930420E+03  0.26946184599E+03  0.11965293432E+03  0.42754555710E+03  0.79602137223E+02 0.  0.
         24    2    4    4    0    0  0.19889762387E+03 -0.60409692485E+03 -0.75251109006E+02  0.64530461580E+03  0.79132536784E+02 0.  0.
         11    1    3    3    0    0 -0.18113559264E+03  0.11500957442E+03  0.85247556735E+02  0.23087756725E+03  0.00000000000E+00 0.  1.
        -11    1    3    3    0    0 -0.31698133543E+03  0.21962550444E+03  0.28879123459E+03  0.48178097346E+03  0.00000000000E+00 0. -1.
          2    1    6    6  502    0  0.12158577465E+02 -0.26970937633E+02 -0.21036047489E+02  0.36301209025E+02  0.00000000000E+00 0. -1.
          1    1    5    5  503    0  0.31689853951E+02  0.63653381792E+02  0.58616334823E+01  0.71346749078E+02  0.00000000000E+00 0. -1.
         -2    1    5    5    0  503  0.26752945025E+03  0.20580846420E+03  0.11379130084E+03  0.35619880802E+03  0.00000000000E+00 0.  1.
         -1    1    6    6    0  502  0.18673904641E+03 -0.57712598721E+03 -0.54215061518E+02  0.60900340678E+03  0.00000000000E+00 0.  1.
<mgrwt>
<rscale>  0 0.17357848E+04</rscale>
<asrwt>0</asrwt>
<pdfrwt beam="1">  1        2 0.16953456E+00 0.17357848E+04</pdfrwt>
<pdfrwt beam="2">  1       -2 0.10515909E+00 0.17357848E+04</pdfrwt>
<totfact> 0.15100972E+01</totfact>
</mgrwt>
</event>
<event>
12    1  0.1496989E-007  0.2229724E+04  0.7818608E-02  0.8506157E-01
          2   -1    0    0  501    0  0.00000000000E+00  0.00000000000E+00  0.21086967909E+04  0.21086967909E+04  0.00000000000E+00 0.  1.
         -2   -1    0    0    0  501 -0.00000000000E+00 -0.00000000000E+00 -0.58942420678E+03  0.58942420678E+03  0.00000000000E+00 0. -1.
         23    2    1    2    0    0 -0.86908110153E+03 -0.14770224623E+03  0.27098515159E+03  0.92641338051E+03  0.87697688767E+02 0.  0.
        254    2    1    2    0    0  0.86908110153E+03  0.14770224623E+03  0.12482874325E+04  0.17717076172E+04  0.89644210741E+03 0.  0.
        -24    2    4    4    0    0  0.21191092815E+03  0.30884235350E+03  0.40531403860E+02  0.38499532407E+03  0.79301728057E+02 0.  0.
         24    2    4    4    0    0  0.65717017338E+03 -0.16114010727E+03  0.12077560287E+04  0.13867122931E+04  0.80359119424E+02 0.  0.
         13    1    3    3    0    0 -0.25267696561E+03 -0.73526574161E+02  0.53265521525E+02  0.26849398846E+03  0.00000000000E+00 0.  1.
        -13    1    3    3    0    0 -0.61640413592E+03 -0.74175672069E+02  0.21771963006E+03  0.65791939204E+03  0.00000000000E+00 0. -1.
          2    1    6    6  502    0  0.10880643408E+03 -0.43303851982E+02  0.16002362084E+03  0.19829680512E+03  0.00000000000E+00 0. -1.
          3    1    5    5  503    0  0.11472544785E+03  0.16207992383E+03  0.61130000062E+02  0.20777080402E+03  0.00000000000E+00 0. -1.
         -4    1    5    5    0  503  0.97185480302E+02  0.14676242967E+03 -0.20598596203E+02  0.17722452006E+03  0.00000000000E+00 0.  1.
         -1    1    6    6    0  502  0.54836373930E+03 -0.11783625529E+03  0.10477324078E+04  0.11884154880E+04  0.00000000000E+00 0.  1.
<mgrwt>
<rscale>  0 0.22297237E+04</rscale>
<asrwt>0</asrwt>
<pdfrwt beam="1">  1        2 0.32441489E+00 0.22297237E+04</pdfrwt>
<pdfrwt beam="2">  1       -2 0.90680648E-01 0.22297237E+04</pdfrwt>
<totfact> 0.55016908E+00</totfact>
</mgrwt>
</event>
<event>
12    1  0.1496989E-007  0.1559286E+04  0.7818608E-02  0.8845958E-01
          1   -1    0    0  501    0  0.00000000000E+00  0.00000000000E+00  0.19677663475E+04  0.19677663475E+04  0.00000000000E+00 0. -1.
         -1   -1    0    0    0  501 -0.00000000000E+00 -0.00000000000E+00 -0.30890017031E+03  0.30890017031E+03  0.00000000000E+00 0.  1.
         23    2    1    2    0    0  0.29421828025E+03 -0.25940138784E+03  0.68333139538E+02  0.40823076043E+03  0.90163514556E+02 0.  0.
        254    2    1    2    0    0 -0.29421828025E+03  0.25940138784E+03  0.15905330377E+04  0.18684357574E+04  0.89855626374E+03 0.  0.
        -24    2    4    4    0    0 -0.47072633025E+03 -0.42628148222E+02  0.39741754250E+03  0.62249657125E+03  0.78491025747E+02 0.  0.
         24    2    4    4    0    0  0.17650805000E+03  0.30202953606E+03  0.11931154952E+04  0.12459391861E+04  0.80392402388E+02 0.  0.
         13    1    3    3    0    0  0.57374338974E+02 -0.12668074736E+02 -0.31014418746E+01  0.58838030490E+02  0.00000000000E+00 0. -1.
        -13    1    3    3    0    0  0.23684394128E+03 -0.24673331311E+03  0.71434581413E+02  0.34939272994E+03  0.00000000000E+00 0.  1.
          2    1    6    6  502    0  0.65495217509E+02  0.47752475766E+02  0.29616687800E+03  0.30705820634E+03  0.00000000000E+00 0. -1.
          3    1    5    5  503    0 -0.63412894881E+01 -0.11526867069E+00 -0.37408430307E+01  0.73633651151E+01  0.00000000000E+00 0. -1.
         -4    1    5    5    0  503 -0.46438504076E+03 -0.42512879551E+02  0.40115838553E+03  0.61513320614E+03  0.00000000000E+00 0.  1.
         -1    1    6    6    0  502  0.11101283249E+03  0.25427706030E+03  0.89694861716E+03  0.93888097978E+03  0.00000000000E+00 0.  1.
<mgrwt>
<rscale>  0 0.15592862E+04</rscale>
<asrwt>0</asrwt>
<pdfrwt beam="1">  1        1 0.30273328E+00 0.15592862E+04</pdfrwt>
<pdfrwt beam="2">  1       -1 0.47523104E-01 0.15592862E+04</pdfrwt>
<totfact> 0.13342043E+01</totfact>
</mgrwt>
</event>
<event>
12    1  0.1496989E-007  0.1495366E+04  0.7818608E-02  0.8887540E-01
          2   -1    0    0  501    0  0.00000000000E+00  0.00000000000E+00  0.29898577259E+04  0.29898577259E+04  0.00000000000E+00 0. -1.
         -2   -1    0    0    0  501 -0.00000000000E+00 -0.00000000000E+00 -0.18697546339E+03  0.18697546339E+03  0.00000000000E+00 0.  1.
         23    2    1    2    0    0  0.44960106389E+03  0.39001758086E+02  0.63140069448E+03  0.78284928495E+03  0.10258612078E+03 0.  0.
        254    2    1    2    0    0 -0.44960106389E+03 -0.39001758086E+02  0.21714815681E+04  0.23939839044E+04  0.90120168672E+03 0.  0.
        -24    2    4    4    0    0  0.11497121145E+03 -0.24170068615E+03  0.13214076010E+04  0.13505802488E+04  0.79444064945E+02 0.  0.
         24    2    4    4    0    0 -0.56457227534E+03  0.20269892806E+03  0.85007396710E+03  0.10434036556E+04  0.78972966043E+02 0.  0.
         11    1    3    3    0    0  0.30139734296E+03 -0.52161134290E+01  0.47731769860E+03  0.56453498702E+03  0.00000000000E+00 0.  1.
        -11    1    3    3    0    0  0.14820372093E+03  0.44217871515E+02  0.15408299588E+03  0.21831429793E+03  0.00000000000E+00 0. -1.
          4    1    6    6  502    0 -0.31662652294E+03  0.12391265508E+03  0.41525538368E+03  0.53669706054E+03  0.00000000000E+00 0. -1.
          3    1    5    5  503    0  0.18094885488E+02 -0.72457555084E+02  0.54327111980E+03  0.54838037144E+03  0.00000000000E+00 0. -1.
         -4    1    5    5    0  503  0.96876325958E+02 -0.16924313107E+03  0.77813648115E+03  0.80219987736E+03  0.00000000000E+00 0.  1.
         -3    1    6    6    0  502 -0.24794575240E+03  0.78786272980E+02  0.43481858343E+03  0.50670659502E+03  0.00000000000E+00 0.  1.
<mgrwt>
<rscale>  0 0.14953662E+04</rscale>
<asrwt>0</asrwt>
<pdfrwt beam="1">  1        2 0.45997808E+00 0.14953662E+04</pdfrwt>
<pdfrwt beam="2">  1       -2 0.28765458E-01 0.14953662E+04</pdfrwt>
<totfact> 0.19075488E+01</totfact>
</mgrwt>
</event>
<event>
12    1  0.1496989E-007  0.1538454E+04  0.7818608E-02  0.8859276E-01
         -2   -1    0    0    0  501 -0.00000000000E+00  0.00000000000E+00  0.40478290683E+03  0.40478290683E+03  0.00000000000E+00 0. -1.
          2   -1    0    0  501    0  0.00000000000E+00 -0.00000000000E+00 -0.14617966565E+04  0.14617966565E+04  0.00000000000E+00 0.  1.
         23    2    1    2    0    0 -0.45813397307E+03  0.16319058181E+03 -0.19303024823E+03  0.53116669562E+03  0.91430183926E+02 0.  0.
        254    2    1    2    0    0  0.45813397307E+03 -0.16319058181E+03 -0.86398350145E+03  0.13354128677E+04  0.89461842884E+03 0.  0.
        -24    2    4    4    0    0  0.31358784776E+03 -0.52011311514E+03 -0.62376966885E+03  0.87469420975E+03  0.84536205145E+02 0.  0.
         24    2    4    4    0    0  0.14454612531E+03  0.35692253333E+03 -0.24021383260E+03  0.46071865797E+03  0.79194187223E+02 0.  0.
         11    1    3    3    0    0 -0.10420451978E+03  0.78261424372E+02 -0.39922325148E+02  0.13629829247E+03  0.00000000000E+00 0.  1.
        -11    1    3    3    0    0 -0.35392945330E+03  0.84929157439E+02 -0.15310792308E+03  0.39486840315E+03  0.00000000000E+00 0. -1.
          2    1    6    6  502    0  0.14899827359E+03  0.34281640362E+03 -0.24276093060E+03  0.44570892020E+03  0.00000000000E+00 0. -1.
          3    1    5    5  503    0  0.19453748148E+03 -0.28081626614E+03 -0.29813010000E+03  0.45341389872E+03  0.00000000000E+00 0. -1.
         -4    1    5    5    0  503  0.11905036627E+03 -0.23929684900E+03 -0.32563956885E+03  0.42128031102E+03  0.00000000000E+00 0.  1.
         -1    1    6    6    0  502 -0.44521482706E+01  0.14106129714E+02  0.25470980037E+01  0.15009737772E+02  0.00000000000E+00 0.  1.
<mgrwt>
<rscale>  0 0.15384542E+04</rscale>
<asrwt>0</asrwt>
<pdfrwt beam="1">  1        2 0.22489179E+00 0.15384542E+04</pdfrwt>
<pdfrwt beam="2">  1       -2 0.62274294E-01 0.15384542E+04</pdfrwt>
<totfact> 0.30757658E+01</totfact>
</mgrwt>
</event>
<event>
12    1  0.1496989E-007  0.1098560E+04  0.7818608E-02  0.9206596E-01
          2   -1    0    0  501    0  0.00000000000E+00  0.00000000000E+00  0.18438465639E+04  0.18438465639E+04  0.00000000000E+00 0. -1.
         -2   -1    0    0    0  501 -0.00000000000E+00 -0.00000000000E+00 -0.16363004845E+03  0.16363004845E+03  0.00000000000E+00 0.  1.
         23    2    1    2    0    0 -0.13210306030E+02  0.12941011507E+03  0.42440915446E+03  0.45419166056E+03  0.96153232209E+02 0.  0.
        254    2    1    2    0    0  0.13210306030E+02 -0.12941011507E+03  0.12558073610E+04  0.15532849518E+04  0.90483176530E+03 0.  0.
        -24    2    4    4    0    0  0.26282777182E+03 -0.25027369288E+03  0.13433842885E+03  0.39529917825E+03  0.80618036882E+02 0.  0.
         24    2    4    4    0    0 -0.24961746579E+03  0.12086357781E+03  0.11214689322E+04  0.11579857736E+04  0.79508504674E+02 0.  0.
         13    1    3    3    0    0 -0.42624875959E+02  0.60657994046E+02  0.12274236309E+03  0.14339442106E+03  0.00000000000E+00 0.  1.
        -13    1    3    3    0    0  0.29414569929E+02  0.68752121025E+02  0.30166679137E+03  0.31079723951E+03  0.00000000000E+00 0. -1.
          2    1    6    6  502    0 -0.10443331926E+02 -0.76504649567E+01  0.22361018239E+02  0.25838110079E+02  0.00000000000E+00 0. -1.
          1    1    5    5  503    0  0.55402009715E+02 -0.84191307550E+02  0.67494744236E+02  0.12129756571E+03  0.00000000000E+00 0. -1.
         -2    1    5    5    0  503  0.20742576210E+03 -0.16608238533E+03  0.66843684610E+02  0.27400161254E+03  0.00000000000E+00 0.  1.
         -1    1    6    6    0  502 -0.23917413386E+03  0.12851404277E+03  0.10991079139E+04  0.11321476635E+04  0.00000000000E+00 0.  1.
<mgrwt>
<rscale>  0 0.10985603E+04</rscale>
<asrwt>0</asrwt>
<pdfrwt beam="1">  1        2 0.28366869E+00 0.10985603E+04</pdfrwt>
<pdfrwt beam="2">  1       -2 0.25173855E-01 0.10985603E+04</pdfrwt>
<totfact> 0.11486363E+02</totfact>
</mgrwt>
</event>
<event>
12    1  0.1496989E-007  0.1350617E+04  0.7818608E-02  0.8990361E-01
         -2   -1    0    0    0  501 -0.00000000000E+00  0.00000000000E+00  0.98806583565E+03  0.98806583565E+03  0.00000000000E+00 0.  1.
          2   -1    0    0  501    0  0.00000000000E+00 -0.00000000000E+00 -0.46155006367E+03  0.46155006367E+03  0.00000000000E+00 0. -1.
         23    2    1    2    0    0 -0.22631306050E+03  0.11668184256E+03  0.42370719235E+03  0.50177346207E+03  0.86119502182E+02 0.  0.
        254    2    1    2    0    0  0.22631306050E+03 -0.11668184256E+03  0.10280857964E+03  0.94784243725E+03  0.90719536379E+03 0.  0.
        -24    2    4    4    0    0  0.21509257892E+03  0.36585688323E+03 -0.50921055422E+02  0.43500397820E+03  0.80742991358E+02 0.  0.
         24    2    4    4    0    0  0.11220481581E+02 -0.48253872579E+03  0.15372963506E+03  0.51283845905E+03  0.80006020343E+02 0.  0.
         11    1    3    3    0    0 -0.12243071517E+03  0.46346484469E+02  0.29134664842E+03  0.31940592698E+03  0.00000000000E+00 0.  1.
        -11    1    3    3    0    0 -0.10388234533E+03  0.70335358086E+02  0.13236054392E+03  0.18236753509E+03  0.00000000000E+00 0. -1.
          2    1    6    6  502    0 -0.30955834499E+02 -0.30518062298E+03  0.10357586510E+03  0.32376138770E+03  0.00000000000E+00 0. -1.
          1    1    5    5  503    0  0.18800412659E+03  0.26538677674E+03 -0.17465931890E+02  0.32570040169E+03  0.00000000000E+00 0. -1.
         -2    1    5    5    0  503  0.27088452324E+02  0.10047010649E+03 -0.33455123532E+02  0.10930357651E+03  0.00000000000E+00 0.  1.
         -1    1    6    6    0  502  0.42176316080E+02 -0.17735810280E+03  0.50153769963E+02  0.18907707135E+03  0.00000000000E+00 0.  1.
<mgrwt>
<rscale>  0 0.13506174E+04</rscale>
<asrwt>0</asrwt>
<pdfrwt beam="1">  1        2 0.71007702E-01 0.13506174E+04</pdfrwt>
<pdfrwt beam="2">  1       -2 0.15201013E+00 0.13506174E+04</pdfrwt>
<totfact> 0.19063234E+01</totfact>
</mgrwt>
</event>
<event>
12    1  0.1496989E-007  0.1732037E+04  0.7818608E-02  0.8743301E-01
         -1   -1    0    0    0  501 -0.00000000000E+00  0.00000000000E+00  0.41227193493E+03  0.41227193493E+03  0.00000000000E+00 0.  1.
          1   -1    0    0  501    0  0.00000000000E+00 -0.00000000000E+00 -0.18191584388E+04  0.18191584388E+04  0.00000000000E+00 0. -1.
         23    2    1    2    0    0 -0.14228355794E+03 -0.33475807344E+02 -0.13069359015E+04  0.13179627895E+04  0.87058734605E+02 0.  0.
        254    2    1    2    0    0  0.14228355794E+03  0.33475807344E+02 -0.99950602378E+02  0.91346758426E+03  0.89614042652E+03 0.  0.
        -24    2    4    4    0    0  0.45723405921E+02  0.45350881029E+02  0.39243921563E+03  0.40556806579E+03  0.79558693831E+02 0.  0.
         24    2    4    4    0    0  0.96560152019E+02 -0.11875073685E+02 -0.49238981801E+03  0.50789951847E+03  0.77777295232E+02 0.  0.
         13    1    3    3    0    0 -0.38966819614E+02 -0.45833493616E+02 -0.32426880587E+03  0.32980203248E+03  0.00000000000E+00 0.  1.
        -13    1    3    3    0    0 -0.10331673833E+03  0.12357686271E+02 -0.98266709562E+03  0.98816075699E+03  0.00000000000E+00 0. -1.
          4    1    6    6  502    0  0.95119713464E+02 -0.32550593200E+02 -0.35522080701E+03  0.36917356723E+03  0.00000000000E+00 0. -1.
          3    1    5    5  503    0  0.23418823650E+02  0.49445600625E+02  0.36870321471E+03  0.37274035100E+03  0.00000000000E+00 0. -1.
         -4    1    5    5    0  503  0.22304582272E+02 -0.40947195962E+01  0.23736000918E+02  0.32827714792E+02  0.00000000000E+00 0.  1.
         -3    1    6    6    0  502  0.14404385545E+01  0.20675519515E+02 -0.13716901100E+03  0.13872595124E+03  0.00000000000E+00 0.  1.
<mgrwt>
<rscale>  0 0.17320369E+04</rscale>
<asrwt>0</asrwt>
<pdfrwt beam="1">  1        1 0.27987052E+00 0.17320369E+04</pdfrwt>
<pdfrwt beam="2">  1       -1 0.63426452E-01 0.17320369E+04</pdfrwt>
<totfact> 0.94599859E+00</totfact>
</mgrwt>
</event>
<event>
12    1  0.1496989E-007  0.1356798E+04  0.7818608E-02  0.8985698E-01
          2   -1    0    0  501    0  0.00000000000E+00  0.00000000000E+00  0.13640783547E+04  0.13640783547E+04  0.00000000000E+00 0. -1.
         -2   -1    0    0    0  501 -0.00000000000E+00 -0.00000000000E+00 -0.33738916885E+03  0.33738916885E+03  0.00000000000E+00 0.  1.
         23    2    1    2    0    0  0.24255609917E+03 -0.18099052685E+03  0.58657463175E+03  0.66658072685E+03  0.93107651349E+02 0.  0.
        254    2    1    2    0    0 -0.24255609917E+03  0.18099052685E+03  0.44011455406E+03  0.10348867967E+04  0.88639654171E+03 0.  0.
        -24    2    4    4    0    0  0.22447067859E+03 -0.21327313280E+03  0.13494584429E+03  0.34732355181E+03  0.80936728519E+02 0.  0.
         24    2    4    4    0    0 -0.46702677776E+03  0.39426365966E+03  0.30516870976E+03  0.68756324485E+03  0.77829491703E+02 0.  0.
         13    1    3    3    0    0  0.18693604837E+03 -0.15155229237E+03  0.37271894483E+03  0.44365819651E+03  0.00000000000E+00 0.  1.
        -13    1    3    3    0    0  0.55620050795E+02 -0.29438234481E+02  0.21385568693E+03  0.22292253034E+03  0.00000000000E+00 0. -1.
          2    1    6    6  502    0 -0.77182587795E+01  0.15325579170E+02 -0.24752767112E+01  0.17337009266E+02  0.00000000000E+00 0. -1.
          3    1    5    5  503    0  0.60219898886E+01 -0.35544156775E+02  0.29612101018E+02  0.46653273945E+02  0.00000000000E+00 0. -1.
         -4    1    5    5    0  503  0.21844868871E+03 -0.17772897603E+03  0.10533374328E+03  0.30067027786E+03  0.00000000000E+00 0.  1.
         -1    1    6    6    0  502 -0.45930851898E+03  0.37893808049E+03  0.30764398647E+03  0.67022623558E+03  0.00000000000E+00 0.  1.
<mgrwt>
<rscale>  0 0.13567981E+04</rscale>
<asrwt>0</asrwt>
<pdfrwt beam="1">  1        2 0.20985821E+00 0.13567981E+04</pdfrwt>
<pdfrwt beam="2">  1       -2 0.51906026E-01 0.13567981E+04</pdfrwt>
<totfact> 0.51914562E+01</totfact>
</mgrwt>
</event>
<event>
12    1  0.1496989E-007  0.1636057E+04  0.7818608E-02  0.8798698E-01
          3   -1    0    0  501    0  0.00000000000E+00  0.00000000000E+00  0.79188485001E+03  0.79188485001E+03  0.00000000000E+00 0. -1.
         -3   -1    0    0    0  501 -0.00000000000E+00 -0.00000000000E+00 -0.84503481828E+03  0.84503481828E+03  0.00000000000E+00 0.  1.
         23    2    1    2    0    0 -0.45952957603E+03 -0.33544922671E+03 -0.33432658604E+02  0.57810604751E+03  0.96929069733E+02 0.  0.
        254    2    1    2    0    0  0.45952957603E+03  0.33544922671E+03 -0.19717309662E+02  0.10588136208E+04  0.89275074703E+03 0.  0.
        -24    2    4    4    0    0  0.15596742343E+03  0.25970979136E+03  0.41297836464E+03  0.51841947391E+03  0.80203543305E+02 0.  0.
         24    2    4    4    0    0  0.30356215260E+03  0.75739435342E+02 -0.43269567431E+03  0.54039414688E+03  0.83149533141E+02 0.  0.
         11    1    3    3    0    0 -0.37395909974E+03 -0.27271271588E+03  0.11258985216E+02  0.46297343166E+03  0.00000000000E+00 0. -1.
        -11    1    3    3    0    0 -0.85570476292E+02 -0.62736510829E+02 -0.44691643820E+02  0.11513261584E+03  0.00000000000E+00 0.  1.
          2    1    6    6  502    0  0.17716745350E+03  0.49573319614E+02 -0.18398688682E+03  0.26018646222E+03  0.00000000000E+00 0. -1.
          1    1    5    5  503    0  0.23522841287E+02  0.23231886573E+01  0.37287899313E+02  0.44148711226E+02  0.00000000000E+00 0. -1.
         -2    1    5    5    0  503  0.13244458214E+03  0.25738660271E+03  0.37569046533E+03  0.47427076268E+03  0.00000000000E+00 0.  1.
         -1    1    6    6    0  502  0.12639469909E+03  0.26166115728E+02 -0.24870878749E+03  0.28020768466E+03  0.00000000000E+00 0.  1.
<mgrwt>
<rscale>  0 0.16360566E+04</rscale>
<asrwt>0</asrwt>
<pdfrwt beam="1">  1        3 0.12182844E+00 0.16360566E+04</pdfrwt>
<pdfrwt beam="2">  1       -3 0.13000536E+00 0.16360566E+04</pdfrwt>
<totfact> 0.63414048E-01</totfact>
</mgrwt>
</event>
<event>
12    1  0.1496989E-007  0.1589746E+04  0.7818608E-02  0.8826872E-01
         -2   -1    0    0    0  501 -0.00000000000E+00  0.00000000000E+00  0.34488435266E+03  0.34488435266E+03  0.00000000000E+00 0. -1.
          2   -1    0    0  501    0  0.00000000000E+00 -0.00000000000E+00 -0.18319854555E+04  0.18319854555E+04  0.00000000000E+00 0.  1.
         23    2    1    2    0    0  0.10635059930E+03 -0.41252864970E+03 -0.65916924858E+02  0.44018208117E+03  0.89021833273E+02 0.  0.
        254    2    1    2    0    0 -0.10635059930E+03  0.41252864970E+03 -0.14211841779E+04  0.17366877270E+04  0.90267904403E+03 0.  0.
        -24    2    4    4    0    0  0.21504093899E+03  0.44643824282E+03 -0.34194787204E+03  0.60730997383E+03  0.79670239292E+02 0.  0.
         24    2    4    4    0    0 -0.32139153829E+03 -0.33909593116E+02 -0.10792363059E+04  0.11293777531E+04  0.79377099227E+02 0.  0.
         11    1    3    3    0    0  0.39182410456E+02 -0.30325145436E+03 -0.61131675542E+02  0.31182332757E+03  0.00000000000E+00 0. -1.
        -11    1    3    3    0    0  0.67168188840E+02 -0.10927719535E+03 -0.47852493166E+01  0.12835875360E+03  0.00000000000E+00 0.  1.
          2    1    6    6  502    0 -0.76931144322E+02 -0.43015085955E+02 -0.28987421628E+03  0.30297815078E+03  0.00000000000E+00 0. -1.
          1    1    5    5  503    0  0.20796986525E+02  0.12192812144E+03 -0.84888033579E+02  0.15001653139E+03  0.00000000000E+00 0. -1.
         -2    1    5    5    0  503  0.19424395247E+03  0.32451012138E+03 -0.25705983846E+03  0.45729344244E+03  0.00000000000E+00 0.  1.
         -1    1    6    6    0  502 -0.24446039397E+03  0.91054928390E+01 -0.78936208962E+03  0.82639960234E+03  0.00000000000E+00 0.  1.
<mgrwt>
<rscale>  0 0.15897460E+04</rscale>
<asrwt>0</asrwt>
<pdfrwt beam="1">  1        2 0.28184392E+00 0.15897460E+04</pdfrwt>
<pdfrwt beam="2">  1       -2 0.53059130E-01 0.15897460E+04</pdfrwt>
<totfact> 0.26625091E+01</totfact>
</mgrwt>
</event>
<event>
12    1  0.1496989E-007  0.1369978E+04  0.7818608E-02  0.8975841E-01
          1   -1    0    0  501    0  0.00000000000E+00  0.00000000000E+00  0.28213704187E+04  0.28213704187E+04  0.00000000000E+00 0. -1.
         -1   -1    0    0    0  501 -0.00000000000E+00 -0.00000000000E+00 -0.16630577239E+03  0.16630577239E+03  0.00000000000E+00 0.  1.
         23    2    1    2    0    0 -0.75281964305E+01 -0.66605386443E+02 -0.58177582421E+02  0.12624980134E+03  0.89785466510E+02 0.  0.
        254    2    1    2    0    0  0.75281964305E+01  0.66605386443E+02  0.27132422287E+04  0.28614263897E+04  0.90641306308E+03 0.  0.
        -24    2    4    4    0    0 -0.29196436934E+03 -0.29497161381E+03  0.10779110877E+04  0.11581417497E+04  0.84549118673E+02 0.  0.
         24    2    4    4    0    0  0.29949256577E+03  0.36157700025E+03  0.16353311410E+04  0.17032846401E+04  0.80230294580E+02 0.  0.
         13    1    3    3    0    0  0.11741227696E+02 -0.66760192202E+02 -0.74696899207E+02  0.10086826281E+03  0.00000000000E+00 0.  1.
        -13    1    3    3    0    0 -0.19269424127E+02  0.15480575925E+00  0.16519316786E+02  0.25381538529E+02  0.00000000000E+00 0. -1.
          4    1    6    6  502    0  0.20769916000E+02  0.42750067350E+01  0.46760105472E+02  0.51343671051E+02  0.00000000000E+00 0. -1.
          3    1    5    5  503    0 -0.17406368227E+02 -0.58362825334E+02  0.14267662933E+03  0.15513162667E+03  0.00000000000E+00 0. -1.
         -4    1    5    5    0  503 -0.27455800111E+03 -0.23660878848E+03  0.93523445834E+03  0.10030101230E+04  0.00000000000E+00 0.  1.
         -3    1    6    6    0  502  0.27872264977E+03  0.35730199352E+03  0.15885710356E+04  0.16519409690E+04  0.00000000000E+00 0.  1.
<mgrwt>
<rscale>  0 0.13699784E+04</rscale>
<asrwt>0</asrwt>
<pdfrwt beam="1">  1        1 0.43405695E+00 0.13699784E+04</pdfrwt>
<pdfrwt beam="2">  1       -1 0.25585506E-01 0.13699784E+04</pdfrwt>
<totfact> 0.10654933E+01</totfact>
</mgrwt>
</event>
<event>
12    1  0.1496989E-007  0.1224833E+04  0.7818608E-02  0.9091394E-01
         -2   -1    0    0    0  501 -0.00000000000E+00  0.00000000000E+00  0.35073460032E+03  0.35073460032E+03  0.00000000000E+00 0.  1.
          2   -1    0    0  501    0  0.00000000000E+00 -0.00000000000E+00 -0.10693387995E+04  0.10693387995E+04  0.00000000000E+00 0. -1.
         23    2    1    2    0    0 -0.21425998004E+03 -0.26651936071E+02  0.20711583717E+02  0.23560933180E+03  0.92006101922E+02 0.  0.
        254    2    1    2    0    0  0.21425998004E+03  0.26651936071E+02 -0.73931578294E+03  0.11844640681E+04  0.89986089863E+03 0.  0.
        -24    2    4    4    0    0  0.16725810357E+03 -0.55014578312E+02  0.17454725613E+03  0.26209768054E+03  0.85009249422E+02 0.  0.
         24    2    4    4    0    0  0.47001876470E+02  0.81666514384E+02 -0.91386303907E+03  0.92236638752E+03  0.82070108345E+02 0.  0.
         11    1    3    3    0    0 -0.82966583167E+02 -0.31540019031E+02 -0.31567526370E+02  0.94205814279E+02  0.00000000000E+00 0. -1.
        -11    1    3    3    0    0 -0.13129339687E+03  0.48880829603E+01  0.52279110087E+02  0.14140351752E+03  0.00000000000E+00 0.  1.
          4    1    6    6  502    0 -0.14073378039E+02  0.49943309360E+02 -0.51520553121E+03  0.51781187077E+03  0.00000000000E+00 0. -1.
          3    1    5    5  503    0  0.14861075183E+03 -0.33697753787E+02  0.99777038105E+02  0.18214321701E+03  0.00000000000E+00 0. -1.
         -4    1    5    5    0  503  0.18647351732E+02 -0.21316824526E+02  0.74770218026E+02  0.79954463529E+02  0.00000000000E+00 0.  1.
         -3    1    6    6    0  502  0.61075254510E+02  0.31723205024E+02 -0.39865750786E+03  0.40455451675E+03  0.00000000000E+00 0.  1.
<mgrwt>
<rscale>  0 0.12248332E+04</rscale>
<asrwt>0</asrwt>
<pdfrwt beam="1">  1        2 0.16451366E+00 0.12248332E+04</pdfrwt>
<pdfrwt beam="2">  1       -2 0.53959171E-01 0.12248332E+04</pdfrwt>
<totfact> 0.72536835E+01</totfact>
</mgrwt>
</event>
<event>
12    1  0.1496989E-007  0.1919417E+04  0.7818608E-02  0.8645251E-01
          2   -1    0    0  501    0  0.00000000000E+00  0.00000000000E+00  0.25829473245E+03  0.25829473245E+03  0.00000000000E+00 0. -1.
         -2   -1    0    0    0  501 -0.00000000000E+00 -0.00000000000E+00 -0.35658492281E+04  0.35658492281E+04  0.00000000000E+00 0.  1.
         23    2    1    2    0    0 -0.12658799303E+03 -0.67856580266E+03 -0.18795558301E+04  0.20044213652E+04  0.92189057792E+02 0.  0.
        254    2    1    2    0    0  0.12658799303E+03  0.67856580266E+03 -0.14279986656E+04  0.18197225954E+04  0.89203927414E+03 0.  0.
        -24    2    4    4    0    0  0.87452465822E+02  0.88094432043E+03 -0.10006680079E+04  0.13383813003E+04  0.78849308204E+02 0.  0.
         24    2    4    4    0    0  0.39135527210E+02 -0.20237851777E+03 -0.42733065767E+03  0.48134129507E+03  0.81174487442E+02 0.  0.
         13    1    3    3    0    0 -0.92278546687E+02 -0.50440869248E+03 -0.12720814211E+04  0.13715446041E+04  0.00000000000E+00 0. -1.
        -13    1    3    3    0    0 -0.34309446344E+02 -0.17415711019E+03 -0.60747440894E+03  0.63287676103E+03  0.00000000000E+00 0.  1.
          2    1    6    6  502    0  0.36204127062E+02 -0.15024852717E+03 -0.38242898328E+03  0.41247701267E+03  0.00000000000E+00 0. -1.
          3    1    5    5  503    0  0.80856174964E+02  0.56390256377E+03 -0.59918730433E+03  0.82677037206E+03  0.00000000000E+00 0. -1.
         -4    1    5    5    0  503  0.65962908583E+01  0.31704175667E+03 -0.40148070358E+03  0.51161092822E+03  0.00000000000E+00 0.  1.
         -1    1    6    6    0  502  0.29314001475E+01 -0.52129990602E+02 -0.44901674390E+02  0.68864282397E+02  0.00000000000E+00 0.  1.
<mgrwt>
<rscale>  0 0.19194167E+04</rscale>
<asrwt>0</asrwt>
<pdfrwt beam="1">  1        2 0.39737653E-01 0.19194167E+04</pdfrwt>
<pdfrwt beam="2">  1       -2 0.54859216E+00 0.19194167E+04</pdfrwt>
<totfact> 0.10402019E-01</totfact>
</mgrwt>
</event>
<event>
12    1  0.1496989E-007  0.1874073E+04  0.7818608E-02  0.8667870E-01
          1   -1    0    0  501    0  0.00000000000E+00  0.00000000000E+00  0.20903170854E+04  0.20903170854E+04  0.00000000000E+00 0. -1.
         -1   -1    0    0    0  501 -0.00000000000E+00 -0.00000000000E+00 -0.42004995844E+03  0.42004995844E+03  0.00000000000E+00 0.  1.
         23    2    1    2    0    0 -0.53555223945E+03 -0.30906312294E+03  0.11380800892E+04  0.12985495735E+04  0.93104726841E+02 0.  0.
        254    2    1    2    0    0  0.53555223945E+03  0.30906312294E+03  0.53218703768E+03  0.12118174703E+04  0.89607049003E+03 0.  0.
        -24    2    4    4    0    0  0.54454765443E+03  0.20393415572E+03  0.75291456745E+03  0.95453753480E+03  0.78359885499E+02 0.  0.
         24    2    4    4    0    0 -0.89954149791E+01  0.10512896722E+03 -0.22072752977E+03  0.25727993549E+03  0.79619756146E+02 0.  0.
         13    1    3    3    0    0 -0.15408263820E+03 -0.76020815819E+02  0.23755529489E+03  0.29317766280E+03  0.00000000000E+00 0.  1.
        -13    1    3    3    0    0 -0.38146960126E+03 -0.23304230712E+03  0.90052479435E+03  0.10053719107E+04  0.00000000000E+00 0. -1.
          4    1    6    6  502    0 -0.15149647597E+02  0.24252561754E+02 -0.13982672398E+03  0.14272074591E+03  0.00000000000E+00 0. -1.
          3    1    5    5  503    0  0.49213332293E+03  0.18479126316E+03  0.71340449797E+03  0.88616533231E+03  0.00000000000E+00 0. -1.
         -4    1    5    5    0  503  0.52414331508E+02  0.19142892564E+02  0.39510069481E+02  0.68372202491E+02  0.00000000000E+00 0.  1.
         -3    1    6    6    0  502  0.61542326179E+01  0.80876405468E+02 -0.80900805793E+02  0.11455918959E+03  0.00000000000E+00 0.  1.
<mgrwt>
<rscale>  0 0.18740732E+04</rscale>
<asrwt>0</asrwt>
<pdfrwt beam="1">  1        1 0.32158724E+00 0.18740732E+04</pdfrwt>
<pdfrwt beam="2">  1       -1 0.64623072E-01 0.18740732E+04</pdfrwt>
<totfact> 0.58913738E+00</totfact>
</mgrwt>
</event>
<event>
12    1  0.1496989E-007  0.1520831E+04  0.7818608E-02  0.8870718E-01
         -2   -1    0    0    0  501 -0.00000000000E+00  0.00000000000E+00  0.74638629715E+03  0.74638629715E+03  0.00000000000E+00 0.  1.
          2   -1    0    0  501    0  0.00000000000E+00 -0.00000000000E+00 -0.77470841894E+03  0.77470841894E+03  0.00000000000E+00 0. -1.
         23    2    1    2    0    0 -0.10964973971E+03 -0.42457470466E+03  0.20355543401E+03  0.49230724142E+03  0.92977739168E+02 0.  0.
        254    2    1    2    0    0  0.10964973971E+03  0.42457470466E+03 -0.23187755581E+03  0.10287874747E+04  0.90130445571E+03 0.  0.
        -24    2    4    4    0    0 -0.14600537312E+03  0.63471117856E+03 -0.10271094010E+03  0.66468406792E+03  0.84139905882E+02 0.  0.
         24    2    4    4    0    0  0.25565511283E+03 -0.21013647390E+03 -0.12916661570E+03  0.36410340674E+03  0.79814796945E+02 0.  0.
         11    1    3    3    0    0 -0.93645969317E+02 -0.40317164603E+03  0.16541177337E+03  0.44573310232E+03  0.00000000000E+00 0. -1.
        -11    1    3    3    0    0 -0.16003770396E+02 -0.21403058626E+02  0.38143660644E+02  0.46574139098E+02  0.00000000000E+00 0.  1.
          2    1    6    6  502    0  0.17763948931E+03 -0.18830280164E+03 -0.10700254975E+03  0.28011297528E+03  0.00000000000E+00 0. -1.
          3    1    5    5  503    0 -0.13977865432E+03  0.60591264805E+03 -0.78921093567E+02  0.62681476393E+03  0.00000000000E+00 0. -1.
         -4    1    5    5    0  503 -0.62267188046E+01  0.28798530512E+02 -0.23789846537E+02  0.37869303994E+02  0.00000000000E+00 0.  1.
         -1    1    6    6    0  502  0.78015623527E+02 -0.21833672261E+02 -0.22164065952E+02  0.83990431468E+02  0.00000000000E+00 0.  1.
<mgrwt>
<rscale>  0 0.15208310E+04</rscale>
<asrwt>0</asrwt>
<pdfrwt beam="1">  1        2 0.11918591E+00 0.15208310E+04</pdfrwt>
<pdfrwt beam="2">  1       -2 0.11482866E+00 0.15208310E+04</pdfrwt>
<totfact> 0.20520455E+01</totfact>
</mgrwt>
</event>
<event>
12    1  0.1496989E-007  0.1668001E+04  0.7818608E-02  0.8779828E-01
         -4   -1    0    0    0  501 -0.00000000000E+00  0.00000000000E+00  0.23213790892E+04  0.23213790892E+04  0.00000000000E+00 0.  1.
          4   -1    0    0  501    0  0.00000000000E+00 -0.00000000000E+00 -0.29963078052E+03  0.29963078052E+03  0.00000000000E+00 0. -1.
         23    2    1    2    0    0  0.23308813382E+03 -0.52894897166E+03  0.90248935592E+03  0.10755411543E+04  0.90469023765E+02 0.  0.
        254    2    1    2    0    0 -0.23308813382E+03  0.52894897166E+03  0.11192589527E+04  0.15454687154E+04  0.89533002534E+03 0.  0.
        -24    2    4    4    0    0 -0.17726725417E+03  0.75676558913E+03  0.65709469473E+03  0.10210455635E+04  0.81503181225E+02 0.  0.
         24    2    4    4    0    0 -0.55820879654E+02 -0.22781661747E+03  0.46216425801E+03  0.52442315194E+03  0.80046605869E+02 0.  0.
         13    1    3    3    0    0  0.17124839131E+02 -0.66946323447E+02  0.16507800727E+03  0.17895758945E+03  0.00000000000E+00 0.  1.
        -13    1    3    3    0    0  0.21596329469E+03 -0.46200264821E+03  0.73741134865E+03  0.89658356484E+03  0.00000000000E+00 0. -1.
          4    1    6    6  502    0  0.19603762875E+02 -0.29995398777E+02  0.76262571699E+02  0.84261564837E+02  0.00000000000E+00 0. -1.
          3    1    5    5  503    0 -0.31818843322E+02  0.13307685269E+03  0.77283936224E+02  0.15714545590E+03  0.00000000000E+00 0. -1.
         -4    1    5    5    0  503 -0.14544841085E+03  0.62368873644E+03  0.57981075851E+03  0.86390010757E+03  0.00000000000E+00 0.  1.
         -3    1    6    6    0  502 -0.75424642529E+02 -0.19782121869E+03  0.38590168631E+03  0.44016158710E+03  0.00000000000E+00 0.  1.
<mgrwt>
<rscale>  0 0.16680008E+04</rscale>
<asrwt>0</asrwt>
<pdfrwt beam="1">  1        4 0.46097045E-01 0.16680008E+04</pdfrwt>
<pdfrwt beam="2">  1       -4 0.35713523E+00 0.16680008E+04</pdfrwt>
<totfact> 0.11702127E-01</totfact>
</mgrwt>
</event>
<event>
12    1  0.1496989E-007  0.1187631E+04  0.7818608E-02  0.9123752E-01
          2   -1    0    0  501    0  0.00000000000E+00  0.00000000000E+00  0.11755558171E+04  0.11755558171E+04  0.00000000000E+00 0.  1.
         -2   -1    0    0    0  501 -0.00000000000E+00 -0.00000000000E+00 -0.29995775604E+03  0.29995775604E+03  0.00000000000E+00 0. -1.
         23    2    1    2    0    0  0.10023165868E+03 -0.18600813122E+03  0.31452985133E+03  0.38988576964E+03  0.91850289628E+02 0.  0.
        254    2    1    2    0    0 -0.10023165868E+03  0.18600813122E+03  0.56106820976E+03  0.10856278035E+04  0.90506617521E+03 0.  0.
        -24    2    4    4    0    0 -0.19702530242E+03  0.13080901170E+03  0.78462104580E+03  0.82336779282E+03  0.79839648061E+02 0.  0.
         24    2    4    4    0    0  0.96793643736E+02  0.55199119525E+02 -0.22355283604E+03  0.26226001072E+03  0.79928032981E+02 0.  0.
         11    1    3    3    0    0  0.32714774380E+01 -0.10197441235E+03  0.13490376666E+03  0.16914050254E+03  0.00000000000E+00 0. -1.
        -11    1    3    3    0    0  0.96960181245E+02 -0.84033718878E+02  0.17962608466E+03  0.22074526710E+03  0.00000000000E+00 0.  1.
          2    1    6    6  502    0  0.21806448422E+01  0.11328857782E+02 -0.99621029742E+02  0.10028682764E+03  0.00000000000E+00 0. -1.
          1    1    5    5  503    0 -0.83918095979E+01  0.23534264859E+02  0.16422067039E+03  0.16611054354E+03  0.00000000000E+00 0. -1.
         -2    1    5    5    0  503 -0.18863349282E+03  0.10727474684E+03  0.62040037541E+03  0.65725724928E+03  0.00000000000E+00 0.  1.
         -1    1    6    6    0  502  0.94612998894E+02  0.43870261743E+02 -0.12393180630E+03  0.16197318308E+03  0.00000000000E+00 0.  1.
<mgrwt>
<rscale>  0 0.11876314E+04</rscale>
<asrwt>0</asrwt>
<pdfrwt beam="1">  1        2 0.18085474E+00 0.11876314E+04</pdfrwt>
<pdfrwt beam="2">  1       -2 0.46147348E-01 0.11876314E+04</pdfrwt>
<totfact> 0.86106763E+01</totfact>
</mgrwt>
</event>
<event>
12    1  0.1496989E-007  0.2136006E+04  0.7818608E-02  0.8545546E-01
         -3   -1    0    0    0  501 -0.00000000000E+00  0.00000000000E+00  0.96463985897E+03  0.96463985897E+03  0.00000000000E+00 0.  1.
          3   -1    0    0  501    0  0.00000000000E+00 -0.00000000000E+00 -0.11824414794E+04  0.11824414794E+04  0.00000000000E+00 0. -1.
         23    2    1    2    0    0  0.71054095779E+03 -0.37627027909E+03  0.25037733246E+03  0.84722413166E+03  0.93016907189E+02 0.  0.
        254    2    1    2    0    0 -0.71054095779E+03  0.37627027909E+03 -0.46817895292E+03  0.12998572067E+04  0.90773864647E+03 0.  0.
        -24    2    4    4    0    0 -0.66800303256E+03  0.58674707141E+03 -0.14612816065E+03  0.90490736726E+03  0.83688270788E+02 0.  0.
         24    2    4    4    0    0 -0.42537925235E+02 -0.21047679232E+03 -0.32205079227E+03  0.39494983947E+03  0.78477434416E+02 0.  0.
         11    1    3    3    0    0  0.31234894746E+03 -0.13814731385E+03  0.14732895051E+03  0.37195747735E+03  0.00000000000E+00 0. -1.
        -11    1    3    3    0    0  0.39819201034E+03 -0.23812296524E+03  0.10304838196E+03  0.47526665430E+03  0.00000000000E+00 0.  1.
          2    1    6    6  502    0  0.10298299337E+02 -0.11820668343E+03 -0.13451347197E+03  0.17936763676E+03  0.00000000000E+00 0. -1.
          1    1    5    5  503    0 -0.30972696276E+03  0.29843218266E+03 -0.33321198708E+02  0.43139640864E+03  0.00000000000E+00 0. -1.
         -2    1    5    5    0  503 -0.35827606980E+03  0.28831488875E+03 -0.11280696194E+03  0.47351095862E+03  0.00000000000E+00 0.  1.
         -1    1    6    6    0  502 -0.52836224572E+02 -0.92270108891E+02 -0.18753732030E+03  0.21558220271E+03  0.00000000000E+00 0.  1.
<mgrwt>
<rscale>  0 0.21360058E+04</rscale>
<asrwt>0</asrwt>
<pdfrwt beam="1">  1        3 0.18191407E+00 0.21360058E+04</pdfrwt>
<pdfrwt beam="2">  1       -3 0.14840613E+00 0.21360058E+04</pdfrwt>
<totfact> 0.15338471E-01</totfact>
</mgrwt>
</event>
<event>
12    1  0.1496989E-007  0.1159763E+04  0.7818608E-02  0.9148824E-01
          2   -1    0    0  501    0  0.00000000000E+00  0.00000000000E+00  0.85911632901E+03  0.85911632901E+03  0.00000000000E+00 0. -1.
         -2   -1    0    0    0  501 -0.00000000000E+00 -0.00000000000E+00 -0.39140489517E+03  0.39140489517E+03  0.00000000000E+00 0.  1.
         23    2    1    2    0    0  0.13589901697E+03 -0.14310332580E+03  0.57608259652E+02  0.22393110914E+03  0.88765564222E+02 0.  0.
        254    2    1    2    0    0 -0.13589901697E+03  0.14310332580E+03  0.41010317420E+03  0.10265901150E+04  0.92019321131E+03 0.  0.
        -24    2    4    4    0    0  0.37443522601E+03  0.36462065359E+02  0.53146821869E+02  0.38954822630E+03  0.85976829720E+02 0.  0.
         24    2    4    4    0    0 -0.51033424298E+03  0.10664126044E+03  0.35695635233E+03  0.63704188874E+03  0.81185790365E+02 0.  0.
         11    1    3    3    0    0  0.29826417043E+02  0.86537456419E+01  0.11557832862E+02  0.33137380218E+02  0.00000000000E+00 0.  1.
        -11    1    3    3    0    0  0.10607259993E+03 -0.15175707145E+03  0.46050426790E+02  0.19079372892E+03  0.00000000000E+00 0. -1.
          4    1    6    6  502    0 -0.18545428008E+03  0.14109445804E+02  0.90718702975E+02  0.20693537525E+03  0.00000000000E+00 0. -1.
          3    1    5    5  503    0 -0.32529332616E+01  0.27892566623E+01 -0.42585740234E+01  0.60412730650E+01  0.00000000000E+00 0. -1.
         -2    1    5    5    0  503  0.37768815927E+03  0.33672808697E+02  0.57405395893E+02  0.38350695323E+03  0.00000000000E+00 0.  1.
         -3    1    6    6    0  502 -0.32487996290E+03  0.92531814640E+02  0.26623764935E+03  0.43010651349E+03  0.00000000000E+00 0.  1.
<mgrwt>
<rscale>  0 0.11597626E+04</rscale>
<asrwt>0</asrwt>
<pdfrwt beam="1">  1        2 0.13217174E+00 0.11597626E+04</pdfrwt>
<pdfrwt beam="2">  1       -2 0.60216138E-01 0.11597626E+04</pdfrwt>
<totfact> 0.79551743E+01</totfact>
</mgrwt>
</event>
<event>
12    1  0.1496989E-007  0.1248853E+04  0.7818608E-02  0.9071138E-01
          2   -1    0    0  501    0  0.00000000000E+00  0.00000000000E+00  0.36868708741E+03  0.36868708741E+03  0.00000000000E+00 0. -1.
         -2   -1    0    0    0  501 -0.00000000000E+00 -0.00000000000E+00 -0.10575592324E+04  0.10575592324E+04  0.00000000000E+00 0.  1.
         23    2    1    2    0    0 -0.18881012419E+03 -0.11875281720E+03 -0.38306251258E+03  0.45589630092E+03  0.10655071123E+03 0.  0.
        254    2    1    2    0    0  0.18881012419E+03  0.11875281720E+03 -0.30580963244E+03  0.97035001892E+03  0.89348090821E+03 0.  0.
        -24    2    4    4    0    0  0.35500508717E+03  0.42349573953E+03 -0.13002127651E+03  0.57318700877E+03  0.79123709228E+02 0.  0.
         24    2    4    4    0    0 -0.16619496298E+03 -0.30474292233E+03 -0.17578835593E+03  0.39716301015E+03  0.79673685258E+02 0.  0.
         11    1    3    3    0    0 -0.19066626884E+03 -0.97406400152E+02 -0.37712067483E+03  0.43366073865E+03  0.00000000000E+00 0.  1.
        -11    1    3    3    0    0  0.18561446489E+01 -0.21346417051E+02 -0.59418377523E+01  0.22235562277E+02  0.00000000000E+00 0. -1.
          2    1    6    6  502    0 -0.46049670638E+02 -0.93802358172E+02 -0.13992084761E+02  0.10542880536E+03  0.00000000000E+00 0. -1.
          1    1    5    5  503    0  0.10734503093E+03  0.13874228904E+03 -0.78925020450E+02  0.19235783656E+03  0.00000000000E+00 0. -1.
         -2    1    5    5    0  503  0.24766005624E+03  0.28475345049E+03 -0.51096256059E+02  0.38082917221E+03  0.00000000000E+00 0.  1.
         -1    1    6    6    0  502 -0.12014529234E+03 -0.21094056416E+03 -0.16179627117E+03  0.29173420479E+03  0.00000000000E+00 0.  1.
<mgrwt>
<rscale>  0 0.12488530E+04</rscale>
<asrwt>0</asrwt>
<pdfrwt beam="1">  1        2 0.56721091E-01 0.12488530E+04</pdfrwt>
<pdfrwt beam="2">  1       -2 0.16270142E+00 0.12488530E+04</pdfrwt>
<totfact> 0.20605417E+01</totfact>
</mgrwt>
</event>
<event>
12    1  0.1496989E-007  0.2156959E+04  0.7818608E-02  0.8536559E-01
          1   -1    0    0  501    0  0.00000000000E+00  0.00000000000E+00  0.15977429698E+04  0.15977429698E+04  0.00000000000E+00 0. -1.
         -1   -1    0    0    0  501 -0.00000000000E+00 -0.00000000000E+00 -0.72797581757E+03  0.72797581757E+03  0.00000000000E+00 0.  1.
         23    2    1    2    0    0 -0.61509200623E+03  0.39919184296E+03  0.88343303493E+03  0.11516857963E+04  0.90741073745E+02 0.  0.
        254    2    1    2    0    0  0.61509200623E+03 -0.39919184296E+03 -0.13665882737E+02  0.11740329911E+04  0.91677391116E+03 0.  0.
        -24    2    4    4    0    0  0.80553062820E+03 -0.13846621415E+03 -0.10762398902E+03  0.82837220090E+03  0.81025272498E+02 0.  0.
         24    2    4    4    0    0 -0.19043862197E+03 -0.26072562881E+03  0.93958106282E+02  0.34566079019E+03  0.80053318979E+02 0.  0.
         11    1    3    3    0    0 -0.15911989736E+03  0.66578639144E+02  0.17228787678E+03  0.24379288220E+03  0.00000000000E+00 0.  1.
        -11    1    3    3    0    0 -0.45597210887E+03  0.33261320382E+03  0.71114515815E+03  0.90789291405E+03  0.00000000000E+00 0. -1.
          2    1    6    6  502    0 -0.16649798253E+03 -0.24567908083E+03  0.62369532407E+02  0.30326514392E+03  0.00000000000E+00 0. -1.
          1    1    5    5  503    0  0.71683544438E+03 -0.10299846667E+03 -0.78134773349E+02  0.72840015188E+03  0.00000000000E+00 0. -1.
         -2    1    5    5    0  503  0.88695183824E+02 -0.35467747480E+02 -0.29489215670E+02  0.99972049022E+02  0.00000000000E+00 0.  1.
         -1    1    6    6    0  502 -0.23940639441E+02 -0.15046547982E+02  0.31588573875E+02  0.42395646268E+02  0.00000000000E+00 0.  1.
<mgrwt>
<rscale>  0 0.21569592E+04</rscale>
<asrwt>0</asrwt>
<pdfrwt beam="1">  1        1 0.24580661E+00 0.21569592E+04</pdfrwt>
<pdfrwt beam="2">  1       -1 0.11199628E+00 0.21569592E+04</pdfrwt>
<totfact> 0.37474618E+00</totfact>
</mgrwt>
</event>
<event>
12    1  0.1496989E-007  0.1732054E+04  0.7818608E-02  0.8743291E-01
         -2   -1    0    0    0  501 -0.00000000000E+00  0.00000000000E+00  0.10208242295E+04  0.10208242295E+04  0.00000000000E+00 0.  1.
          2   -1    0    0  501    0  0.00000000000E+00 -0.00000000000E+00 -0.73470294378E+03  0.73470294378E+03  0.00000000000E+00 0. -1.
         23    2    1    2    0    0 -0.28332789989E+03 -0.55381052789E+03  0.24082431773E+02  0.62931908986E+03  0.92096436871E+02 0.  0.
        254    2    1    2    0    0  0.28332789989E+03  0.55381052789E+03  0.26203885392E+03  0.11262080834E+04  0.90149846727E+03 0.  0.
        -24    2    4    4    0    0 -0.76857346123E+02  0.68683638543E+03  0.10491947255E+03  0.70337505606E+03  0.77955768012E+02 0.  0.
         24    2    4    4    0    0  0.36018524601E+03 -0.13302585754E+03  0.15711938137E+03  0.42283302734E+03  0.81682181569E+02 0.  0.
         13    1    3    3    0    0 -0.19258950471E+03 -0.44357802884E+03  0.42100347662E+02  0.48541180895E+03  0.00000000000E+00 0. -1.
        -13    1    3    3    0    0 -0.90738395175E+02 -0.11023249905E+03 -0.18017915889E+02  0.14390728091E+03  0.00000000000E+00 0.  1.
          2    1    6    6  502    0  0.29237244994E+03 -0.13330374519E+03  0.10760317007E+03  0.33886572588E+03  0.00000000000E+00 0. -1.
          1    1    5    5  503    0 -0.34955428299E+02  0.57010214819E+03  0.94164494588E+02  0.57888279761E+03  0.00000000000E+00 0. -1.
         -2    1    5    5    0  503 -0.41901917824E+02  0.11673423725E+03  0.10754977964E+02  0.12449225845E+03  0.00000000000E+00 0.  1.
         -1    1    6    6    0  502  0.67812796072E+02  0.27788765186E+00  0.49516211300E+02  0.83967301458E+02  0.00000000000E+00 0.  1.
<mgrwt>
<rscale>  0 0.17320538E+04</rscale>
<asrwt>0</asrwt>
<pdfrwt beam="1">  1        2 0.11303122E+00 0.17320538E+04</pdfrwt>
<pdfrwt beam="2">  1       -2 0.15704988E+00 0.17320538E+04</pdfrwt>
<totfact> 0.96802639E+00</totfact>
</mgrwt>
</event>
<event>
12    1  0.1496989E-007  0.1727369E+04  0.7818608E-02  0.8745907E-01
         -2   -1    0    0    0  501 -0.00000000000E+00  0.00000000000E+00  0.19373128303E+03  0.19373128303E+03  0.00000000000E+00 0.  1.
          2   -1    0    0  501    0  0.00000000000E+00 -0.00000000000E+00 -0.38504431495E+04  0.38504431495E+04  0.00000000000E+00 0. -1.
         23    2    1    2    0    0 -0.45811387945E+03  0.38588941687E+03 -0.92344336082E+03  0.11044393472E+04  0.90882684658E+02 0.  0.
        254    2    1    2    0    0  0.45811387945E+03 -0.38588941687E+03 -0.27332685056E+04  0.29397350853E+04  0.90139152395E+03 0.  0.
        -24    2    4    4    0    0 -0.39566489352E+02  0.57295249070E+01  0.37100686268E+02  0.96737287612E+02  0.79895602868E+02 0.  0.
         24    2    4    4    0    0  0.49768036880E+03 -0.39161894177E+03 -0.27703691919E+04  0.28429977977E+04  0.81485418084E+02 0.  0.
         13    1    3    3    0    0 -0.88228357031E+02  0.83851712551E+02 -0.25918936225E+03  0.28634677960E+03  0.00000000000E+00 0. -1.
        -13    1    3    3    0    0 -0.36988552242E+03  0.30203770432E+03 -0.66425399857E+03  0.81809256759E+03  0.00000000000E+00 0.  1.
          4    1    6    6  502    0  0.37573353852E+03 -0.29387633700E+03 -0.22320308459E+04  0.22824330637E+04  0.00000000000E+00 0. -1.
          3    1    5    5  503    0 -0.64021924795E+01 -0.29410603345E+02  0.37917245178E+02  0.48411663259E+02  0.00000000000E+00 0. -1.
         -4    1    5    5    0  503 -0.33164296873E+02  0.35140128252E+02 -0.81655891002E+00  0.48325624353E+02  0.00000000000E+00 0.  1.
         -3    1    6    6    0  502  0.12194683029E+03 -0.97742604770E+02 -0.53833834599E+03  0.56056473397E+03  0.00000000000E+00 0.  1.
<mgrwt>
<rscale>  0 0.17273694E+04</rscale>
<asrwt>0</asrwt>
<pdfrwt beam="1">  1        2 0.59237582E+00 0.17273694E+04</pdfrwt>
<pdfrwt beam="2">  1       -2 0.29804815E-01 0.17273694E+04</pdfrwt>
<totfact> 0.44912772E+00</totfact>
</mgrwt>
</event>
<event>
12    1  0.1496989E-007  0.1236474E+04  0.7818608E-02  0.9081517E-01
          2   -1    0    0  501    0  0.00000000000E+00  0.00000000000E+00  0.74807201635E+03  0.74807201635E+03  0.00000000000E+00 0. -1.
         -2   -1    0    0    0  501 -0.00000000000E+00 -0.00000000000E+00 -0.51093572802E+03  0.51093572802E+03  0.00000000000E+00 0.  1.
         23    2    1    2    0    0  0.80071374979E+02 -0.13249598065E+03 -0.54189098346E+02  0.18753794726E+03  0.90925317179E+02 0.  0.
        254    2    1    2    0    0 -0.80071374979E+02  0.13249598065E+03  0.29132538667E+03  0.10714697971E+04  0.10194167132E+04 0.  0.
        -24    2    4    4    0    0  0.30710091402E+03 -0.72511189215E+01 -0.23747393003E+03  0.39660215983E+03  0.80844638784E+02 0.  0.
         24    2    4    4    0    0 -0.38717228899E+03  0.13974709957E+03  0.52879931670E+03  0.67486763728E+03  0.79912310132E+02 0.  0.
         11    1    3    3    0    0  0.28229046343E+02 -0.71914356807E+02 -0.72256885640E+02  0.10578095904E+03  0.00000000000E+00 0.  1.
        -11    1    3    3    0    0  0.51842328636E+02 -0.60581623843E+02  0.18067787294E+02  0.81756988225E+02  0.00000000000E+00 0. -1.
          4    1    6    6  502    0 -0.31093686222E+03  0.93174448070E+02  0.36627243722E+03  0.48940648578E+03  0.00000000000E+00 0. -1.
          1    1    5    5  503    0  0.24028402895E+03 -0.38562056113E+02 -0.17263113950E+03  0.29837050301E+03  0.00000000000E+00 0. -1.
         -2    1    5    5    0  503  0.66816885068E+02  0.31310937191E+02 -0.64842790529E+02  0.98231656820E+02  0.00000000000E+00 0.  1.
         -3    1    6    6    0  502 -0.76235426776E+02  0.46572651501E+02  0.16252687948E+03  0.18546115150E+03  0.00000000000E+00 0.  1.
<mgrwt>
<rscale>  0 0.12364736E+04</rscale>
<asrwt>0</asrwt>
<pdfrwt beam="1">  1        2 0.11508800E+00 0.12364736E+04</pdfrwt>
<pdfrwt beam="2">  1       -2 0.78605496E-01 0.12364736E+04</pdfrwt>
<totfact> 0.53286478E+01</totfact>
</mgrwt>
</event>
<event>
12    1  0.1496989E-007  0.1720724E+04  0.7818608E-02  0.8749632E-01
          1   -1    0    0  501    0  0.00000000000E+00  0.00000000000E+00  0.10573814413E+04  0.10573814413E+04  0.00000000000E+00 0. -1.
         -1   -1    0    0    0  501 -0.00000000000E+00 -0.00000000000E+00 -0.70005247717E+03  0.70005247717E+03  0.00000000000E+00 0.  1.
         23    2    1    2    0    0  0.50839621198E+03  0.31345760408E+03  0.31992977339E+03  0.68207304896E+03  0.78397744218E+02 0.  0.
        254    2    1    2    0    0 -0.50839621198E+03 -0.31345760408E+03  0.37399190715E+02  0.10753608695E+04  0.89346512089E+03 0.  0.
        -24    2    4    4    0    0 -0.37233708778E+02 -0.26571682276E+03  0.38876980691E+03  0.48003973093E+03  0.85465791639E+02 0.  0.
         24    2    4    4    0    0 -0.47116250321E+03 -0.47740781327E+02 -0.35137061619E+03  0.59532113856E+03  0.81686360326E+02 0.  0.
         13    1    3    3    0    0  0.32707783335E+03  0.18405189510E+03  0.16074785167E+03  0.40828284434E+03  0.00000000000E+00 0. -1.
        -13    1    3    3    0    0  0.18131837863E+03  0.12940570898E+03  0.15918192172E+03  0.27379020462E+03  0.00000000000E+00 0.  1.
          2    1    6    6  502    0 -0.39767283684E+03 -0.24671748539E+02 -0.32410899654E+03  0.51361368943E+03  0.00000000000E+00 0. -1.
          1    1    5    5  503    0 -0.64968315894E+02 -0.18644980102E+03  0.26498337214E+03  0.33045513747E+03  0.00000000000E+00 0. -1.
         -2    1    5    5    0  503  0.27734607116E+02 -0.79267021738E+02  0.12378643477E+03  0.14958459346E+03  0.00000000000E+00 0.  1.
         -1    1    6    6    0  502 -0.73489666369E+02 -0.23069032787E+02 -0.27261619652E+02  0.81707449126E+02  0.00000000000E+00 0.  1.
<mgrwt>
<rscale>  0 0.17207237E+04</rscale>
<asrwt>0</asrwt>
<pdfrwt beam="1">  1        1 0.16267407E+00 0.17207237E+04</pdfrwt>
<pdfrwt beam="2">  1       -1 0.10770038E+00 0.17207237E+04</pdfrwt>
<totfact> 0.10411644E+01</totfact>
</mgrwt>
</event>
<event>
12    1  0.1496989E-007  0.2017308E+04  0.7818608E-02  0.8598571E-01
          1   -1    0    0  501    0  0.00000000000E+00  0.00000000000E+00  0.14546986801E+04  0.14546986801E+04  0.00000000000E+00 0. -1.
         -1   -1    0    0    0  501 -0.00000000000E+00 -0.00000000000E+00 -0.69937692744E+03  0.69937692744E+03  0.00000000000E+00 0.  1.
         23    2    1    2    0    0 -0.43811397982E+03  0.53258907861E+03 -0.11215139033E+03  0.70460995839E+03  0.91116810359E+02 0.  0.
        254    2    1    2    0    0  0.43811397982E+03 -0.53258907861E+03  0.86747314301E+03  0.14494656492E+04  0.93426229096E+03 0.  0.
        -24    2    4    4    0    0  0.12070165348E+03  0.21524777670E+03  0.48068558262E+03  0.54638909350E+03  0.81129018441E+02 0.  0.
         24    2    4    4    0    0  0.31741232634E+03 -0.74783685531E+03  0.38678756040E+03  0.90307655567E+03  0.77020136680E+02 0.  0.
         11    1    3    3    0    0 -0.26323141292E+03  0.36848172134E+03 -0.10407086066E+03  0.46465072877E+03  0.00000000000E+00 0.  1.
        -11    1    3    3    0    0 -0.17488256690E+03  0.16410735727E+03 -0.80805296722E+01  0.23995922961E+03  0.00000000000E+00 0. -1.
          2    1    6    6  502    0  0.25075575612E+03 -0.49966043372E+03  0.26852657600E+03  0.62019796861E+03  0.00000000000E+00 0. -1.
          3    1    5    5  503    0  0.34069523507E+02  0.12865911207E+03  0.20114351463E+03  0.24118999363E+03  0.00000000000E+00 0. -1.
         -4    1    5    5    0  503  0.86632129969E+02  0.86588664629E+02  0.27954206799E+03  0.30519909987E+03  0.00000000000E+00 0.  1.
         -1    1    6    6    0  502  0.66656570223E+02 -0.24817642159E+03  0.11826098440E+03  0.28287858706E+03  0.00000000000E+00 0.  1.
<mgrwt>
<rscale>  0 0.20173078E+04</rscale>
<asrwt>0</asrwt>
<pdfrwt beam="1">  1        1 0.22379980E+00 0.20173078E+04</pdfrwt>
<pdfrwt beam="2">  1       -1 0.10759645E+00 0.20173078E+04</pdfrwt>
<totfact> 0.52385401E+00</totfact>
</mgrwt>
</event>
<event>
12    1  0.1496989E-007  0.2259682E+04  0.7818608E-02  0.8493990E-01
         -1   -1    0    0    0  501 -0.00000000000E+00  0.00000000000E+00  0.70419702969E+03  0.70419702969E+03  0.00000000000E+00 0.  1.
          1   -1    0    0  501    0  0.00000000000E+00 -0.00000000000E+00 -0.18127608000E+04  0.18127608000E+04  0.00000000000E+00 0. -1.
         23    2    1    2    0    0  0.18450408180E+03  0.38373917178E+03 -0.14095027621E+04  0.14753360639E+04  0.92849109052E+02 0.  0.
        254    2    1    2    0    0 -0.18450408180E+03 -0.38373917178E+03  0.30093899177E+03  0.10416217658E+04  0.90172840589E+03 0.  0.
        -24    2    4    4    0    0 -0.53915410256E+03 -0.27711026587E+03  0.24502392454E+03  0.65868897492E+03  0.79732028217E+02 0.  0.
         24    2    4    4    0    0  0.35465002076E+03 -0.10662890592E+03  0.55915067228E+02  0.38293279085E+03  0.79778861614E+02 0.  0.
         13    1    3    3    0    0  0.17257134157E+03  0.30132263023E+03 -0.12175402431E+04  0.12660886379E+04  0.00000000000E+00 0. -1.
        -13    1    3    3    0    0  0.11932740234E+02  0.82416541556E+02 -0.19196251898E+03  0.20924742604E+03  0.00000000000E+00 0.  1.
          2    1    6    6  502    0  0.23142372119E+03 -0.10823590477E+03  0.41997752640E+02  0.25891265137E+03  0.00000000000E+00 0. -1.
          3    1    5    5  503    0 -0.39895178758E+03 -0.20051073492E+03  0.14180254005E+03  0.46848163677E+03  0.00000000000E+00 0. -1.
         -4    1    5    5    0  503 -0.14020231499E+03 -0.76599530947E+02  0.10322138449E+03  0.19020733815E+03  0.00000000000E+00 0.  1.
         -1    1    6    6    0  502  0.12322629957E+03  0.16069988563E+01  0.13917314588E+02  0.12402013948E+03  0.00000000000E+00 0.  1.
<mgrwt>
<rscale>  0 0.22596821E+04</rscale>
<asrwt>0</asrwt>
<pdfrwt beam="1">  1        1 0.27888627E+00 0.22596821E+04</pdfrwt>
<pdfrwt beam="2">  1       -1 0.10833801E+00 0.22596821E+04</pdfrwt>
<totfact> 0.28652096E+00</totfact>
</mgrwt>
</event>
<event>
12    1  0.1496989E-007  0.2312995E+04  0.7818608E-02  0.8472815E-01
          1   -1    0    0  501    0  0.00000000000E+00  0.00000000000E+00  0.27763139227E+04  0.27763139227E+04  0.00000000000E+00 0. -1.
         -1   -1    0    0    0  501 -0.00000000000E+00 -0.00000000000E+00 -0.48174918452E+03  0.48174918452E+03  0.00000000000E+00 0.  1.
         23    2    1    2    0    0  0.84064305445E+03 -0.44643027679E+03  0.63514673386E+03  0.11478382365E+04  0.90224755684E+02 0.  0.
        254    2    1    2    0    0 -0.84064305445E+03  0.44643027679E+03  0.16594180043E+04  0.21102248708E+04  0.89073012473E+03 0.  0.
        -24    2    4    4    0    0 -0.79660137995E+03  0.36939505683E+02  0.70364132026E+03  0.10664377990E+04  0.78994847182E+02 0.  0.
         24    2    4    4    0    0 -0.44041674492E+02  0.40949077111E+03  0.95577668407E+03  0.10437870718E+04  0.79749738086E+02 0.  0.
         13    1    3    3    0    0  0.15453542803E+03 -0.55827866226E+02  0.14040408485E+03  0.21612787003E+03  0.00000000000E+00 0. -1.
        -13    1    3    3    0    0  0.68610762642E+03 -0.39060241056E+03  0.49474264901E+03  0.93171036643E+03  0.00000000000E+00 0.  1.
          2    1    6    6  502    0 -0.18904547339E+02  0.15249253648E+02  0.62701625549E+02  0.67241471529E+02  0.00000000000E+00 0. -1.
          3    1    5    5  503    0 -0.19674380863E+03  0.41291872823E+02  0.16120288007E+03  0.25768103062E+03  0.00000000000E+00 0. -1.
         -4    1    5    5    0  503 -0.59985757132E+03 -0.43523671400E+01  0.54243844019E+03  0.80875676836E+03  0.00000000000E+00 0.  1.
         -1    1    6    6    0  502 -0.25137127153E+02  0.39424151746E+03  0.89307505852E+03  0.97654560026E+03  0.00000000000E+00 0.  1.
<mgrwt>
<rscale>  0 0.23129954E+04</rscale>
<asrwt>0</asrwt>
<pdfrwt beam="1">  1        1 0.42712521E+00 0.23129954E+04</pdfrwt>
<pdfrwt beam="2">  1       -1 0.74115261E-01 0.23129954E+04</pdfrwt>
<totfact> 0.14339781E+00</totfact>
</mgrwt>
</event>
<event>
12    1  0.1496989E-007  0.1282418E+04  0.7818608E-02  0.9043625E-01
          2   -1    0    0  501    0  0.00000000000E+00  0.00000000000E+00  0.21725511239E+04  0.21725511239E+04  0.00000000000E+00 0. -1.
         -2   -1    0    0    0  501 -0.00000000000E+00 -0.00000000000E+00 -0.18924713747E+03  0.18924713747E+03  0.00000000000E+00 0.  1.
         23    2    1    2    0    0  0.39245385703E+02  0.30234484722E+02  0.10615908368E+04  0.10668275735E+04  0.93228978516E+02 0.  0.
        254    2    1    2    0    0 -0.39245385703E+02 -0.30234484722E+02  0.92171314962E+03  0.12949706879E+04  0.90826187185E+03 0.  0.
        -24    2    4    4    0    0  0.30356247745E+02 -0.18731381155E+03 -0.11867354368E+03  0.23739285593E+03  0.79145387111E+02 0.  0.
         24    2    4    4    0    0 -0.69601633448E+02  0.15707932682E+03  0.10403866933E+04  0.10575778319E+04  0.80920310736E+02 0.  0.
         11    1    3    3    0    0 -0.18727621230E+02 -0.76637811833E+00  0.55270610125E+02  0.58362243582E+02  0.00000000000E+00 0.  1.
        -11    1    3    3    0    0  0.57973006933E+02  0.31000862840E+02  0.10063202266E+04  0.10084653299E+04  0.00000000000E+00 0. -1.
          4    1    6    6  502    0 -0.26291004860E+02  0.82712027373E+02  0.74106655856E+03  0.74613144997E+03  0.00000000000E+00 0. -1.
          3    1    5    5  503    0  0.12359929779E+02 -0.55751961244E+02 -0.81473290959E+02  0.99493447957E+02  0.00000000000E+00 0. -1.
         -4    1    5    5    0  503  0.17996317966E+02 -0.13156185030E+03 -0.37200252725E+02  0.13789940797E+03  0.00000000000E+00 0.  1.
         -3    1    6    6    0  502 -0.43310628588E+02  0.74367299450E+02  0.29932013475E+03  0.31144638197E+03  0.00000000000E+00 0.  1.
<mgrwt>
<rscale>  0 0.12824182E+04</rscale>
<asrwt>0</asrwt>
<pdfrwt beam="1">  1        2 0.33423862E+00 0.12824182E+04</pdfrwt>
<pdfrwt beam="2">  1       -2 0.29114946E-01 0.12824182E+04</pdfrwt>
<totfact> 0.57051434E+01</totfact>
</mgrwt>
</event>
<event>
12    1  0.1496989E-007  0.1146362E+04  0.7818608E-02  0.9161146E-01
          2   -1    0    0  501    0  0.00000000000E+00  0.00000000000E+00  0.22553107004E+04  0.22553107004E+04  0.00000000000E+00 0. -1.
         -2   -1    0    0    0  501 -0.00000000000E+00 -0.00000000000E+00 -0.14567244228E+03  0.14567244228E+03  0.00000000000E+00 0.  1.
         23    2    1    2    0    0 -0.32653379678E+02 -0.13707993161E+02 -0.91431764229E+01  0.97044238492E+02  0.89887898342E+02 0.  0.
        254    2    1    2    0    0  0.32653379678E+02  0.13707993161E+02  0.21187814345E+04  0.23039389042E+04  0.90423755431E+03 0.  0.
        -24    2    4    4    0    0  0.22971038075E+03  0.29737890602E+03  0.42268582363E+03  0.57117505427E+03  0.79853392800E+02 0.  0.
         24    2    4    4    0    0 -0.19705700108E+03 -0.28367091286E+03  0.16960956109E+04  0.17327638499E+04  0.80184723014E+02 0.  0.
         13    1    3    3    0    0  0.14205077344E+02 -0.36530979588E+02  0.11708355010E+02  0.40906995355E+02  0.00000000000E+00 0. -1.
        -13    1    3    3    0    0 -0.46858457021E+02  0.22822986426E+02 -0.20851531433E+02  0.56137243136E+02  0.00000000000E+00 0.  1.
          2    1    6    6  502    0 -0.19440186198E+03 -0.23758342095E+03  0.15221251482E+04  0.15527726597E+04  0.00000000000E+00 0. -1.
          3    1    5    5  503    0  0.23570909013E+03  0.29355190132E+03  0.41851795474E+03  0.56292874538E+03  0.00000000000E+00 0. -1.
         -4    1    5    5    0  503 -0.59987093721E+01  0.38270047001E+01  0.41678688976E+01  0.82463088866E+01  0.00000000000E+00 0.  1.
         -1    1    6    6    0  502 -0.26551390993E+01 -0.46087491914E+02  0.17397046268E+03  0.17999119023E+03  0.00000000000E+00 0.  1.
<mgrwt>
<rscale>  0 0.11463623E+04</rscale>
<asrwt>0</asrwt>
<pdfrwt beam="1">  1        2 0.34697085E+00 0.11463623E+04</pdfrwt>
<pdfrwt beam="2">  1       -2 0.22411147E-01 0.11463623E+04</pdfrwt>
<totfact> 0.83476185E+01</totfact>
</mgrwt>
</event>
<event>
12    1  0.1496989E-007  0.1738229E+04  0.7818608E-02  0.8739856E-01
          2   -1    0    0  501    0  0.00000000000E+00  0.00000000000E+00  0.13121298688E+04  0.13121298688E+04  0.00000000000E+00 0. -1.
         -2   -1    0    0    0  501 -0.00000000000E+00 -0.00000000000E+00 -0.57567470674E+03  0.57567470674E+03  0.00000000000E+00 0.  1.
         23    2    1    2    0    0  0.11603468254E+03  0.35902584952E+03  0.82270773765E+03  0.90973909725E+03  0.91725652365E+02 0.  0.
        254    2    1    2    0    0 -0.11603468254E+03 -0.35902584952E+03 -0.86252575549E+02  0.97806547833E+03  0.89822545329E+03 0.  0.
        -24    2    4    4    0    0 -0.39077277229E+02  0.28347043907E+03 -0.13062695137E+03  0.32461517958E+03  0.80181612377E+02 0.  0.
         24    2    4    4    0    0 -0.76957405314E+02 -0.64249628859E+03  0.44374375824E+02  0.65345029875E+03  0.79399525301E+02 0.  0.
         11    1    3    3    0    0  0.46440113273E+02  0.24232753076E+03  0.60142372847E+03  0.65006908668E+03  0.00000000000E+00 0. -1.
        -11    1    3    3    0    0  0.69594569270E+02  0.11669831876E+03  0.22128400918E+03  0.25967001058E+03  0.00000000000E+00 0.  1.
          2    1    6    6  502    0  0.32254353535E+01 -0.20250577726E+03 -0.10820362160E+02  0.20282029853E+03  0.00000000000E+00 0. -1.
          1    1    5    5  503    0  0.11378010212E+01  0.14043387412E+03 -0.25831455908E+02  0.14279436861E+03  0.00000000000E+00 0. -1.
         -2    1    5    5    0  503 -0.40215078250E+02  0.14303656495E+03 -0.10479549547E+03  0.18182081097E+03  0.00000000000E+00 0.  1.
         -1    1    6    6    0  502 -0.80182840668E+02 -0.43999051133E+03  0.55194737984E+02  0.45063000022E+03  0.00000000000E+00 0.  1.
<mgrwt>
<rscale>  0 0.17382290E+04</rscale>
<asrwt>0</asrwt>
<pdfrwt beam="1">  1        2 0.20186613E+00 0.17382290E+04</pdfrwt>
<pdfrwt beam="2">  1       -2 0.88565340E-01 0.17382290E+04</pdfrwt>
<totfact> 0.16923845E+01</totfact>
</mgrwt>
</event>
<event>
12    1  0.1496989E-007  0.2054350E+04  0.7818608E-02  0.8581623E-01
         -2   -1    0    0    0  501 -0.00000000000E+00  0.00000000000E+00  0.60698545874E+03  0.60698545874E+03  0.00000000000E+00 0. -1.
          2   -1    0    0  501    0  0.00000000000E+00 -0.00000000000E+00 -0.17382435808E+04  0.17382435808E+04  0.00000000000E+00 0.  1.
         23    2    1    2    0    0 -0.25121567451E+03  0.20097878935E+02  0.44841951796E+03  0.52231720752E+03  0.90675031414E+02 0.  0.
        254    2    1    2    0    0  0.25121567451E+03 -0.20097878935E+02 -0.15796776400E+04  0.18229118320E+04  0.87413549355E+03 0.  0.
        -24    2    4    4    0    0  0.34932324921E+03  0.56239714421E+02 -0.16225480080E+03  0.39784183903E+03  0.82230593948E+02 0.  0.
         24    2    4    4    0    0 -0.98107574698E+02 -0.76337593357E+02 -0.14174228392E+04  0.14250699930E+04  0.79274557250E+02 0.  0.
         13    1    3    3    0    0 -0.11596590432E+03 -0.15698960263E+02  0.27932193542E+03  0.30284532673E+03  0.00000000000E+00 0. -1.
        -13    1    3    3    0    0 -0.13524977019E+03  0.35796839199E+02  0.16909758255E+03  0.21947188079E+03  0.00000000000E+00 0.  1.
          2    1    6    6  502    0 -0.10158787686E+03 -0.71992109924E+02 -0.10149681373E+04  0.10225767846E+04  0.00000000000E+00 0. -1.
          1    1    5    5  503    0  0.31615900984E+03  0.39419873709E+02 -0.16804564678E+03  0.36020797513E+03  0.00000000000E+00 0. -1.
         -2    1    5    5    0  503  0.33164239366E+02  0.16819840713E+02  0.57908459801E+01  0.37633863893E+02  0.00000000000E+00 0.  1.
         -1    1    6    6    0  502  0.34803021655E+01 -0.43454834328E+01 -0.40245470185E+03  0.40249320835E+03  0.00000000000E+00 0.  1.
<mgrwt>
<rscale>  0 0.20543501E+04</rscale>
<asrwt>0</asrwt>
<pdfrwt beam="1">  1        2 0.26742209E+00 0.20543501E+04</pdfrwt>
<pdfrwt beam="2">  1       -2 0.93382380E-01 0.20543501E+04</pdfrwt>
<totfact> 0.83795234E+00</totfact>
</mgrwt>
</event>
<event>
12    1  0.1496989E-007  0.1448389E+04  0.7818608E-02  0.8919518E-01
         -3   -1    0    0    0  501 -0.00000000000E+00  0.00000000000E+00  0.19382721676E+03  0.19382721676E+03  0.00000000000E+00 0.  1.
          3   -1    0    0  501    0  0.00000000000E+00 -0.00000000000E+00 -0.27058001778E+04  0.27058001778E+04  0.00000000000E+00 0. -1.
         23    2    1    2    0    0  0.39138442416E+03  0.13933632453E+03 -0.48955776758E+03  0.64851836499E+03  0.91175013694E+02 0.  0.
        254    2    1    2    0    0 -0.39138442416E+03 -0.13933632453E+03 -0.20224151935E+04  0.22511090296E+04  0.89706870943E+03 0.  0.
        -24    2    4    4    0    0 -0.80021871979E+02 -0.20638859706E+03 -0.18783537096E+04  0.18931536682E+04  0.82573604306E+02 0.  0.
         24    2    4    4    0    0 -0.31136255218E+03  0.67052272530E+02 -0.14406148390E+03  0.35795536139E+03  0.77043386785E+02 0.  0.
         13    1    3    3    0    0  0.26359121047E+02 -0.71323761213E+01 -0.11955183415E+02  0.29809402242E+02  0.00000000000E+00 0.  1.
        -13    1    3    3    0    0  0.36502530312E+03  0.14646870065E+03 -0.47760258417E+03  0.61870896275E+03  0.00000000000E+00 0. -1.
          2    1    6    6  502    0 -0.37689530570E+02 -0.13408365576E+02 -0.40996363080E+01  0.40213082447E+02  0.00000000000E+00 0. -1.
          1    1    5    5  503    0 -0.66411045883E+02 -0.12828021579E+03 -0.14767730202E+04  0.14838210115E+04  0.00000000000E+00 0. -1.
         -2    1    5    5    0  503 -0.13610826095E+02 -0.78108381268E+02 -0.40158068934E+03  0.40933265673E+03  0.00000000000E+00 0.  1.
         -1    1    6    6    0  502 -0.27367302161E+03  0.80460638106E+02 -0.13996184760E+03  0.31774227894E+03  0.00000000000E+00 0.  1.
<mgrwt>
<rscale>  0 0.14483891E+04</rscale>
<asrwt>0</asrwt>
<pdfrwt beam="1">  1        3 0.41627690E+00 0.14483891E+04</pdfrwt>
<pdfrwt beam="2">  1       -3 0.29819576E-01 0.14483891E+04</pdfrwt>
<totfact> 0.25769231E-01</totfact>
</mgrwt>
</event>
<event>
12    1  0.1496989E-007  0.1233831E+04  0.7818608E-02  0.9083749E-01
          2   -1    0    0  501    0  0.00000000000E+00  0.00000000000E+00  0.18068907847E+04  0.18068907847E+04  0.00000000000E+00 0. -1.
         -2   -1    0    0    0  501 -0.00000000000E+00 -0.00000000000E+00 -0.21062971151E+03  0.21062971151E+03  0.00000000000E+00 0.  1.
         23    2    1    2    0    0 -0.21482409845E+03  0.70809205111E+02  0.12105312106E+03  0.27368411669E+03  0.95319467106E+02 0.  0.
        254    2    1    2    0    0  0.21482409845E+03 -0.70809205111E+02  0.14752079521E+04  0.17438363795E+04  0.90197753835E+03 0.  0.
        -24    2    4    4    0    0  0.28457393638E+03 -0.43817773405E+03  0.10279082171E+04  0.11559459401E+04  0.81447294271E+02 0.  0.
         24    2    4    4    0    0 -0.69749837936E+02  0.36736852893E+03  0.44729973500E+03  0.58789043940E+03  0.75587299617E+02 0.  0.
         11    1    3    3    0    0 -0.66869062613E+02  0.56102082595E+02  0.82449697141E+02  0.12007026178E+03  0.00000000000E+00 0. -1.
        -11    1    3    3    0    0 -0.14795503584E+03  0.14707122517E+02  0.38603423916E+02  0.15361385491E+03  0.00000000000E+00 0.  1.
          2    1    6    6  502    0 -0.64200841470E+02  0.14021676849E+03  0.18594632269E+03  0.24157509212E+03  0.00000000000E+00 0. -1.
          3    1    5    5  503    0  0.22859412306E+03 -0.29762396344E+03  0.68287383634E+03  0.77919957204E+03  0.00000000000E+00 0. -1.
         -2    1    5    5    0  503  0.55979813326E+02 -0.14055377060E+03  0.34503438075E+03  0.37674636804E+03  0.00000000000E+00 0.  1.
         -1    1    6    6    0  502 -0.55489964655E+01  0.22715176045E+03  0.26135341231E+03  0.34631534728E+03  0.00000000000E+00 0.  1.
<mgrwt>
<rscale>  0 0.12338312E+04</rscale>
<asrwt>0</asrwt>
<pdfrwt beam="1">  1        2 0.27798319E+00 0.12338312E+04</pdfrwt>
<pdfrwt beam="2">  1       -2 0.32404572E-01 0.12338312E+04</pdfrwt>
<totfact> 0.74717056E+01</totfact>
</mgrwt>
</event>
<event>
12    1  0.1496989E-007  0.3688991E+04  0.7818608E-02  0.8070406E-01
          1   -1    0    0  501    0  0.00000000000E+00  0.00000000000E+00  0.32060901504E+04  0.32060901504E+04  0.00000000000E+00 0. -1.
         -1   -1    0    0    0  501 -0.00000000000E+00 -0.00000000000E+00 -0.10611566164E+04  0.10611566164E+04  0.00000000000E+00 0.  1.
         23    2    1    2    0    0  0.36380898302E+03  0.15105662005E+04  0.11867315703E+03  0.15609784858E+04  0.91669474846E+02 0.  0.
        254    2    1    2    0    0 -0.36380898302E+03 -0.15105662005E+04  0.20262603770E+04  0.27062682810E+04  0.89665471112E+03 0.  0.
        -24    2    4    4    0    0 -0.63836182364E+03 -0.95618621159E+03  0.11259449060E+04  0.16109626403E+04  0.75171855420E+02 0.  0.
         24    2    4    4    0    0  0.27455284062E+03 -0.55437998892E+03  0.90031547102E+03  0.10953056407E+04  0.80062880592E+02 0.  0.
         11    1    3    3    0    0  0.31769460666E+03  0.13643489605E+04  0.81489776498E+02  0.14032172080E+04  0.00000000000E+00 0. -1.
        -11    1    3    3    0    0  0.46114376357E+02  0.14621724003E+03  0.37183380533E+02  0.15776127781E+03  0.00000000000E+00 0.  1.
          4    1    6    6  502    0  0.23373291367E+02 -0.11693651874E+03  0.18077649899E+03  0.21656546989E+03  0.00000000000E+00 0. -1.
          3    1    5    5  503    0 -0.23298318350E+03 -0.37043696528E+03  0.38074481116E+03  0.58006147973E+03  0.00000000000E+00 0. -1.
         -4    1    5    5    0  503 -0.40537864015E+03 -0.58574924631E+03  0.74520009484E+03  0.10309011605E+04  0.00000000000E+00 0.  1.
         -3    1    6    6    0  502  0.25117954926E+03 -0.43744347018E+03  0.71953897204E+03  0.87874017084E+03  0.00000000000E+00 0.  1.
<mgrwt>
<rscale>  0 0.36889911E+04</rscale>
<asrwt>0</asrwt>
<pdfrwt beam="1">  1        1 0.49324463E+00 0.36889911E+04</pdfrwt>
<pdfrwt beam="2">  1       -1 0.16325487E+00 0.36889911E+04</pdfrwt>
<totfact> 0.93192476E-02</totfact>
</mgrwt>
</event>
<event>
12    1  0.1496989E-007  0.2021232E+04  0.7818608E-02  0.8596758E-01
          1   -1    0    0  501    0  0.00000000000E+00  0.00000000000E+00  0.18408756795E+04  0.18408756795E+04  0.00000000000E+00 0. -1.
         -1   -1    0    0    0  501 -0.00000000000E+00 -0.00000000000E+00 -0.55481487083E+03  0.55481487083E+03  0.00000000000E+00 0.  1.
         23    2    1    2    0    0  0.61279289976E+03  0.38846952406E+03  0.93843562716E+03  0.11894829412E+04  0.88229994277E+02 0.  0.
        254    2    1    2    0    0 -0.61279289976E+03 -0.38846952406E+03  0.34762518150E+03  0.12062076092E+04  0.89870452343E+03 0.  0.
        -24    2    4    4    0    0 -0.37045661133E+03 -0.62451539259E+03  0.24218234818E+02  0.73119444279E+03  0.82469472042E+02 0.  0.
         24    2    4    4    0    0 -0.24233628843E+03  0.23604586853E+03  0.32340694668E+03  0.47501316636E+03  0.81246084884E+02 0.  0.
         13    1    3    3    0    0  0.59417984962E+03  0.39198973204E+03  0.91739227218E+03  0.11611693351E+04  0.00000000000E+00 0. -1.
        -13    1    3    3    0    0  0.18613050146E+02 -0.35202079846E+01  0.21043354988E+02  0.28313606078E+02  0.00000000000E+00 0.  1.
          4    1    6    6  502    0 -0.17405023715E+03  0.11977738398E+03  0.22055947849E+03  0.30542853553E+03  0.00000000000E+00 0. -1.
          3    1    5    5  503    0 -0.33161685743E+03 -0.53292813281E+03  0.45972410998E+02  0.62936126147E+03  0.00000000000E+00 0. -1.
         -4    1    5    5    0  503 -0.38839753905E+02 -0.91587259778E+02 -0.21754176180E+02  0.10183318132E+03  0.00000000000E+00 0.  1.
         -3    1    6    6    0  502 -0.68286051285E+02  0.11626848455E+03  0.10284746819E+03  0.16958463083E+03  0.00000000000E+00 0.  1.
<mgrwt>
<rscale>  0 0.20212325E+04</rscale>
<asrwt>0</asrwt>
<pdfrwt beam="1">  1        1 0.28321164E+00 0.20212325E+04</pdfrwt>
<pdfrwt beam="2">  1       -1 0.85356135E-01 0.20212325E+04</pdfrwt>
<totfact> 0.48002789E+00</totfact>
</mgrwt>
</event>
<event>
12    1  0.1496989E-007  0.1416791E+04  0.7818608E-02  0.8941753E-01
          2   -1    0    0  501    0  0.00000000000E+00  0.00000000000E+00  0.24222125816E+04  0.24222125816E+04  0.00000000000E+00 0. -1.
         -2   -1    0    0    0  501 -0.00000000000E+00 -0.00000000000E+00 -0.20717600411E+03  0.20717600411E+03  0.00000000000E+00 0.  1.
         23    2    1    2    0    0 -0.28717490288E+03  0.20624912970E+03  0.34904019185E+03  0.50524557775E+03  0.91847209917E+02 0.  0.
        254    2    1    2    0    0  0.28717490288E+03 -0.20624912970E+03  0.18659963857E+04  0.21241430080E+04  0.95133216001E+03 0.  0.
        -24    2    4    4    0    0 -0.17957819505E+02 -0.52692656324E+03  0.12690301333E+04  0.13765606360E+04  0.80669815896E+02 0.  0.
         24    2    4    4    0    0  0.30513272238E+03  0.32067743353E+03  0.59696625238E+03  0.74758237193E+03  0.81059864874E+02 0.  0.
         11    1    3    3    0    0 -0.56605996096E+02  0.65475962569E+02  0.41760916574E+02  0.96100544335E+02  0.00000000000E+00 0. -1.
        -11    1    3    3    0    0 -0.23056890678E+03  0.14077316713E+03  0.30727927527E+03  0.40914503342E+03  0.00000000000E+00 0.  1.
          2    1    6    6  502    0  0.41677066008E-01  0.91385281030E+01  0.10920009844E+01  0.92036350980E+01  0.00000000000E+00 0. -1.
          3    1    5    5  503    0  0.21584354136E+02 -0.12471715918E+03  0.36443765352E+03  0.38579146885E+03  0.00000000000E+00 0. -1.
         -4    1    5    5    0  503 -0.39542173641E+02 -0.40220940406E+03  0.90459247976E+03  0.99076916719E+03  0.00000000000E+00 0.  1.
         -1    1    6    6    0  502  0.30509104532E+03  0.31153890543E+03  0.59587425140E+03  0.73837873684E+03  0.00000000000E+00 0.  1.
<mgrwt>
<rscale>  0 0.14167912E+04</rscale>
<asrwt>0</asrwt>
<pdfrwt beam="1">  1        2 0.37264807E+00 0.14167912E+04</pdfrwt>
<pdfrwt beam="2">  1       -2 0.31873233E-01 0.14167912E+04</pdfrwt>
<totfact> 0.34447115E+01</totfact>
</mgrwt>
</event>
<event>
12    1  0.1496989E-007  0.3270554E+04  0.7818608E-02  0.8170429E-01
         -2   -1    0    0    0  501 -0.00000000000E+00  0.00000000000E+00  0.10595205955E+04  0.10595205955E+04  0.00000000000E+00 0.  1.
          2   -1    0    0  501    0  0.00000000000E+00 -0.00000000000E+00 -0.25239067481E+04  0.25239067481E+04  0.00000000000E+00 0. -1.
         23    2    1    2    0    0 -0.18392815157E+03 -0.83381157318E+03  0.68655040334E+03  0.10996360659E+04  0.93684132103E+02 0.  0.
        254    2    1    2    0    0  0.18392815157E+03  0.83381157318E+03 -0.21509365559E+04  0.24837912777E+04  0.90200872440E+03 0.  0.
        -24    2    4    4    0    0  0.52993916020E+01 -0.13271820097E+03 -0.54533323865E+02  0.16702123381E+03  0.85322943640E+02 0.  0.
         24    2    4    4    0    0  0.17862875996E+03  0.96652977414E+03 -0.20964032321E+04  0.23167700439E+04  0.80180337656E+02 0.  0.
         13    1    3    3    0    0 -0.47189963556E+02 -0.87471568614E+02  0.64544019145E+02  0.11850779883E+03  0.00000000000E+00 0. -1.
        -13    1    3    3    0    0 -0.13673818801E+03 -0.74634000457E+03  0.62200638419E+03  0.98112826707E+03  0.00000000000E+00 0.  1.
          4    1    6    6  502    0  0.45680549223E+02  0.26381961558E+03 -0.65781538528E+03  0.71021727890E+03  0.00000000000E+00 0. -1.
          3    1    5    5  503    0 -0.34915453033E+02 -0.40016782336E+02 -0.20293293002E+01  0.53146494771E+02  0.00000000000E+00 0. -1.
         -4    1    5    5    0  503  0.40214844635E+02 -0.92701418629E+02 -0.52503994565E+02  0.11387473903E+03  0.00000000000E+00 0.  1.
         -3    1    6    6    0  502  0.13294821074E+03  0.70271015857E+03 -0.14385878468E+04  0.16065527650E+04  0.00000000000E+00 0.  1.
<mgrwt>
<rscale>  0 0.32705542E+04</rscale>
<asrwt>0</asrwt>
<pdfrwt beam="1">  1        2 0.38829334E+00 0.32705542E+04</pdfrwt>
<pdfrwt beam="2">  1       -2 0.16300317E+00 0.32705542E+04</pdfrwt>
<totfact> 0.67562416E-01</totfact>
</mgrwt>
</event>
<event>
12    1  0.1496989E-007  0.1328133E+04  0.7818608E-02  0.9007548E-01
         -1   -1    0    0    0  501 -0.00000000000E+00  0.00000000000E+00  0.30629187775E+03  0.30629187775E+03  0.00000000000E+00 0.  1.
          1   -1    0    0  501    0  0.00000000000E+00 -0.00000000000E+00 -0.14397518562E+04  0.14397518562E+04  0.00000000000E+00 0. -1.
         23    2    1    2    0    0  0.10404454969E+03  0.22260554631E+03 -0.65359374393E+03  0.70414485071E+03  0.90866336451E+02 0.  0.
        254    2    1    2    0    0 -0.10404454969E+03 -0.22260554631E+03 -0.47986623452E+03  0.10418988832E+04  0.89157343068E+03 0.  0.
        -24    2    4    4    0    0  0.29092186582E+03 -0.15434070962E+03 -0.53170310998E+03  0.62998307717E+03  0.75590301643E+02 0.  0.
         24    2    4    4    0    0 -0.39496641551E+03 -0.68264836696E+02  0.51836875459E+02  0.41191580607E+03  0.79555089876E+02 0.  0.
         11    1    3    3    0    0  0.12249953362E+02  0.54306758034E+01 -0.54811308807E+01  0.14477444276E+02  0.00000000000E+00 0.  1.
        -11    1    3    3    0    0  0.91794596330E+02  0.21717487051E+03 -0.64811261305E+03  0.68966740643E+03  0.00000000000E+00 0. -1.
          2    1    6    6  502    0 -0.28888096841E+03 -0.75361159631E+02  0.13368617915E+02  0.29884818594E+03  0.00000000000E+00 0. -1.
          3    1    5    5  503    0  0.19761420946E+03 -0.75031511078E+02 -0.28804754498E+03  0.35728488857E+03  0.00000000000E+00 0. -1.
         -4    1    5    5    0  503  0.93307656360E+02 -0.79309198539E+02 -0.24365556500E+03  0.27269818860E+03  0.00000000000E+00 0.  1.
         -1    1    6    6    0  502 -0.10608544710E+03  0.70963229352E+01  0.38468257543E+02  0.11306762014E+03  0.00000000000E+00 0.  1.
<mgrwt>
<rscale>  0 0.13281330E+04</rscale>
<asrwt>0</asrwt>
<pdfrwt beam="1">  1        1 0.22150029E+00 0.13281330E+04</pdfrwt>
<pdfrwt beam="2">  1       -1 0.47121827E-01 0.13281330E+04</pdfrwt>
<totfact> 0.31724682E+01</totfact>
</mgrwt>
</event>
<event>
12    1  0.1496989E-007  0.1636445E+04  0.7818608E-02  0.8798466E-01
         -2   -1    0    0    0  501 -0.00000000000E+00  0.00000000000E+00  0.11365494785E+04  0.11365494785E+04  0.00000000000E+00 0.  1.
          2   -1    0    0  501    0  0.00000000000E+00 -0.00000000000E+00 -0.58905338138E+03  0.58905338138E+03  0.00000000000E+00 0. -1.
         23    2    1    2    0    0  0.96880331086E+02  0.23974842571E+03 -0.34340391529E+03  0.43888137653E+03  0.88461898241E+02 0.  0.
        254    2    1    2    0    0 -0.96880331086E+02 -0.23974842571E+03  0.89090001237E+03  0.12867214833E+04  0.89167496173E+03 0.  0.
        -24    2    4    4    0    0  0.20879696847E+03  0.11607742633E+03 -0.25416256559E+02  0.25429390095E+03  0.83362215789E+02 0.  0.
         24    2    4    4    0    0 -0.30567729955E+03 -0.35582585204E+03  0.91631626893E+03  0.10324275824E+04  0.78870524685E+02 0.  0.
         13    1    3    3    0    0  0.10852396633E+03  0.21660575960E+03 -0.33091305256E+03  0.41012065873E+03  0.00000000000E+00 0. -1.
        -13    1    3    3    0    0 -0.11643635244E+02  0.23142666110E+02 -0.12490862728E+02  0.28760717794E+02  0.00000000000E+00 0.  1.
          4    1    6    6  502    0 -0.13091530888E+03 -0.95149903583E+02  0.31025802230E+03  0.34993194003E+03  0.00000000000E+00 0. -1.
          3    1    5    5  503    0  0.15040338547E+03  0.42379851623E+02 -0.33865198689E+02  0.15988771643E+03  0.00000000000E+00 0. -1.
         -4    1    5    5    0  503  0.58393582996E+02  0.73697574702E+02  0.84489421295E+01  0.94406184518E+02  0.00000000000E+00 0.  1.
         -3    1    6    6    0  502 -0.17476199067E+03 -0.26067594846E+03  0.60605824663E+03  0.68249564233E+03  0.00000000000E+00 0.  1.
<mgrwt>
<rscale>  0 0.16364453E+04</rscale>
<asrwt>0</asrwt>
<pdfrwt beam="1">  1        2 0.90623598E-01 0.16364453E+04</pdfrwt>
<pdfrwt beam="2">  1       -2 0.17485377E+00 0.16364453E+04</pdfrwt>
<totfact> 0.95418463E+00</totfact>
</mgrwt>
</event>
<event>
12    1  0.1496989E-007  0.1517798E+04  0.7818608E-02  0.8872703E-01
          2   -1    0    0  501    0  0.00000000000E+00  0.00000000000E+00  0.10963432165E+04  0.10963432165E+04  0.00000000000E+00 0. -1.
         -2   -1    0    0    0  501 -0.00000000000E+00 -0.00000000000E+00 -0.52531699036E+03  0.52531699036E+03  0.00000000000E+00 0.  1.
         23    2    1    2    0    0  0.46300105404E+03 -0.14124069521E+03  0.23430099311E+03  0.54546528787E+03  0.91194927922E+02 0.  0.
        254    2    1    2    0    0 -0.46300105404E+03  0.14124069521E+03  0.33672523305E+03  0.10761949190E+04  0.90027368678E+03 0.  0.
        -24    2    4    4    0    0 -0.32580252486E+03 -0.34474991914E+03  0.35321185221E+02  0.48269974693E+03  0.82168531710E+02 0.  0.
         24    2    4    4    0    0 -0.13719852918E+03  0.48599061435E+03  0.30140404782E+03  0.59349517208E+03  0.79886204058E+02 0.  0.
         13    1    3    3    0    0  0.29524205935E+03 -0.44727610948E+02  0.15323868149E+03  0.33563451297E+03  0.00000000000E+00 0. -1.
        -13    1    3    3    0    0  0.16775899469E+03 -0.96513084259E+02  0.81062311619E+02  0.20983077490E+03  0.00000000000E+00 0.  1.
          4    1    6    6  502    0 -0.14389615826E+03  0.40799154124E+03  0.24709909343E+03  0.49821798849E+03  0.00000000000E+00 0. -1.
          3    1    5    5  503    0 -0.17506464838E+03 -0.22447561152E+03  0.51076673026E+02  0.28921576341E+03  0.00000000000E+00 0. -1.
         -4    1    5    5    0  503 -0.15073787648E+03 -0.12027430762E+03 -0.15755487805E+02  0.19348398352E+03  0.00000000000E+00 0.  1.
         -3    1    6    6    0  502  0.66976290818E+01  0.77999073111E+02  0.54304954390E+02  0.95277183590E+02  0.00000000000E+00 0.  1.
<mgrwt>
<rscale>  0 0.15177980E+04</rscale>
<asrwt>0</asrwt>
<pdfrwt beam="1">  1        2 0.16866819E+00 0.15177980E+04</pdfrwt>
<pdfrwt beam="2">  1       -2 0.80817999E-01 0.15177980E+04</pdfrwt>
<totfact> 0.28553261E+01</totfact>
</mgrwt>
</event>
<event>
12    1  0.1496989E-007  0.3553833E+04  0.7818608E-02  0.8101149E-01
         -2   -1    0    0    0  501 -0.00000000000E+00  0.00000000000E+00  0.97001360563E+03  0.97001360563E+03  0.00000000000E+00 0.  1.
          2   -1    0    0  501    0  0.00000000000E+00 -0.00000000000E+00 -0.32550392294E+04  0.32550392294E+04  0.00000000000E+00 0. -1.
         23    2    1    2    0    0  0.14345551027E+04  0.81022502846E+03 -0.13506502918E+04  0.21324208254E+04  0.92463106941E+02 0.  0.
        254    2    1    2    0    0 -0.14345551027E+04 -0.81022502846E+03 -0.93437533191E+03  0.20926320096E+04  0.88974070786E+03 0.  0.
        -24    2    4    4    0    0 -0.44500198923E+03 -0.60482461871E+03 -0.74596935244E+03  0.10614841825E+04  0.80242164917E+02 0.  0.
         24    2    4    4    0    0 -0.98955311351E+03 -0.20540040975E+03 -0.18840597947E+03  0.10311478271E+04  0.79776785662E+02 0.  0.
         11    1    3    3    0    0  0.71587373862E+03  0.44226959275E+03 -0.73102466942E+03  0.11146634782E+04  0.00000000000E+00 0. -1.
        -11    1    3    3    0    0  0.71868136411E+03  0.36795543572E+03 -0.61962562239E+03  0.10177573472E+04  0.00000000000E+00 0.  1.
          4    1    6    6  502    0 -0.42044668860E+03 -0.94307996772E+02 -0.40889094820E+02  0.43282945173E+03  0.00000000000E+00 0. -1.
          3    1    5    5  503    0 -0.35729970610E+03 -0.46510834774E+03 -0.62371008987E+03  0.85615602043E+03  0.00000000000E+00 0. -1.
         -4    1    5    5    0  503 -0.87702283131E+02 -0.13971627098E+03 -0.12225926257E+03  0.20532816204E+03  0.00000000000E+00 0.  1.
         -1    1    6    6    0  502 -0.56910642491E+03 -0.11109241298E+03 -0.14751688465E+03  0.59831837541E+03  0.00000000000E+00 0.  1.
<mgrwt>
<rscale>  0 0.35538331E+04</rscale>
<asrwt>0</asrwt>
<pdfrwt beam="1">  1        2 0.50077528E+00 0.35538331E+04</pdfrwt>
<pdfrwt beam="2">  1       -2 0.14923286E+00 0.35538331E+04</pdfrwt>
<totfact> 0.29613000E-01</totfact>
</mgrwt>
</event>
<event>
12    1  0.1496989E-007  0.1296203E+04  0.7818608E-02  0.9032582E-01
          2   -1    0    0  501    0  0.00000000000E+00  0.00000000000E+00  0.23326543879E+04  0.23326543879E+04  0.00000000000E+00 0. -1.
         -2   -1    0    0    0  501 -0.00000000000E+00 -0.00000000000E+00 -0.18006754993E+03  0.18006754993E+03  0.00000000000E+00 0.  1.
         23    2    1    2    0    0 -0.28828863153E+03  0.53201314067E+01  0.26254233345E+03  0.40040321027E+03  0.90860415340E+02 0.  0.
        254    2    1    2    0    0  0.28828863153E+03 -0.53201314067E+01  0.18900445046E+04  0.21123187276E+04  0.89804428560E+03 0.  0.
        -24    2    4    4    0    0 -0.11380135948E+03 -0.28421887037E+03  0.13139182951E+04  0.13515780321E+04  0.81552283301E+02 0.  0.
         24    2    4    4    0    0  0.40208999101E+03  0.27889873897E+03  0.57612620945E+03  0.76074069552E+03  0.85697894528E+02 0.  0.
         11    1    3    3    0    0 -0.14608469756E+03  0.27212363223E+02  0.18390465544E+03  0.23643640555E+03  0.00000000000E+00 0. -1.
        -11    1    3    3    0    0 -0.14220393396E+03 -0.21892231816E+02  0.78637678004E+02  0.16396680472E+03  0.00000000000E+00 0.  1.
          2    1    6    6  502    0  0.40502417154E+03  0.26948085011E+03  0.56873583006E+03  0.74841496010E+03  0.00000000000E+00 0. -1.
          3    1    5    5  503    0 -0.48060613981E+02 -0.21583278668E+03  0.96346954011E+03  0.98851766253E+03  0.00000000000E+00 0. -1.
         -4    1    5    5    0  503 -0.65740745503E+02 -0.68386083695E+02  0.35044875499E+03  0.36306036955E+03  0.00000000000E+00 0.  1.
         -1    1    6    6    0  502 -0.29341805302E+01  0.94178888597E+01  0.73903793897E+01  0.12325735413E+02  0.00000000000E+00 0.  1.
<mgrwt>
<rscale>  0 0.12962027E+04</rscale>
<asrwt>0</asrwt>
<pdfrwt beam="1">  1        2 0.35886988E+00 0.12962027E+04</pdfrwt>
<pdfrwt beam="2">  1       -2 0.27702702E-01 0.12962027E+04</pdfrwt>
<totfact> 0.50796446E+01</totfact>
</mgrwt>
</event>
<event>
12    1  0.1496989E-007  0.1175591E+04  0.7818608E-02  0.9134494E-01
          2   -1    0    0  501    0  0.00000000000E+00  0.00000000000E+00  0.21711060707E+04  0.21711060707E+04  0.00000000000E+00 0. -1.
         -2   -1    0    0    0  501 -0.00000000000E+00 -0.00000000000E+00 -0.15913719572E+03  0.15913719572E+03  0.00000000000E+00 0.  1.
         23    2    1    2    0    0 -0.16701862719E+02 -0.22864655612E+03  0.49397902295E+03  0.55197300628E+03  0.90004026044E+02 0.  0.
        254    2    1    2    0    0  0.16701862719E+02  0.22864655612E+03  0.15179898520E+04  0.17782702601E+04  0.89743731109E+03 0.  0.
        -24    2    4    4    0    0 -0.15367771559E+03  0.46768684888E+03  0.46360092332E+03  0.68094697806E+03  0.80094581299E+02 0.  0.
         24    2    4    4    0    0  0.17037957830E+03 -0.23904029275E+03  0.10543889287E+04  0.10973232820E+04  0.78822015364E+02 0.  0.
         11    1    3    3    0    0  0.18797361879E+02 -0.47033238811E+01  0.33587719189E+02  0.38776242075E+02  0.00000000000E+00 0.  1.
        -11    1    3    3    0    0 -0.35499224598E+02 -0.22394323224E+03  0.46039130376E+03  0.51319676420E+03  0.00000000000E+00 0. -1.
          4    1    6    6  502    0  0.17765482567E+02 -0.10578507131E+02  0.16966946382E+03  0.17092467387E+03  0.00000000000E+00 0. -1.
          3    1    5    5  503    0 -0.11472233684E+03  0.31812283181E+03  0.26702780286E+03  0.43089116745E+03  0.00000000000E+00 0. -1.
         -4    1    5    5    0  503 -0.38955378745E+02  0.14956401707E+03  0.19657312045E+03  0.25005581061E+03  0.00000000000E+00 0.  1.
         -3    1    6    6    0  502  0.15261409574E+03 -0.22846178562E+03  0.88471946485E+03  0.92639860816E+03  0.00000000000E+00 0.  1.
<mgrwt>
<rscale>  0 0.11755913E+04</rscale>
<asrwt>0</asrwt>
<pdfrwt beam="1">  1        2 0.33401630E+00 0.11755913E+04</pdfrwt>
<pdfrwt beam="2">  1       -2 0.24482647E-01 0.11755913E+04</pdfrwt>
<totfact> 0.79177302E+01</totfact>
</mgrwt>
</event>
<event>
12    1  0.1496989E-007  0.1330004E+04  0.7818608E-02  0.9006104E-01
          2   -1    0    0  501    0  0.00000000000E+00  0.00000000000E+00  0.98384287760E+03  0.98384287760E+03  0.00000000000E+00 0. -1.
         -2   -1    0    0    0  501 -0.00000000000E+00 -0.00000000000E+00 -0.44949005340E+03  0.44949005340E+03  0.00000000000E+00 0.  1.
         23    2    1    2    0    0 -0.26482995538E+03  0.71360908010E+02  0.38669203002E+03  0.48212464778E+03  0.87670778821E+02 0.  0.
        254    2    1    2    0    0  0.26482995538E+03 -0.71360908010E+02  0.14766079418E+03  0.95120828322E+03  0.89875814515E+03 0.  0.
        -24    2    4    4    0    0 -0.26686446855E+03  0.22062647779E+02  0.27410790394E+03  0.39113343623E+03  0.78401638610E+02 0.  0.
         24    2    4    4    0    0  0.53169442393E+03 -0.93423555788E+02 -0.12644710976E+03  0.56007484699E+03  0.79170963426E+02 0.  0.
         13    1    3    3    0    0 -0.20410135587E+03  0.88127659179E+02  0.27225629868E+03  0.35149301551E+03  0.00000000000E+00 0. -1.
        -13    1    3    3    0    0 -0.60728599513E+02 -0.16766751169E+02  0.11443573134E+03  0.13063163227E+03  0.00000000000E+00 0.  1.
          4    1    6    6  502    0  0.27193283750E+03 -0.87798955683E+02 -0.69462323872E+02  0.29407675727E+03  0.00000000000E+00 0. -1.
          3    1    5    5  503    0 -0.21108029490E+03  0.45481421319E+02  0.23477390404E+03  0.31897058892E+03  0.00000000000E+00 0. -1.
         -4    1    5    5    0  503 -0.55784173652E+02 -0.23418773540E+02  0.39333999906E+02  0.72162847316E+02  0.00000000000E+00 0.  1.
         -3    1    6    6    0  502  0.25976158643E+03 -0.56246001053E+01 -0.56984785891E+02  0.26599808972E+03  0.00000000000E+00 0.  1.
<mgrwt>
<rscale>  0 0.13300039E+04</rscale>
<asrwt>0</asrwt>
<pdfrwt beam="1">  1        2 0.15136044E+00 0.13300039E+04</pdfrwt>
<pdfrwt beam="2">  1       -2 0.69152316E-01 0.13300039E+04</pdfrwt>
<totfact> 0.48190937E+01</totfact>
</mgrwt>
</event>
<event>
12    1  0.1496989E-007  0.2200301E+04  0.7818608E-02  0.8518303E-01
         -1   -1    0    0    0  501 -0.00000000000E+00  0.00000000000E+00  0.10690257648E+04  0.10690257648E+04  0.00000000000E+00 0.  1.
          1   -1    0    0  501    0  0.00000000000E+00 -0.00000000000E+00 -0.11321817910E+04  0.11321817910E+04  0.00000000000E+00 0. -1.
         23    2    1    2    0    0  0.31630056077E+03 -0.13473801828E+03  0.82109653289E+03  0.89481299812E+03  0.91051671938E+02 0.  0.
        254    2    1    2    0    0 -0.31630056077E+03  0.13473801828E+03 -0.88425255911E+03  0.13063945577E+04  0.89808895644E+03 0.  0.
        -24    2    4    4    0    0 -0.59504384978E+03  0.21543971643E+03 -0.72699147304E+03  0.96678389136E+03  0.75253147146E+02 0.  0.
         24    2    4    4    0    0  0.27874328900E+03 -0.80701698152E+02 -0.15726108607E+03  0.33961066630E+03  0.79961054416E+02 0.  0.
         11    1    3    3    0    0  0.29707047498E+03 -0.14757010054E+03  0.78114047705E+03  0.84865083902E+03  0.00000000000E+00 0.  1.
        -11    1    3    3    0    0  0.19230085796E+02  0.12832082257E+02  0.39956055836E+02  0.46162159099E+02  0.00000000000E+00 0. -1.
          4    1    6    6  502    0  0.10679655412E+03 -0.16395653504E+02 -0.10022848372E+03  0.14737730617E+03  0.00000000000E+00 0. -1.
          3    1    5    5  503    0 -0.52748200600E+01  0.49016538137E+00  0.11488839073E+01  0.54206939591E+01  0.00000000000E+00 0. -1.
         -4    1    5    5    0  503 -0.58976902972E+03  0.21494955105E+03 -0.72814035695E+03  0.96136319740E+03  0.00000000000E+00 0.  1.
         -3    1    6    6    0  502  0.17194673488E+03 -0.64306044648E+02 -0.57032602352E+02  0.19223336013E+03  0.00000000000E+00 0.  1.
<mgrwt>
<rscale>  0 0.22003013E+04</rscale>
<asrwt>0</asrwt>
<pdfrwt beam="1">  1        1 0.17418181E+00 0.22003013E+04</pdfrwt>
<pdfrwt beam="2">  1       -1 0.16446550E+00 0.22003013E+04</pdfrwt>
<totfact> 0.29574620E+00</totfact>
</mgrwt>
</event>
<event>
12    1  0.1496989E-007  0.1632557E+04  0.7818608E-02  0.8800793E-01
          1   -1    0    0  501    0  0.00000000000E+00  0.00000000000E+00  0.21908721449E+04  0.21908721449E+04  0.00000000000E+00 0. -1.
         -1   -1    0    0    0  501 -0.00000000000E+00 -0.00000000000E+00 -0.30413041606E+03  0.30413041606E+03  0.00000000000E+00 0.  1.
         23    2    1    2    0    0  0.16078852630E+03 -0.23888198793E+03  0.14100306219E+04  0.14421514204E+04  0.93256690019E+02 0.  0.
        254    2    1    2    0    0 -0.16078852630E+03  0.23888198793E+03  0.47671110697E+03  0.10528511406E+04  0.89349006175E+03 0.  0.
        -24    2    4    4    0    0 -0.49316479187E+02 -0.31681550788E+03  0.40079971528E+02  0.33288214563E+03  0.79999610061E+02 0.  0.
         24    2    4    4    0    0 -0.11147204711E+03  0.55569749581E+03  0.43663113545E+03  0.71996899498E+03  0.80516340921E+02 0.  0.
         13    1    3    3    0    0  0.12859991516E+03 -0.23754783934E+03  0.12796199695E+04  0.13078203931E+04  0.00000000000E+00 0. -1.
        -13    1    3    3    0    0  0.32188611139E+02 -0.13341485926E+01  0.13041065237E+03  0.13433102728E+03  0.00000000000E+00 0.  1.
          2    1    6    6  502    0  0.80530110396E+01  0.13049187261E+03  0.96503891081E+02  0.16249917169E+03  0.00000000000E+00 0. -1.
          1    1    5    5  503    0 -0.54740801038E+02 -0.14387961545E+03  0.43009065615E+02  0.15983641252E+03  0.00000000000E+00 0. -1.
         -2    1    5    5    0  503  0.54243218501E+01 -0.17293589243E+03 -0.29290940871E+01  0.17304573312E+03  0.00000000000E+00 0.  1.
         -1    1    6    6    0  502 -0.11952505815E+03  0.42520562320E+03  0.34012724437E+03  0.55746982330E+03  0.00000000000E+00 0.  1.
<mgrwt>
<rscale>  0 0.16325573E+04</rscale>
<asrwt>0</asrwt>
<pdfrwt beam="1">  1        1 0.33705724E+00 0.16325573E+04</pdfrwt>
<pdfrwt beam="2">  1       -1 0.46789296E-01 0.16325573E+04</pdfrwt>
<totfact> 0.96343685E+00</totfact>
</mgrwt>
</event>
<event>
12    1  0.1496989E-007  0.1328826E+04  0.7818608E-02  0.9007013E-01
          2   -1    0    0  501    0  0.00000000000E+00  0.00000000000E+00  0.13497676525E+04  0.13497676525E+04  0.00000000000E+00 0. -1.
         -2   -1    0    0    0  501 -0.00000000000E+00 -0.00000000000E+00 -0.32705245355E+03  0.32705245355E+03  0.00000000000E+00 0.  1.
         23    2    1    2    0    0 -0.17643319865E+03 -0.76620555350E+02 -0.41138619516E+02  0.21771076190E+03  0.93307056243E+02 0.  0.
        254    2    1    2    0    0  0.17643319865E+03  0.76620555350E+02  0.10638538185E+04  0.14591093442E+04  0.97990598938E+03 0.  0.
        -24    2    4    4    0    0  0.23621749931E+03 -0.33576582717E+03  0.13842954530E+03  0.44117042868E+03  0.83253891496E+02 0.  0.
         24    2    4    4    0    0 -0.59784300664E+02  0.41238638252E+03  0.92542427317E+03  0.10179389155E+04  0.78440162962E+02 0.  0.
         13    1    3    3    0    0 -0.92837886129E+02 -0.30974639563E+02  0.25900135795E+02  0.10123792980E+03  0.00000000000E+00 0. -1.
        -13    1    3    3    0    0 -0.83595312523E+02 -0.45645915787E+02 -0.67038755311E+02  0.11647283210E+03  0.00000000000E+00 0.  1.
          2    1    6    6  502    0 -0.43904328356E+02  0.80697807072E+02  0.20876157979E+03  0.22808139624E+03  0.00000000000E+00 0. -1.
          1    1    5    5  503    0  0.24060707501E+03 -0.30939148453E+03  0.12606362617E+03  0.41171214834E+03  0.00000000000E+00 0. -1.
         -2    1    5    5    0  503 -0.43895756995E+01 -0.26374342645E+02  0.12365919128E+02  0.29458280342E+02  0.00000000000E+00 0.  1.
         -1    1    6    6    0  502 -0.15879972308E+02  0.33168857545E+03  0.71666269339E+03  0.78985751924E+03  0.00000000000E+00 0.  1.
<mgrwt>
<rscale>  0 0.13288263E+04</rscale>
<asrwt>0</asrwt>
<pdfrwt beam="1">  1        2 0.20765656E+00 0.13288263E+04</pdfrwt>
<pdfrwt beam="2">  1       -2 0.50315763E-01 0.13288263E+04</pdfrwt>
<totfact> 0.56508590E+01</totfact>
</mgrwt>
</event>
<event>
12    1  0.1496989E-007  0.1647677E+04  0.7818608E-02  0.8791782E-01
          2   -1    0    0  501    0  0.00000000000E+00  0.00000000000E+00  0.95063243844E+03  0.95063243844E+03  0.00000000000E+00 0. -1.
         -2   -1    0    0    0  501 -0.00000000000E+00 -0.00000000000E+00 -0.71395587448E+03  0.71395587448E+03  0.00000000000E+00 0.  1.
         23    2    1    2    0    0  0.99170309670E+02  0.26255603484E+03  0.58681541957E+03  0.65689158671E+03  0.91563083728E+02 0.  0.
        254    2    1    2    0    0 -0.99170309670E+02 -0.26255603484E+03 -0.35013885561E+03  0.10076967262E+04  0.90226661916E+03 0.  0.
        -24    2    4    4    0    0 -0.20410304003E+03 -0.56548802132E+03 -0.16069702482E+03  0.62696241148E+03  0.76312373912E+02 0.  0.
         24    2    4    4    0    0  0.10493273036E+03  0.30293198648E+03 -0.18944183079E+03  0.38073431473E+03  0.79320519575E+02 0.  0.
         11    1    3    3    0    0  0.93246918694E+02  0.16112031652E+03  0.30505554022E+03  0.35737043367E+03  0.00000000000E+00 0. -1.
        -11    1    3    3    0    0  0.59233909762E+01  0.10143571833E+03  0.28175987935E+03  0.29952115305E+03  0.00000000000E+00 0.  1.
          4    1    6    6  502    0  0.38223636279E+02  0.35429154377E+02 -0.48089105060E+02  0.70914267787E+02  0.00000000000E+00 0. -1.
          1    1    5    5  503    0 -0.96474509001E+02 -0.19262453355E+03 -0.30293246752E+02  0.21755280419E+03  0.00000000000E+00 0. -1.
         -2    1    5    5    0  503 -0.10762853103E+03 -0.37286348778E+03 -0.13040377807E+03  0.40940960729E+03  0.00000000000E+00 0.  1.
         -3    1    6    6    0  502  0.66709094082E+02  0.26750283210E+03 -0.14135272573E+03  0.30982004694E+03  0.00000000000E+00 0.  1.
<mgrwt>
<rscale>  0 0.16476767E+04</rscale>
<asrwt>0</asrwt>
<pdfrwt beam="1">  1        2 0.14625114E+00 0.16476767E+04</pdfrwt>
<pdfrwt beam="2">  1       -2 0.10983936E+00 0.16476767E+04</pdfrwt>
<totfact> 0.17089084E+01</totfact>
</mgrwt>
</event>
<event>
12    1  0.1496989E-007  0.1048687E+04  0.7818608E-02  0.9256701E-01
         -2   -1    0    0    0  501 -0.00000000000E+00  0.00000000000E+00  0.17189306692E+03  0.17189306692E+03  0.00000000000E+00 0.  1.
          2   -1    0    0  501    0  0.00000000000E+00 -0.00000000000E+00 -0.15994587766E+04  0.15994587766E+04  0.00000000000E+00 0. -1.
         23    2    1    2    0    0 -0.34743754124E+02  0.95476508066E+02 -0.29626216272E+03  0.32659419734E+03  0.92572180669E+02 0.  0.
        254    2    1    2    0    0  0.34743754124E+02 -0.95476508066E+02 -0.11313035470E+04  0.14447576462E+04  0.89283483847E+03 0.  0.
        -24    2    4    4    0    0  0.40423919220E+03 -0.13620952798E+03 -0.29397085678E+03  0.52513055768E+03  0.85912036114E+02 0.  0.
         24    2    4    4    0    0 -0.36949543808E+03  0.40733019913E+02 -0.83733269022E+03  0.91962708853E+03  0.80011812702E+02 0.  0.
         13    1    3    3    0    0  0.12086716546E+02  0.24543059481E+02 -0.11959745350E+02  0.29857762716E+02  0.00000000000E+00 0.  1.
        -13    1    3    3    0    0 -0.46830470670E+02  0.70933448585E+02 -0.28430241737E+03  0.29673643463E+03  0.00000000000E+00 0. -1.
          4    1    6    6  502    0 -0.28523121481E+03  0.24262421661E+02 -0.55424104083E+03  0.62380176527E+03  0.00000000000E+00 0. -1.
          3    1    5    5  503    0  0.23707855444E+03 -0.88456299029E+02 -0.22325149643E+03  0.33744923836E+03  0.00000000000E+00 0. -1.
         -4    1    5    5    0  503  0.16716063777E+03 -0.47753228949E+02 -0.70719360351E+02  0.18768131932E+03  0.00000000000E+00 0.  1.
         -3    1    6    6    0  502 -0.84264223269E+02  0.16470598252E+02 -0.28309164939E+03  0.29582532326E+03  0.00000000000E+00 0.  1.
<mgrwt>
<rscale>  0 0.10486866E+04</rscale>
<asrwt>0</asrwt>
<pdfrwt beam="1">  1        2 0.24607058E+00 0.10486866E+04</pdfrwt>
<pdfrwt beam="2">  1       -2 0.26445087E-01 0.10486866E+04</pdfrwt>
<totfact> 0.14383309E+02</totfact>
</mgrwt>
</event>
<event>
12    1  0.1496989E-007  0.1453083E+04  0.7818608E-02  0.8916266E-01
         -2   -1    0    0    0  501 -0.00000000000E+00  0.00000000000E+00  0.25656302351E+03  0.25656302351E+03  0.00000000000E+00 0.  1.
          2   -1    0    0  501    0  0.00000000000E+00 -0.00000000000E+00 -0.20574391312E+04  0.20574391312E+04  0.00000000000E+00 0. -1.
         23    2    1    2    0    0 -0.13085491927E+03  0.16734600635E+03 -0.12031594949E+04  0.12251566104E+04  0.91039848320E+02 0.  0.
        254    2    1    2    0    0  0.13085491927E+03 -0.16734600635E+03 -0.59771661272E+03  0.10888455443E+04  0.88498122830E+03 0.  0.
        -24    2    4    4    0    0  0.66058305173E+02  0.10332917717E+03 -0.74832175816E+03  0.76246635800E+03  0.79554225622E+02 0.  0.
         24    2    4    4    0    0  0.64796614095E+02 -0.27067518351E+03  0.15060514544E+03  0.32637918628E+03  0.79861174797E+02 0.  0.
         11    1    3    3    0    0 -0.48803911267E+01 -0.48052063682E+01 -0.17333669667E+03  0.17347195347E+03  0.00000000000E+00 0.  1.
        -11    1    3    3    0    0 -0.12597452814E+03  0.17215121271E+03 -0.10298227983E+04  0.10516846569E+04  0.00000000000E+00 0. -1.
          4    1    6    6  502    0 -0.18639419662E+02 -0.63895193451E+02  0.36100574689E+02  0.75718394095E+02  0.00000000000E+00 0. -1.
          1    1    5    5  503    0  0.67983058635E+01  0.12890138971E+02 -0.13937217382E+02  0.20164787964E+02  0.00000000000E+00 0. -1.
         -2    1    5    5    0  503  0.59259999310E+02  0.90439038195E+02 -0.73438454078E+03  0.74230157004E+03  0.00000000000E+00 0.  1.
         -3    1    6    6    0  502  0.83436033757E+02 -0.20677999006E+03  0.11450457075E+03  0.25066079219E+03  0.00000000000E+00 0.  1.
<mgrwt>
<rscale>  0 0.14530833E+04</rscale>
<asrwt>0</asrwt>
<pdfrwt beam="1">  1        2 0.31652909E+00 0.14530833E+04</pdfrwt>
<pdfrwt beam="2">  1       -2 0.39471235E-01 0.14530833E+04</pdfrwt>
<totfact> 0.36553862E+01</totfact>
</mgrwt>
</event>
<event>
12    1  0.1496989E-007  0.2744533E+04  0.7818608E-02  0.8320699E-01
          2   -1    0    0  501    0  0.00000000000E+00  0.00000000000E+00  0.16101750606E+04  0.16101750606E+04  0.00000000000E+00 0. -1.
         -2   -1    0    0    0  501 -0.00000000000E+00 -0.00000000000E+00 -0.11695096213E+04  0.11695096213E+04  0.00000000000E+00 0.  1.
         23    2    1    2    0    0  0.43127572193E+03 -0.48357506546E+02  0.13356745024E+04  0.14073533471E+04  0.90993792837E+02 0.  0.
        254    2    1    2    0    0 -0.43127572193E+03  0.48357506546E+02 -0.89500906312E+03  0.13723313348E+04  0.94547071480E+03 0.  0.
        -24    2    4    4    0    0 -0.71839532604E+03  0.60665160143E+02 -0.74130924740E+03  0.10370874285E+04  0.78986251146E+02 0.  0.
         24    2    4    4    0    0  0.28711960412E+03 -0.12307653597E+02 -0.15369981572E+03  0.33524390629E+03  0.78585609042E+02 0.  0.
         13    1    3    3    0    0  0.12630474297E+03  0.24668703656E+02  0.43573058714E+03  0.45433751508E+03  0.00000000000E+00 0.  1.
        -13    1    3    3    0    0  0.30497097896E+03 -0.73026210202E+02  0.89994391528E+03  0.95301583200E+03  0.00000000000E+00 0. -1.
          4    1    6    6  502    0  0.82000803556E+02 -0.38737022851E+02 -0.55227645378E+02  0.10618277420E+03  0.00000000000E+00 0. -1.
          3    1    5    5  503    0 -0.14041850690E+03  0.36428017003E+02 -0.17824748994E+03  0.22981846134E+03  0.00000000000E+00 0. -1.
         -4    1    5    5    0  503 -0.57797681914E+03  0.24237143140E+02 -0.56306175746E+03  0.80726896713E+03  0.00000000000E+00 0.  1.
         -3    1    6    6    0  502  0.20511880056E+03  0.26429369254E+02 -0.98472170342E+02  0.22906113209E+03  0.00000000000E+00 0.  1.
<mgrwt>
<rscale>  0 0.27445329E+04</rscale>
<asrwt>0</asrwt>
<pdfrwt beam="1">  1        2 0.24771924E+00 0.27445329E+04</pdfrwt>
<pdfrwt beam="2">  1       -2 0.17992456E+00 0.27445329E+04</pdfrwt>
<totfact> 0.17469168E+00</totfact>
</mgrwt>
</event>
<event>
12    1  0.1496989E-007  0.5681340E+04  0.7818608E-02  0.7731218E-01
          1   -1    0    0  501    0  0.00000000000E+00  0.00000000000E+00  0.25130853938E+04  0.25130853938E+04  0.00000000000E+00 0. -1.
         -1   -1    0    0    0  501 -0.00000000000E+00 -0.00000000000E+00 -0.32109556881E+04  0.32109556881E+04  0.00000000000E+00 0.  1.
         23    2    1    2    0    0 -0.24912037905E+03 -0.25204787270E+04  0.78683004524E+03  0.26537933445E+04  0.92971061911E+02 0.  0.
        254    2    1    2    0    0  0.24912037905E+03  0.25204787270E+04 -0.14847003395E+04  0.30702477375E+04  0.89844982866E+03 0.  0.
        -24    2    4    4    0    0 -0.14425746985E+03  0.15278979627E+04 -0.12336044391E+04  0.19705347428E+04  0.77102906655E+02 0.  0.
         24    2    4    4    0    0  0.39337784890E+03  0.99258076431E+03 -0.25109590045E+03  0.10997129947E+04  0.79729629643E+02 0.  0.
         11    1    3    3    0    0 -0.47534893088E+02 -0.32323204605E+03  0.13008810895E+03  0.35165528255E+03  0.00000000000E+00 0. -1.
        -11    1    3    3    0    0 -0.20158548596E+03 -0.21972466810E+04  0.65674193629E+03  0.23021380619E+04  0.00000000000E+00 0.  1.
          4    1    6    6  502    0  0.19266704295E+03  0.57787789426E+03 -0.12198641447E+03  0.62124402245E+03  0.00000000000E+00 0. -1.
          3    1    5    5  503    0 -0.87762379432E+02  0.87826013790E+03 -0.75771351970E+03  0.11632595940E+04  0.00000000000E+00 0. -1.
         -4    1    5    5    0  503 -0.56495090415E+02  0.64963782481E+03 -0.47589091940E+03  0.80727514878E+03  0.00000000000E+00 0.  1.
         -3    1    6    6    0  502  0.20071080595E+03  0.41470287005E+03 -0.12910948598E+03  0.47846897227E+03  0.00000000000E+00 0.  1.
<mgrwt>
<rscale>  0 0.56813399E+04</rscale>
<asrwt>0</asrwt>
<pdfrwt beam="1">  1        1 0.38662852E+00 0.56813399E+04</pdfrwt>
<pdfrwt beam="2">  1       -1 0.49399318E+00 0.56813399E+04</pdfrwt>
<totfact> 0.14927977E-03</totfact>
</mgrwt>
</event>
<event>
12    1  0.1496989E-007  0.1501761E+04  0.7818608E-02  0.8883283E-01
          2   -1    0    0  501    0  0.00000000000E+00  0.00000000000E+00  0.56731132393E+03  0.56731132393E+03  0.00000000000E+00 0. -1.
         -2   -1    0    0    0  501 -0.00000000000E+00 -0.00000000000E+00 -0.99384790638E+03  0.99384790638E+03  0.00000000000E+00 0.  1.
         23    2    1    2    0    0  0.13753725274E+03 -0.46729463583E+03 -0.23387318923E+03  0.54669357144E+03  0.83044685825E+02 0.  0.
        254    2    1    2    0    0 -0.13753725274E+03  0.46729463583E+03 -0.19266339322E+03  0.10144656589E+04  0.86875808909E+03 0.  0.
        -24    2    4    4    0    0 -0.30873050831E+02 -0.18439444506E+02  0.29781472738E+03  0.31041345186E+03  0.79810656376E+02 0.  0.
         24    2    4    4    0    0 -0.10666420191E+03  0.48573408034E+03 -0.49047812059E+03  0.70405220701E+03  0.88350861022E+02 0.  0.
         11    1    3    3    0    0  0.13429584077E+03 -0.41306167216E+03 -0.23179212300E+03  0.49232398494E+03  0.00000000000E+00 0.  1.
        -11    1    3    3    0    0  0.32414119733E+01 -0.54232963670E+02 -0.20810662288E+01  0.54369586504E+02  0.00000000000E+00 0. -1.
          2    1    6    6  502    0 -0.10139044900E+03  0.46122373535E+03 -0.43037176847E+03  0.63892661260E+03  0.00000000000E+00 0. -1.
          3    1    5    5  503    0  0.17674507106E+02 -0.30770712434E+02  0.92394572132E+02  0.98974652839E+02  0.00000000000E+00 0. -1.
         -4    1    5    5    0  503 -0.48547557937E+02  0.12331267927E+02  0.20542015524E+03  0.21143879902E+03  0.00000000000E+00 0.  1.
         -1    1    6    6    0  502 -0.52737529180E+01  0.24510344992E+02 -0.60106352125E+02  0.65125594409E+02  0.00000000000E+00 0.  1.
<mgrwt>
<rscale>  0 0.15017605E+04</rscale>
<asrwt>0</asrwt>
<pdfrwt beam="1">  1        2 0.87278665E-01 0.15017605E+04</pdfrwt>
<pdfrwt beam="2">  1       -2 0.15289968E+00 0.15017605E+04</pdfrwt>
<totfact> 0.14582178E+01</totfact>
</mgrwt>
</event>
<event>
12    1  0.1496989E-007  0.1968017E+04  0.7818608E-02  0.8621722E-01
          1   -1    0    0  501    0  0.00000000000E+00  0.00000000000E+00  0.29035453003E+04  0.29035453003E+04  0.00000000000E+00 0. -1.
         -1   -1    0    0    0  501 -0.00000000000E+00 -0.00000000000E+00 -0.33347937633E+03  0.33347937633E+03  0.00000000000E+00 0.  1.
         23    2    1    2    0    0  0.36144530710E+03 -0.55438896347E+03  0.16936610104E+04  0.18205596349E+04  0.89218458316E+02 0.  0.
        254    2    1    2    0    0 -0.36144530710E+03  0.55438896347E+03  0.87640491359E+03  0.14164650417E+04  0.89459365583E+03 0.  0.
        -24    2    4    4    0    0 -0.13220972041E+03 -0.30752263048E+02 -0.14523947904E+03  0.21433750364E+03  0.80130813945E+02 0.  0.
         24    2    4    4    0    0 -0.22923558669E+03  0.58514122652E+03  0.10216443926E+04  0.12021275381E+04  0.80088349182E+02 0.  0.
         11    1    3    3    0    0  0.42992845957E+02 -0.56441068360E+02  0.11805504846E+03  0.13773515698E+03  0.00000000000E+00 0.  1.
        -11    1    3    3    0    0  0.31845246114E+03 -0.49794789511E+03  0.15756059619E+04  0.16828244779E+04  0.00000000000E+00 0. -1.
          2    1    6    6  502    0 -0.14833461259E+03  0.29494571772E+03  0.58308639741E+03  0.67006408689E+03  0.00000000000E+00 0. -1.
          3    1    5    5  503    0 -0.83919605281E+02 -0.33229936333E+02 -0.40407487727E+02  0.98891323602E+02  0.00000000000E+00 0. -1.
         -4    1    5    5    0  503 -0.48290115127E+02  0.24776732849E+01 -0.10483199131E+03  0.11544618004E+03  0.00000000000E+00 0.  1.
         -1    1    6    6    0  502 -0.80900974101E+02  0.29019550879E+03  0.43855799522E+03  0.53206345120E+03  0.00000000000E+00 0.  1.
<mgrwt>
<rscale>  0 0.19680167E+04</rscale>
<asrwt>0</asrwt>
<pdfrwt beam="1">  1        1 0.44669926E+00 0.19680167E+04</pdfrwt>
<pdfrwt beam="2">  1       -1 0.51304521E-01 0.19680167E+04</pdfrwt>
<totfact> 0.25005815E+00</totfact>
</mgrwt>
</event>
<event>
12    1  0.1496989E-007  0.2032424E+04  0.7818608E-02  0.8591609E-01
          2   -1    0    0  501    0  0.00000000000E+00  0.00000000000E+00  0.16129523462E+04  0.16129523462E+04  0.00000000000E+00 0.  1.
         -2   -1    0    0    0  501 -0.00000000000E+00 -0.00000000000E+00 -0.64024661860E+03  0.64024661860E+03  0.00000000000E+00 0. -1.
         23    2    1    2    0    0  0.52488557441E+03  0.52740407301E+02  0.10855272985E+04  0.12104137665E+04  0.91899693843E+02 0.  0.
        254    2    1    2    0    0 -0.52488557441E+03 -0.52740407301E+02 -0.11282157090E+03  0.10427851982E+04  0.89240453045E+03 0.  0.
        -24    2    4    4    0    0 -0.65814731472E+03 -0.31115550814E+03 -0.39943760799E+02  0.73272072286E+03  0.72859560495E+02 0.  0.
         24    2    4    4    0    0  0.13326174031E+03  0.25841510084E+03 -0.72877810106E+02  0.31006447535E+03  0.79320538930E+02 0.  0.
         11    1    3    3    0    0  0.46660555603E+03  0.57130339589E+02  0.10167138107E+04  0.11201301681E+04  0.00000000000E+00 0.  1.
        -11    1    3    3    0    0  0.58280018379E+02 -0.43899322873E+01  0.68813487731E+02  0.90283598408E+02  0.00000000000E+00 0. -1.
          4    1    6    6  502    0  0.86828359901E+02  0.99560708129E+02 -0.81491595225E+01  0.13235523219E+03  0.00000000000E+00 0. -1.
          3    1    5    5  503    0 -0.60307997084E+03 -0.26917461781E+03 -0.20269454967E+02  0.66073540613E+03  0.00000000000E+00 0. -1.
         -4    1    5    5    0  503 -0.55067343880E+02 -0.41980890330E+02 -0.19674305832E+02  0.71985316731E+02  0.00000000000E+00 0.  1.
         -3    1    6    6    0  502  0.46433380411E+02  0.15885439271E+03 -0.64728650583E+02  0.17770924317E+03  0.00000000000E+00 0.  1.
<mgrwt>
<rscale>  0 0.20324244E+04</rscale>
<asrwt>0</asrwt>
<pdfrwt beam="1">  1        2 0.24814651E+00 0.20324244E+04</pdfrwt>
<pdfrwt beam="2">  1       -2 0.98499481E-01 0.20324244E+04</pdfrwt>
<totfact> 0.87004890E+00</totfact>
</mgrwt>
</event>
<event>
12    1  0.1496989E-007  0.1467121E+04  0.7818608E-02  0.8906616E-01
         -2   -1    0    0    0  501 -0.00000000000E+00  0.00000000000E+00  0.91766521465E+03  0.91766521465E+03  0.00000000000E+00 0. -1.
          2   -1    0    0  501    0  0.00000000000E+00 -0.00000000000E+00 -0.58639156885E+03  0.58639156885E+03  0.00000000000E+00 0.  1.
         23    2    1    2    0    0  0.25089689483E+03 -0.26710145526E+03  0.37451793454E+03  0.53186542475E+03  0.91239835125E+02 0.  0.
        254    2    1    2    0    0 -0.25089689483E+03  0.26710145526E+03 -0.43244288730E+02  0.97219135875E+03  0.89944067636E+03 0.  0.
        -24    2    4    4    0    0 -0.10860003190E+03  0.47619533314E+03 -0.32117854480E+03  0.59001987953E+03  0.80073955584E+02 0.  0.
         24    2    4    4    0    0 -0.14229686293E+03 -0.20909387788E+03  0.27793425607E+03  0.38217147923E+03  0.69562503342E+02 0.  0.
         13    1    3    3    0    0  0.78577644901E+02 -0.91288847286E+02  0.66602507500E+02  0.13763718219E+03  0.00000000000E+00 0.  1.
        -13    1    3    3    0    0  0.17231924993E+03 -0.17581260797E+03  0.30791542704E+03  0.39422824255E+03  0.00000000000E+00 0. -1.
          4    1    6    6  502    0 -0.38790700712E+02 -0.73063770750E+02  0.47926133229E+02  0.95603071626E+02  0.00000000000E+00 0. -1.
          1    1    5    5  503    0  0.45832610430E+01  0.11180377946E+03 -0.54239692509E+02  0.12435045487E+03  0.00000000000E+00 0. -1.
         -2    1    5    5    0  503 -0.11318329295E+03  0.36439155368E+03 -0.26693885229E+03  0.46566942465E+03  0.00000000000E+00 0.  1.
         -3    1    6    6    0  502 -0.10350616221E+03 -0.13603010713E+03  0.23000812284E+03  0.28656840760E+03  0.00000000000E+00 0.  1.
<mgrwt>
<rscale>  0 0.14671212E+04</rscale>
<asrwt>0</asrwt>
<pdfrwt beam="1">  1        2 0.90214087E-01 0.14671212E+04</pdfrwt>
<pdfrwt beam="2">  1       -2 0.14117926E+00 0.14671212E+04</pdfrwt>
<totfact> 0.17343862E+01</totfact>
</mgrwt>
</event>
<event>
12    1  0.1496989E-007  0.2611012E+04  0.7818608E-02  0.8364470E-01
          1   -1    0    0  501    0  0.00000000000E+00  0.00000000000E+00  0.16277903697E+04  0.16277903697E+04  0.00000000000E+00 0. -1.
         -1   -1    0    0    0  501 -0.00000000000E+00 -0.00000000000E+00 -0.10470306822E+04  0.10470306822E+04  0.00000000000E+00 0.  1.
         23    2    1    2    0    0 -0.22579076099E+03 -0.33430284913E+03  0.13482247717E+04  0.14108554414E+04  0.10031539707E+03 0.  0.
        254    2    1    2    0    0  0.22579076099E+03  0.33430284913E+03 -0.76746508420E+03  0.12639656105E+04  0.91971003383E+03 0.  0.
        -24    2    4    4    0    0  0.53183142684E+03  0.26210817426E+03 -0.24043793437E+03  0.64473096514E+03  0.79512612491E+02 0.  0.
         24    2    4    4    0    0 -0.30604066585E+03  0.72194674869E+02 -0.52702714984E+03  0.61923464533E+03  0.82589158397E+02 0.  0.
         11    1    3    3    0    0 -0.39201938464E+02 -0.15543455117E+02  0.21033979853E+03  0.21452557382E+03  0.00000000000E+00 0.  1.
        -11    1    3    3    0    0 -0.18658882253E+03 -0.31875939401E+03  0.11378849732E+04  0.11963298676E+04  0.00000000000E+00 0. -1.
          2    1    6    6  502    0 -0.23806344585E+02 -0.16767400442E+02 -0.43776453636E+02  0.52576284131E+02  0.00000000000E+00 0. -1.
          1    1    5    5  503    0  0.72288165519E+02  0.51981145284E+02 -0.10788490668E+02  0.89688404323E+02  0.00000000000E+00 0. -1.
         -2    1    5    5    0  503  0.45954326132E+03  0.21012702897E+03 -0.22964944370E+03  0.55504256082E+03  0.00000000000E+00 0.  1.
         -3    1    6    6    0  502 -0.28223432126E+03  0.88962075311E+02 -0.48325069620E+03  0.56665836120E+03  0.00000000000E+00 0.  1.
<mgrwt>
<rscale>  0 0.26110124E+04</rscale>
<asrwt>0</asrwt>
<pdfrwt beam="1">  1        1 0.25042929E+00 0.26110124E+04</pdfrwt>
<pdfrwt beam="2">  1       -1 0.16108164E+00 0.26110124E+04</pdfrwt>
<totfact> 0.13475947E+00</totfact>
</mgrwt>
</event>
<event>
12    1  0.1496989E-007  0.1428466E+04  0.7818608E-02  0.8933468E-01
          2   -1    0    0  501    0  0.00000000000E+00  0.00000000000E+00  0.13503024226E+04  0.13503024226E+04  0.00000000000E+00 0.  1.
         -2   -1    0    0    0  501 -0.00000000000E+00 -0.00000000000E+00 -0.37778835823E+03  0.37778835823E+03  0.00000000000E+00 0. -1.
         23    2    1    2    0    0 -0.15061217678E+03  0.35213480847E+03  0.17818675359E+03  0.43209828342E+03  0.90969534744E+02 0.  0.
        254    2    1    2    0    0  0.15061217678E+03 -0.35213480847E+03  0.79432731080E+03  0.12959924974E+04  0.94971454952E+03 0.  0.
        -24    2    4    4    0    0 -0.16766878602E+03  0.12393020704E+03  0.66808425642E+03  0.70426025522E+03  0.78577448307E+02 0.  0.
         24    2    4    4    0    0  0.31828096280E+03 -0.47606501551E+03  0.12624305438E+03  0.59173224221E+03  0.79177442633E+02 0.  0.
         13    1    3    3    0    0 -0.14690729867E+03  0.34251087721E+03  0.14939431145E+03  0.40151477645E+03  0.00000000000E+00 0. -1.
        -13    1    3    3    0    0 -0.37048781057E+01  0.96239312552E+01  0.28792442134E+02  0.30583506971E+02  0.00000000000E+00 0.  1.
          4    1    6    6  502    0  0.16483450947E+03 -0.31331445982E+03  0.88040198621E+02  0.36481151684E+03  0.00000000000E+00 0. -1.
          1    1    5    5  503    0 -0.94918060282E+02  0.95074568450E+02  0.51621958099E+03  0.53341472376E+03  0.00000000000E+00 0. -1.
         -2    1    5    5    0  503 -0.72750725737E+02  0.28855638588E+02  0.15186467543E+03  0.17084553145E+03  0.00000000000E+00 0.  1.
         -3    1    6    6    0  502  0.15344645333E+03 -0.16275055569E+03  0.38202855760E+02  0.22692072537E+03  0.00000000000E+00 0.  1.
<mgrwt>
<rscale>  0 0.14284657E+04</rscale>
<asrwt>0</asrwt>
<pdfrwt beam="1">  1        2 0.20773883E+00 0.14284657E+04</pdfrwt>
<pdfrwt beam="2">  1       -2 0.58121287E-01 0.14284657E+04</pdfrwt>
<totfact> 0.41576037E+01</totfact>
</mgrwt>
</event>
<event>
12    1  0.1496989E-007  0.2803854E+04  0.7818608E-02  0.8302073E-01
          1   -1    0    0  501    0  0.00000000000E+00  0.00000000000E+00  0.23309623811E+04  0.23309623811E+04  0.00000000000E+00 0. -1.
         -1   -1    0    0    0  501 -0.00000000000E+00 -0.00000000000E+00 -0.84317092687E+03  0.84317092687E+03  0.00000000000E+00 0.  1.
         23    2    1    2    0    0  0.36142115699E+03  0.20659296796E+03 -0.67397355857E+03  0.79744612304E+03  0.91509859401E+02 0.  0.
        254    2    1    2    0    0 -0.36142115699E+03 -0.20659296796E+03  0.21617650128E+04  0.23766871849E+04  0.89560487790E+03 0.  0.
        -24    2    4    4    0    0 -0.40757068905E+03 -0.46542306176E+03  0.18914692724E+04  0.19916394869E+04  0.78989518751E+02 0.  0.
         24    2    4    4    0    0  0.46149532062E+02  0.25883009380E+03  0.27029574035E+03  0.38504769806E+03  0.77968876883E+02 0.  0.
         11    1    3    3    0    0  0.40372537370E+02  0.34133112730E+02 -0.40405039263E+02  0.66540050768E+02  0.00000000000E+00 0. -1.
        -11    1    3    3    0    0  0.32104861962E+03  0.17245985523E+03 -0.63356851930E+03  0.73090607227E+03  0.00000000000E+00 0.  1.
          2    1    6    6  502    0 -0.14403950113E+01  0.15810728323E+03  0.12274160104E+03  0.20016365398E+03  0.00000000000E+00 0. -1.
          3    1    5    5  503    0 -0.34298107836E+03 -0.37880629074E+03  0.14599185762E+04  0.15467683974E+04  0.00000000000E+00 0. -1.
         -4    1    5    5    0  503 -0.64589610694E+02 -0.86616771018E+02  0.43155069625E+03  0.44487108949E+03  0.00000000000E+00 0.  1.
         -1    1    6    6    0  502  0.47589927074E+02  0.10072281057E+03  0.14755413931E+03  0.18488404408E+03  0.00000000000E+00 0.  1.
<mgrwt>
<rscale>  0 0.28038543E+04</rscale>
<asrwt>0</asrwt>
<pdfrwt beam="1">  1        1 0.35860959E+00 0.28038543E+04</pdfrwt>
<pdfrwt beam="2">  1       -1 0.12971860E+00 0.28038543E+04</pdfrwt>
<totfact> 0.78189528E-01</totfact>
</mgrwt>
</event>
<event>
12    1  0.1496989E-007  0.1168892E+04  0.7818608E-02  0.9140530E-01
          2   -1    0    0  501    0  0.00000000000E+00  0.00000000000E+00  0.16219496859E+04  0.16219496859E+04  0.00000000000E+00 0.  1.
         -2   -1    0    0    0  501 -0.00000000000E+00 -0.00000000000E+00 -0.21059666675E+03  0.21059666675E+03  0.00000000000E+00 0. -1.
         23    2    1    2    0    0  0.11692098267E+03 -0.25167382309E+02 -0.13579973149E+02  0.15099633679E+03  0.91167783425E+02 0.  0.
        254    2    1    2    0    0 -0.11692098267E+03  0.25167382309E+02  0.14249329922E+04  0.16815500158E+04  0.88480083066E+03 0.  0.
        -24    2    4    4    0    0 -0.10295247988E+03 -0.40524842795E+03  0.48796128920E+03  0.64765015471E+03  0.80740334833E+02 0.  0.
         24    2    4    4    0    0 -0.13968502788E+02  0.43041581026E+03  0.93697170305E+03  0.10338998611E+04  0.74699810425E+02 0.  0.
         11    1    3    3    0    0  0.55781996853E+02 -0.14356869232E+02 -0.52319511706E+02  0.77814408513E+02  0.00000000000E+00 0. -1.
        -11    1    3    3    0    0  0.61138985812E+02 -0.10810513077E+02  0.38739538558E+02  0.73181928280E+02  0.00000000000E+00 0.  1.
          2    1    6    6  502    0 -0.26915271252E+02  0.41797862985E+03  0.89059975394E+03  0.98417401335E+03  0.00000000000E+00 0. -1.
          3    1    5    5  503    0 -0.75243642494E+01 -0.17433980925E+03  0.22762687640E+03  0.28681872325E+03  0.00000000000E+00 0. -1.
         -4    1    5    5    0  503 -0.95428115628E+02 -0.23090861869E+03  0.26033441281E+03  0.36083143146E+03  0.00000000000E+00 0.  1.
         -1    1    6    6    0  502  0.12946768464E+02  0.12437180408E+02  0.46371949109E+02  0.49725847749E+02  0.00000000000E+00 0.  1.
<mgrwt>
<rscale>  0 0.11688921E+04</rscale>
<asrwt>0</asrwt>
<pdfrwt beam="1">  1        2 0.24953071E+00 0.11688921E+04</pdfrwt>
<pdfrwt beam="2">  1       -2 0.32399488E-01 0.11688921E+04</pdfrwt>
<totfact> 0.95074852E+01</totfact>
</mgrwt>
</event>
<event>
12    1  0.1496989E-007  0.3100703E+04  0.7818608E-02  0.8215545E-01
         -2   -1    0    0    0  501 -0.00000000000E+00  0.00000000000E+00  0.15687222603E+04  0.15687222603E+04  0.00000000000E+00 0.  1.
          2   -1    0    0  501    0  0.00000000000E+00 -0.00000000000E+00 -0.15321956924E+04  0.15321956924E+04  0.00000000000E+00 0. -1.
         23    2    1    2    0    0  0.97488428544E+02  0.50742432285E+03  0.13363467787E+04  0.14356135662E+04  0.90444244430E+02 0.  0.
        254    2    1    2    0    0 -0.97488428544E+02 -0.50742432285E+03 -0.12998202108E+04  0.16653043865E+04  0.90372710596E+03 0.  0.
        -24    2    4    4    0    0 -0.11704464916E+03  0.99404997108E+02  0.52156229474E+02  0.18098246443E+03  0.80334157182E+02 0.  0.
         24    2    4    4    0    0  0.19556220615E+02 -0.60682931996E+03 -0.13519764403E+04  0.14843219221E+04  0.82140147521E+02 0.  0.
         11    1    3    3    0    0 -0.11385355770E+00  0.77602053828E+01  0.29026069537E+01  0.82860652510E+01  0.00000000000E+00 0. -1.
        -11    1    3    3    0    0  0.97602282102E+02  0.49966411747E+03  0.13334441718E+04  0.14273275010E+04  0.00000000000E+00 0.  1.
          4    1    6    6  502    0 -0.50213309640E+01 -0.55262174967E+03 -0.12376181545E+04  0.13554020468E+04  0.00000000000E+00 0. -1.
          1    1    5    5  503    0 -0.10691724064E+03  0.11259849374E+03  0.53656896512E+02  0.16428262137E+03  0.00000000000E+00 0. -1.
         -2    1    5    5    0  503 -0.10127408516E+02 -0.13193496634E+02 -0.15006670376E+01  0.16699843060E+02  0.00000000000E+00 0.  1.
         -3    1    6    6    0  502  0.24577551579E+02 -0.54207570291E+02 -0.11435828579E+03  0.12891987530E+03  0.00000000000E+00 0.  1.
<mgrwt>
<rscale>  0 0.31007028E+04</rscale>
<asrwt>0</asrwt>
<pdfrwt beam="1">  1        2 0.23572241E+00 0.31007028E+04</pdfrwt>
<pdfrwt beam="2">  1       -2 0.24134189E+00 0.31007028E+04</pdfrwt>
<totfact> 0.75110462E-01</totfact>
</mgrwt>
</event>
<event>
12    1  0.1496989E-007  0.1729698E+04  0.7818608E-02  0.8744605E-01
          2   -1    0    0  501    0  0.00000000000E+00  0.00000000000E+00  0.17284282754E+04  0.17284282754E+04  0.00000000000E+00 0. -1.
         -2   -1    0    0    0  501 -0.00000000000E+00 -0.00000000000E+00 -0.43274235299E+03  0.43274235299E+03  0.00000000000E+00 0.  1.
         23    2    1    2    0    0 -0.40704830347E+03 -0.30549133981E+03  0.98994220103E+03  0.11167374563E+04  0.90020580196E+02 0.  0.
        254    2    1    2    0    0  0.40704830347E+03  0.30549133981E+03  0.30574372134E+03  0.10444331721E+04  0.85927187065E+03 0.  0.
        -24    2    4    4    0    0  0.25771100472E+03 -0.24737406502E+03 -0.43528051937E+02  0.36886192041E+03  0.80966258558E+02 0.  0.
         24    2    4    4    0    0  0.14933729875E+03  0.55286540483E+03  0.34927177328E+03  0.67557125165E+03  0.80274278481E+02 0.  0.
         11    1    3    3    0    0 -0.25401656808E+03 -0.15515419139E+03  0.64769024139E+03  0.71281125745E+03  0.00000000000E+00 0. -1.
        -11    1    3    3    0    0 -0.15303173539E+03 -0.15033714842E+03  0.34225195964E+03  0.40392619884E+03  0.00000000000E+00 0.  1.
          2    1    6    6  502    0  0.86099690425E+02  0.32275999102E+03  0.15693892112E+03  0.36907586410E+03  0.00000000000E+00 0. -1.
          3    1    5    5  503    0  0.22671131072E+03 -0.20499957817E+03 -0.64399860212E+02  0.31236226957E+03  0.00000000000E+00 0. -1.
         -4    1    5    5    0  503  0.30999694001E+02 -0.42374486855E+02  0.20871808275E+02  0.56499650840E+02  0.00000000000E+00 0.  1.
         -3    1    6    6    0  502  0.63237608326E+02  0.23010541381E+03  0.19233285216E+03  0.30649538755E+03  0.00000000000E+00 0.  1.
<mgrwt>
<rscale>  0 0.17296984E+04</rscale>
<asrwt>0</asrwt>
<pdfrwt beam="1">  1        2 0.26591204E+00 0.17296984E+04</pdfrwt>
<pdfrwt beam="2">  1       -2 0.66575747E-01 0.17296984E+04</pdfrwt>
<totfact> 0.18609008E+01</totfact>
</mgrwt>
</event>
<event>
12    1  0.1496989E-007  0.1305858E+04  0.7818608E-02  0.9024933E-01
          2   -1    0    0  501    0  0.00000000000E+00  0.00000000000E+00  0.90227580942E+03  0.90227580942E+03  0.00000000000E+00 0.  1.
         -2   -1    0    0    0  501 -0.00000000000E+00 -0.00000000000E+00 -0.47248985271E+03  0.47248985271E+03  0.00000000000E+00 0. -1.
         23    2    1    2    0    0 -0.73510337953E+02  0.32568743944E+02 -0.22511278823E+03  0.25666215108E+03  0.93462289213E+02 0.  0.
        254    2    1    2    0    0  0.73510337953E+02 -0.32568743944E+02  0.65489874494E+03  0.11181035111E+04  0.90266195358E+03 0.  0.
        -24    2    4    4    0    0  0.32671777639E+03 -0.32676966965E+03  0.51905588318E+03  0.69933223308E+03  0.78253689754E+02 0.  0.
         24    2    4    4    0    0 -0.25320743843E+03  0.29420092570E+03  0.13584286177E+03  0.41877127797E+03  0.79043713201E+02 0.  0.
         11    1    3    3    0    0 -0.27572528827E+02 -0.22912108628E+02 -0.24267733923E+02  0.43291245968E+02  0.00000000000E+00 0.  1.
        -11    1    3    3    0    0 -0.45937809126E+02  0.55480852572E+02 -0.20084505430E+03  0.21337090511E+03  0.00000000000E+00 0. -1.
          2    1    6    6  502    0 -0.13238983185E+03  0.20499189035E+03  0.10392070090E+03  0.26523245420E+03  0.00000000000E+00 0. -1.
          1    1    5    5  503    0  0.23210284129E+03 -0.26281774947E+03  0.42789882306E+03  0.55321090114E+03  0.00000000000E+00 0. -1.
         -2    1    5    5    0  503  0.94614935099E+02 -0.63951920180E+02  0.91157060119E+02  0.14612133194E+03  0.00000000000E+00 0.  1.
         -1    1    6    6    0  502 -0.12081760659E+03  0.89209035355E+02  0.31922160862E+02  0.15353882377E+03  0.00000000000E+00 0.  1.
<mgrwt>
<rscale>  0 0.13058578E+04</rscale>
<asrwt>0</asrwt>
<pdfrwt beam="1">  1        2 0.13881166E+00 0.13058578E+04</pdfrwt>
<pdfrwt beam="2">  1       -2 0.72690747E-01 0.13058578E+04</pdfrwt>
<totfact> 0.49002472E+01</totfact>
</mgrwt>
</event>
<event>
12    1  0.1496989E-007  0.2354540E+04  0.7818608E-02  0.8456722E-01
         -2   -1    0    0    0  501 -0.00000000000E+00  0.00000000000E+00  0.79559327020E+03  0.79559327020E+03  0.00000000000E+00 0.  1.
          2   -1    0    0  501    0  0.00000000000E+00 -0.00000000000E+00 -0.17420522828E+04  0.17420522828E+04  0.00000000000E+00 0. -1.
         23    2    1    2    0    0 -0.85508050699E+03 -0.43853992487E+03 -0.10992055181E+03  0.97178296934E+03  0.93806570325E+02 0.  0.
        254    2    1    2    0    0  0.85508050699E+03  0.43853992487E+03 -0.83653846076E+03  0.15658625836E+04  0.91030165075E+03 0.  0.
        -24    2    4    4    0    0  0.76708283936E+03  0.21143289124E+03 -0.98611836007E+03  0.12695849040E+04  0.79350226061E+02 0.  0.
         24    2    4    4    0    0  0.87997667636E+02  0.22710703364E+03  0.14957989930E+03  0.29627767968E+03  0.78007198150E+02 0.  0.
         13    1    3    3    0    0 -0.31201800962E+03 -0.15758707221E+03 -0.85508487894E+02  0.35986195292E+03  0.00000000000E+00 0. -1.
        -13    1    3    3    0    0 -0.54306249737E+03 -0.28095285267E+03 -0.24412063917E+02  0.61192101642E+03  0.00000000000E+00 0.  1.
          2    1    6    6  502    0  0.80314425536E+02  0.22723260588E+03  0.12699276861E+03  0.27241921262E+03  0.00000000000E+00 0. -1.
          1    1    5    5  503    0  0.48230202367E+03  0.13017589231E+03 -0.67864250445E+03  0.84268419578E+03  0.00000000000E+00 0. -1.
         -2    1    5    5    0  503  0.28478081569E+03  0.81256998921E+02 -0.30747585562E+03  0.42690070818E+03  0.00000000000E+00 0.  1.
         -1    1    6    6    0  502  0.76832420995E+01 -0.12557224470E+00  0.22587130688E+02  0.23858467056E+02  0.00000000000E+00 0.  1.
<mgrwt>
<rscale>  0 0.23545404E+04</rscale>
<asrwt>0</asrwt>
<pdfrwt beam="1">  1        2 0.26800804E+00 0.23545404E+04</pdfrwt>
<pdfrwt beam="2">  1       -2 0.12239896E+00 0.23545404E+04</pdfrwt>
<totfact> 0.42396552E+00</totfact>
</mgrwt>
</event>
<event>
12    1  0.1496989E-007  0.1413815E+04  0.7818608E-02  0.8943879E-01
          2   -1    0    0  501    0  0.00000000000E+00  0.00000000000E+00  0.64714257781E+03  0.64714257781E+03  0.00000000000E+00 0. -1.
         -2   -1    0    0    0  501 -0.00000000000E+00 -0.00000000000E+00 -0.77219162276E+03  0.77219162276E+03  0.00000000000E+00 0.  1.
         23    2    1    2    0    0 -0.21021850279E+03 -0.30328634833E+03 -0.22617770388E+03  0.44250119823E+03  0.92068065602E+02 0.  0.
        254    2    1    2    0    0  0.21021850279E+03  0.30328634833E+03  0.10112865893E+03  0.97683300234E+03  0.89877765927E+03 0.  0.
        -24    2    4    4    0    0  0.10022249771E+03  0.38031797576E+03  0.44514158464E+03  0.59939786204E+03  0.80252444870E+02 0.  0.
         24    2    4    4    0    0  0.10999600508E+03 -0.77031627434E+02 -0.34401292571E+03  0.37743514030E+03  0.77970502852E+02 0.  0.
         13    1    3    3    0    0 -0.18417001353E+03 -0.26055354791E+03 -0.22841822376E+03  0.39240493136E+03  0.00000000000E+00 0.  1.
        -13    1    3    3    0    0 -0.26048489261E+02 -0.42732800417E+02  0.22405198845E+01  0.50096266863E+02  0.00000000000E+00 0. -1.
          2    1    6    6  502    0  0.95911205846E+02 -0.85481905623E+02 -0.33479569248E+03  0.35860043405E+03  0.00000000000E+00 0. -1.
          3    1    5    5  503    0  0.83370147278E+02  0.37318399686E+03  0.41651396152E+03  0.56542086724E+03  0.00000000000E+00 0. -1.
         -4    1    5    5    0  503  0.16852350431E+02  0.71339789005E+01  0.28627623128E+02  0.33976994805E+02  0.00000000000E+00 0.  1.
         -1    1    6    6    0  502  0.14084799235E+02  0.84502781892E+01 -0.92172332274E+01  0.18834706245E+02  0.00000000000E+00 0.  1.
<mgrwt>
<rscale>  0 0.14138148E+04</rscale>
<asrwt>0</asrwt>
<pdfrwt beam="1">  1        2 0.99560397E-01 0.14138148E+04</pdfrwt>
<pdfrwt beam="2">  1       -2 0.11879871E+00 0.14138148E+04</pdfrwt>
<totfact> 0.23929070E+01</totfact>
</mgrwt>
</event>
<event>
12    1  0.1496989E-007  0.1443674E+04  0.7818608E-02  0.8922798E-01
          1   -1    0    0  501    0  0.00000000000E+00  0.00000000000E+00  0.15240597456E+04  0.15240597456E+04  0.00000000000E+00 0. -1.
         -1   -1    0    0    0  501 -0.00000000000E+00 -0.00000000000E+00 -0.34188198184E+03  0.34188198184E+03  0.00000000000E+00 0.  1.
         23    2    1    2    0    0  0.42171112602E+03  0.71111654702E+02  0.40509344136E+03  0.59584419549E+03  0.89624035936E+02 0.  0.
        254    2    1    2    0    0 -0.42171112602E+03 -0.71111654702E+02  0.77708432245E+03  0.12700975320E+04  0.90906025947E+03 0.  0.
        -24    2    4    4    0    0 -0.54259796504E+03 -0.32087695513E+03  0.27869250245E+03  0.69376265118E+03  0.79136169050E+02 0.  0.
         24    2    4    4    0    0  0.12088683902E+03  0.24976530043E+03  0.49839182001E+03  0.57633488082E+03  0.82287030901E+02 0.  0.
         11    1    3    3    0    0  0.38805352915E+03  0.49059389019E+02  0.39139603575E+03  0.55333825273E+03  0.00000000000E+00 0. -1.
        -11    1    3    3    0    0  0.33657596874E+02  0.22052265683E+02  0.13697405610E+02  0.42505942756E+02  0.00000000000E+00 0.  1.
          2    1    6    6  502    0 -0.34600575085E+01  0.74053683937E+02  0.13144165341E+03  0.15090668757E+03  0.00000000000E+00 0. -1.
          1    1    5    5  503    0 -0.93757271336E+02 -0.81274194219E+02  0.79532936917E+02  0.14738184633E+03  0.00000000000E+00 0. -1.
         -2    1    5    5    0  503 -0.44884069370E+03 -0.23960276091E+03  0.19915956553E+03  0.54638080484E+03  0.00000000000E+00 0.  1.
         -1    1    6    6    0  502  0.12434689652E+03  0.17571161650E+03  0.36695016660E+03  0.42542819325E+03  0.00000000000E+00 0.  1.
<mgrwt>
<rscale>  0 0.14436739E+04</rscale>
<asrwt>0</asrwt>
<pdfrwt beam="1">  1        1 0.23447073E+00 0.14436739E+04</pdfrwt>
<pdfrwt beam="2">  1       -1 0.52597229E-01 0.14436739E+04</pdfrwt>
<totfact> 0.22281778E+01</totfact>
</mgrwt>
</event>
<event>
12    1  0.1496989E-007  0.2029797E+04  0.7818608E-02  0.8592815E-01
          2   -1    0    0  501    0  0.00000000000E+00  0.00000000000E+00  0.17710995408E+04  0.17710995408E+04  0.00000000000E+00 0. -1.
         -2   -1    0    0    0  501 -0.00000000000E+00 -0.00000000000E+00 -0.58157040880E+03  0.58157040880E+03  0.00000000000E+00 0.  1.
         23    2    1    2    0    0 -0.38868586994E+02 -0.68662452511E+03  0.96934920192E+03  0.11920039815E+04  0.90948397592E+02 0.  0.
        254    2    1    2    0    0  0.38868586994E+02  0.68662452511E+03  0.22017993009E+03  0.11606659682E+04  0.90868161777E+03 0.  0.
        -24    2    4    4    0    0 -0.39188387646E+03  0.25107511838E+03 -0.69633223786E+02  0.47719558272E+03  0.79089510177E+02 0.  0.
         24    2    4    4    0    0  0.43075246345E+03  0.43554940673E+03  0.28981315388E+03  0.68347038543E+03  0.88820792218E+02 0.  0.
         11    1    3    3    0    0 -0.56185669776E+02 -0.56750380297E+03  0.84018826069E+03  0.10154475414E+04  0.00000000000E+00 0. -1.
        -11    1    3    3    0    0  0.17317082782E+02 -0.11912072214E+03  0.12916094123E+03  0.17655644009E+03  0.00000000000E+00 0.  1.
          2    1    6    6  502    0  0.36639516126E+03  0.35465238332E+03  0.27404927361E+03  0.57890131418E+03  0.00000000000E+00 0. -1.
          3    1    5    5  503    0 -0.38704563492E+03  0.23778879414E+03 -0.56246825541E+02  0.45772430514E+03  0.00000000000E+00 0. -1.
         -4    1    5    5    0  503 -0.48382415382E+01  0.13286324233E+02 -0.13386398246E+02  0.19471277585E+02  0.00000000000E+00 0.  1.
         -1    1    6    6    0  502  0.64357302189E+02  0.80897023417E+02  0.15763880267E+02  0.10456907126E+03  0.00000000000E+00 0.  1.
<mgrwt>
<rscale>  0 0.20297971E+04</rscale>
<asrwt>0</asrwt>
<pdfrwt beam="1">  1        2 0.27247685E+00 0.20297971E+04</pdfrwt>
<pdfrwt beam="2">  1       -2 0.89472371E-01 0.20297971E+04</pdfrwt>
<totfact> 0.88894328E+00</totfact>
</mgrwt>
</event>
<event>
12    1  0.1496989E-007  0.1502148E+04  0.7818608E-02  0.8883026E-01
          2   -1    0    0  501    0  0.00000000000E+00  0.00000000000E+00  0.43221132487E+03  0.43221132487E+03  0.00000000000E+00 0. -1.
         -2   -1    0    0    0  501 -0.00000000000E+00 -0.00000000000E+00 -0.13051759809E+04  0.13051759809E+04  0.00000000000E+00 0.  1.
         23    2    1    2    0    0 -0.18770643494E+03  0.18509610088E+03  0.16108592326E+03  0.32198026238E+03  0.90710211172E+02 0.  0.
        254    2    1    2    0    0  0.18770643494E+03 -0.18509610088E+03 -0.10340505792E+04  0.14154070433E+04  0.92985064695E+03 0.  0.
        -24    2    4    4    0    0 -0.14124772304E+03  0.10919853343E+03  0.83023125910E+02  0.21170737436E+03  0.77794176872E+02 0.  0.
         24    2    4    4    0    0  0.32895415798E+03 -0.29429463431E+03 -0.11170737052E+04  0.12036996690E+04  0.78861020245E+02 0.  0.
         13    1    3    3    0    0 -0.85613727378E+02  0.96562910788E+02  0.13028678548E+03  0.18338143997E+03  0.00000000000E+00 0. -1.
        -13    1    3    3    0    0 -0.10209270757E+03  0.88533190091E+02  0.30799137785E+02  0.13859882241E+03  0.00000000000E+00 0.  1.
          4    1    6    6  502    0  0.31936204518E+03 -0.27012742981E+03 -0.10034661720E+04  0.10871546820E+04  0.00000000000E+00 0. -1.
          1    1    5    5  503    0 -0.14290106656E+03  0.11605626386E+03  0.70104720362E+02  0.19698843373E+03  0.00000000000E+00 0. -1.
         -2    1    5    5    0  503  0.16533435211E+01 -0.68577304292E+01  0.12918405548E+02  0.14718940633E+02  0.00000000000E+00 0.  1.
         -3    1    6    6    0  502  0.95921128021E+01 -0.24167204502E+02 -0.11360753315E+03  0.11654498698E+03  0.00000000000E+00 0.  1.
<mgrwt>
<rscale>  0 0.15021476E+04</rscale>
<asrwt>0</asrwt>
<pdfrwt beam="1">  1        2 0.66494051E-01 0.15021476E+04</pdfrwt>
<pdfrwt beam="2">  1       -2 0.20079630E+00 0.15021476E+04</pdfrwt>
<totfact> 0.92359875E+00</totfact>
</mgrwt>
</event>
<event>
12    1  0.1496989E-007  0.1495685E+04  0.7818608E-02  0.8887327E-01
         -2   -1    0    0    0  501 -0.00000000000E+00  0.00000000000E+00  0.91686521911E+03  0.91686521911E+03  0.00000000000E+00 0.  1.
          2   -1    0    0  501    0  0.00000000000E+00 -0.00000000000E+00 -0.60997888391E+03  0.60997888391E+03  0.00000000000E+00 0. -1.
         23    2    1    2    0    0 -0.73650009688E+02 -0.45622708161E+03  0.17992150569E+03  0.50568496697E+03  0.98884092166E+02 0.  0.
        254    2    1    2    0    0  0.73650009688E+02  0.45622708161E+03  0.12696482951E+03  0.10211591361E+04  0.90170862217E+03 0.  0.
        -24    2    4    4    0    0  0.24552945500E+03  0.79125911383E+02  0.42605995738E+03  0.50395429667E+03  0.76793376826E+02 0.  0.
         24    2    4    4    0    0 -0.17187944531E+03  0.37710117023E+03 -0.29909512787E+03  0.51720483939E+03  0.79341754855E+02 0.  0.
         13    1    3    3    0    0 -0.70568785389E+02 -0.36449479138E+03  0.18286223980E+03  0.41385384516E+03  0.00000000000E+00 0. -1.
        -13    1    3    3    0    0 -0.30812242985E+01 -0.91732290234E+02 -0.29407341050E+01  0.91831121804E+02  0.00000000000E+00 0.  1.
          4    1    6    6  502    0 -0.14710540927E+02  0.11288791058E+03 -0.94118275317E+02  0.14771029117E+03  0.00000000000E+00 0. -1.
          1    1    5    5  503    0  0.53899375876E+02  0.37203366301E+02  0.60854578078E+02  0.89400854901E+02  0.00000000000E+00 0. -1.
         -2    1    5    5    0  503  0.19163007912E+03  0.41922545082E+02  0.36520537930E+03  0.41455344177E+03  0.00000000000E+00 0.  1.
         -3    1    6    6    0  502 -0.15716890438E+03  0.26421325965E+03 -0.20497685255E+03  0.36949454822E+03  0.00000000000E+00 0.  1.
<mgrwt>
<rscale>  0 0.14956850E+04</rscale>
<asrwt>0</asrwt>
<pdfrwt beam="1">  1        2 0.93842906E-01 0.14956850E+04</pdfrwt>
<pdfrwt beam="2">  1       -2 0.14105619E+00 0.14956850E+04</pdfrwt>
<totfact> 0.16538049E+01</totfact>
</mgrwt>
</event>
<event>
12    1  0.1496989E-007  0.1547447E+04  0.7818608E-02  0.8853500E-01
          2   -1    0    0  501    0  0.00000000000E+00  0.00000000000E+00  0.71082301193E+03  0.71082301193E+03  0.00000000000E+00 0. -1.
         -2   -1    0    0    0  501 -0.00000000000E+00 -0.00000000000E+00 -0.84218964490E+03  0.84218964490E+03  0.00000000000E+00 0.  1.
         23    2    1    2    0    0 -0.24994948569E+03  0.27070340352E+03 -0.39297180482E+03  0.54602791961E+03  0.89244448190E+02 0.  0.
        254    2    1    2    0    0  0.24994948569E+03 -0.27070340352E+03  0.26160517186E+03  0.10069847372E+04  0.89990328202E+03 0.  0.
        -24    2    4    4    0    0  0.51266896290E+03  0.35081041576E+02  0.28938973600E+03  0.59513029666E+03  0.79834238881E+02 0.  0.
         24    2    4    4    0    0 -0.26271947722E+03 -0.30578444510E+03 -0.27784564137E+02  0.41185444057E+03  0.79538969304E+02 0.  0.
         13    1    3    3    0    0 -0.46633998750E+02  0.19347540658E+02 -0.25418459296E+02  0.56525704258E+02  0.00000000000E+00 0. -1.
        -13    1    3    3    0    0 -0.20331548694E+03  0.25135586286E+03 -0.36755334553E+03  0.48950221535E+03  0.00000000000E+00 0.  1.
          4    1    6    6  502    0 -0.42797161628E+02 -0.71927335084E+02  0.23097440350E+02  0.86825286216E+02  0.00000000000E+00 0. -1.
          1    1    5    5  503    0  0.25440260665E+03  0.24230525569E+02  0.98874327594E+02  0.27401448374E+03  0.00000000000E+00 0. -1.
         -2    1    5    5    0  503  0.25826635625E+03  0.10850516007E+02  0.19051540840E+03  0.32111581292E+03  0.00000000000E+00 0.  1.
         -3    1    6    6    0  502 -0.21992231559E+03 -0.23385711001E+03 -0.50882004487E+02  0.32502915435E+03  0.00000000000E+00 0.  1.
<mgrwt>
<rscale>  0 0.15474466E+04</rscale>
<asrwt>0</asrwt>
<pdfrwt beam="1">  1        2 0.10935739E+00 0.15474466E+04</pdfrwt>
<pdfrwt beam="2">  1       -2 0.12956764E+00 0.15474466E+04</pdfrwt>
<totfact> 0.16938657E+01</totfact>
</mgrwt>
</event>
<event>
12    1  0.1496989E-007  0.1578528E+04  0.7818608E-02  0.8833849E-01
          1   -1    0    0  501    0  0.00000000000E+00  0.00000000000E+00  0.48027662766E+03  0.48027662766E+03  0.00000000000E+00 0. -1.
         -1   -1    0    0    0  501 -0.00000000000E+00 -0.00000000000E+00 -0.12970397916E+04  0.12970397916E+04  0.00000000000E+00 0.  1.
         23    2    1    2    0    0 -0.51219346978E+03  0.10415133507E+03 -0.37467759897E+03  0.64957180858E+03  0.91490875234E+02 0.  0.
        254    2    1    2    0    0  0.51219346978E+03 -0.10415133507E+03 -0.44208556502E+03  0.11277446107E+04  0.89620232601E+03 0.  0.
        -24    2    4    4    0    0 -0.24202850299E+03 -0.44448964042E+02 -0.20760628664E+03  0.33175734074E+03  0.80056581388E+02 0.  0.
         24    2    4    4    0    0  0.75422197276E+03 -0.59702371023E+02 -0.23447927838E+03  0.79598726999E+03  0.78740362480E+02 0.  0.
         13    1    3    3    0    0 -0.26986926636E+03  0.60031079489E+02 -0.14226197044E+03  0.31092060025E+03  0.00000000000E+00 0.  1.
        -13    1    3    3    0    0 -0.24232420342E+03  0.44120255576E+02 -0.23241562852E+03  0.33865120832E+03  0.00000000000E+00 0. -1.
          2    1    6    6  502    0  0.16807430568E+03  0.13425183380E+02 -0.32466432830E+02  0.17170695105E+03  0.00000000000E+00 0. -1.
          3    1    5    5  503    0 -0.20982475306E+02 -0.29972918767E+02 -0.21501674178E+02  0.42437744071E+02  0.00000000000E+00 0. -1.
         -4    1    5    5    0  503 -0.22104602768E+03 -0.14476045275E+02 -0.18610461246E+03  0.28931959667E+03  0.00000000000E+00 0.  1.
         -1    1    6    6    0  502  0.58614766708E+03 -0.73127554403E+02 -0.20201284555E+03  0.62428031893E+03  0.00000000000E+00 0.  1.
<mgrwt>
<rscale>  0 0.15785283E+04</rscale>
<asrwt>0</asrwt>
<pdfrwt beam="1">  1        1 0.73888714E-01 0.15785283E+04</pdfrwt>
<pdfrwt beam="2">  1       -1 0.19954458E+00 0.15785283E+04</pdfrwt>
<totfact> 0.68257013E+00</totfact>
</mgrwt>
</event>
<event>
12    1  0.1496989E-007  0.3061855E+04  0.7818608E-02  0.8226285E-01
          1   -1    0    0  501    0  0.00000000000E+00  0.00000000000E+00  0.37293574079E+04  0.37293574079E+04  0.00000000000E+00 0. -1.
         -1   -1    0    0    0  501 -0.00000000000E+00 -0.00000000000E+00 -0.62845645187E+03  0.62845645187E+03  0.00000000000E+00 0.  1.
         23    2    1    2    0    0  0.68603994485E+01  0.81122683747E+03 -0.20157262750E+03  0.84041315758E+03  0.86756581119E+02 0.  0.
        254    2    1    2    0    0 -0.68603994485E+01 -0.81122683747E+03  0.33024735836E+04  0.35174007022E+04  0.89868786741E+03 0.  0.
        -24    2    4    4    0    0 -0.24175525133E+03 -0.46605821769E+03  0.69135388367E+03  0.87189173495E+03  0.81050238696E+02 0.  0.
         24    2    4    4    0    0  0.23489485188E+03 -0.34516861978E+03  0.26111196999E+04  0.26455089673E+04  0.80340782051E+02 0.  0.
         11    1    3    3    0    0  0.36911041044E+02  0.22003221869E+03 -0.38498075847E+02  0.22640385168E+03  0.00000000000E+00 0.  1.
        -11    1    3    3    0    0 -0.30050641596E+02  0.59119461878E+03 -0.16307455165E+03  0.61400930589E+03  0.00000000000E+00 0. -1.
          2    1    6    6  502    0  0.10917789071E+03 -0.18425861512E+03  0.15712552344E+04  0.15857849982E+04  0.00000000000E+00 0. -1.
          1    1    5    5  503    0 -0.22646057045E+03 -0.44933791719E+03  0.62869809412E+03  0.80526408546E+03  0.00000000000E+00 0. -1.
         -2    1    5    5    0  503 -0.15294680879E+02 -0.16720300504E+02  0.62655789553E+02  0.66627649491E+02  0.00000000000E+00 0.  1.
         -1    1    6    6    0  502  0.12571696118E+03 -0.16091000465E+03  0.10398644655E+04  0.10597239691E+04  0.00000000000E+00 0.  1.
<mgrwt>
<rscale>  0 0.30618548E+04</rscale>
<asrwt>0</asrwt>
<pdfrwt beam="1">  1        1 0.57374728E+00 0.30618548E+04</pdfrwt>
<pdfrwt beam="2">  1       -1 0.96685610E-01 0.30618548E+04</pdfrwt>
<totfact> 0.14202747E-01</totfact>
</mgrwt>
</event>
<event>
12    1  0.1496989E-007  0.2105640E+04  0.7818608E-02  0.8558763E-01
         -2   -1    0    0    0  501 -0.00000000000E+00  0.00000000000E+00  0.12306525542E+04  0.12306525542E+04  0.00000000000E+00 0.  1.
          2   -1    0    0  501    0  0.00000000000E+00 -0.00000000000E+00 -0.90068466847E+03  0.90068466847E+03  0.00000000000E+00 0. -1.
         23    2    1    2    0    0  0.83263873775E+02  0.79571748606E+03  0.46853230290E+03  0.93167207346E+03  0.91603183877E+02 0.  0.
        254    2    1    2    0    0 -0.83263873775E+02 -0.79571748606E+03 -0.13856441714E+03  0.11996651492E+04  0.88311787566E+03 0.  0.
        -24    2    4    4    0    0 -0.32163741653E+03 -0.73010539177E+03 -0.34033612739E+03  0.87100350787E+03  0.79460180608E+02 0.  0.
         24    2    4    4    0    0  0.23837354276E+03 -0.65612094291E+02  0.20177171025E+03  0.32866164138E+03  0.78611440978E+02 0.  0.
         11    1    3    3    0    0  0.11949403527E+02  0.53018881600E+03  0.31217043292E+03  0.61538065297E+03  0.00000000000E+00 0.  1.
        -11    1    3    3    0    0  0.71314470248E+02  0.26552867006E+03  0.15636186998E+03  0.31629142049E+03  0.00000000000E+00 0. -1.
          4    1    6    6  502    0  0.19842006505E+03 -0.83979879523E+02  0.16800372550E+03  0.27321858311E+03  0.00000000000E+00 0. -1.
          1    1    5    5  503    0 -0.91626913014E+02 -0.13065881868E+03 -0.73673595156E+02  0.17576978327E+03  0.00000000000E+00 0. -1.
         -2    1    5    5    0  503 -0.23001050352E+03 -0.59944657310E+03 -0.26666253223E+03  0.69523372460E+03  0.00000000000E+00 0.  1.
         -3    1    6    6    0  502  0.39953477710E+02  0.18367785232E+02  0.33767984750E+02  0.55443058263E+02  0.00000000000E+00 0.  1.
<mgrwt>
<rscale>  0 0.21056399E+04</rscale>
<asrwt>0</asrwt>
<pdfrwt beam="1">  1        2 0.13856687E+00 0.21056399E+04</pdfrwt>
<pdfrwt beam="2">  1       -2 0.18933116E+00 0.21056399E+04</pdfrwt>
<totfact> 0.42239132E+00</totfact>
</mgrwt>
</event>
<event>
12    1  0.1496989E-007  0.1912868E+04  0.7818608E-02  0.8648478E-01
         -2   -1    0    0    0  501 -0.00000000000E+00  0.00000000000E+00  0.49333686951E+03  0.49333686951E+03  0.00000000000E+00 0.  1.
          2   -1    0    0  501    0  0.00000000000E+00 -0.00000000000E+00 -0.18542414942E+04  0.18542414942E+04  0.00000000000E+00 0. -1.
         23    2    1    2    0    0  0.11091763394E+03 -0.62674149594E+03 -0.65163652570E+02  0.64676896471E+03  0.94637032147E+02 0.  0.
        254    2    1    2    0    0 -0.11091763394E+03  0.62674149594E+03 -0.12957409721E+04  0.17008093990E+04  0.89927766602E+03 0.  0.
        -24    2    4    4    0    0 -0.47711975172E+03  0.42474103004E+03 -0.97262587946E+03  0.11663678881E+04  0.79779376596E+02 0.  0.
         24    2    4    4    0    0  0.36620211779E+03  0.20200046589E+03 -0.32311509261E+03  0.53444151084E+03  0.79474437057E+02 0.  0.
         11    1    3    3    0    0  0.12790436292E+03 -0.57274795693E+03 -0.58003564316E+02  0.58971532259E+03  0.00000000000E+00 0.  1.
        -11    1    3    3    0    0 -0.16986728983E+02 -0.53993539002E+02 -0.71600882545E+01  0.57053642122E+02  0.00000000000E+00 0. -1.
          4    1    6    6  502    0  0.12918243584E+03  0.86768280762E+02 -0.16636407586E+03  0.22780219932E+03  0.00000000000E+00 0. -1.
          3    1    5    5  503    0 -0.26891785996E+02  0.32428975304E+02 -0.35238021928E+02  0.54922898528E+02  0.00000000000E+00 0. -1.
         -4    1    5    5    0  503 -0.45022796573E+03  0.39231205474E+03 -0.93738785753E+03  0.11114449896E+04  0.00000000000E+00 0.  1.
         -3    1    6    6    0  502  0.23701968195E+03  0.11523218513E+03 -0.15675101675E+03  0.30663931153E+03  0.00000000000E+00 0.  1.
<mgrwt>
<rscale>  0 0.19128677E+04</rscale>
<asrwt>0</asrwt>
<pdfrwt beam="1">  1        2 0.28526792E+00 0.19128677E+04</pdfrwt>
<pdfrwt beam="2">  1       -2 0.75897981E-01 0.19128677E+04</pdfrwt>
<totfact> 0.11712639E+01</totfact>
</mgrwt>
</event>
<event>
12    1  0.1496989E-007  0.2036205E+04  0.7818608E-02  0.8589878E-01
         -2   -1    0    0    0  501 -0.00000000000E+00  0.00000000000E+00  0.87518338408E+03  0.87518338408E+03  0.00000000000E+00 0.  1.
          2   -1    0    0  501    0  0.00000000000E+00 -0.00000000000E+00 -0.11843600583E+04  0.11843600583E+04  0.00000000000E+00 0. -1.
         23    2    1    2    0    0  0.55021647833E+03 -0.52148738099E+03  0.17948233199E+03  0.78426289404E+03  0.90372108026E+02 0.  0.
        254    2    1    2    0    0 -0.55021647833E+03  0.52148738099E+03 -0.48865900624E+03  0.12752805484E+04  0.90159058952E+03 0.  0.
        -24    2    4    4    0    0 -0.41321824835E+03  0.44699829952E+02  0.16206357960E+03  0.45319534065E+03  0.79837443487E+02 0.  0.
         24    2    4    4    0    0 -0.13699822998E+03  0.47678755104E+03 -0.65072258584E+03  0.82208520773E+03  0.79305240622E+02 0.  0.
         11    1    3    3    0    0  0.16757817295E+03 -0.10465949941E+03  0.50344799195E+02  0.20388882675E+03  0.00000000000E+00 0. -1.
        -11    1    3    3    0    0  0.38263830538E+03 -0.41682788158E+03  0.12913753279E+03  0.58037406729E+03  0.00000000000E+00 0.  1.
          2    1    6    6  502    0 -0.14194016583E+03  0.46855831463E+03 -0.62058205154E+03  0.79045302681E+03  0.00000000000E+00 0. -1.
          3    1    5    5  503    0 -0.14006562832E+03  0.48170438738E+02  0.36519052368E+02  0.15255298289E+03  0.00000000000E+00 0. -1.
         -4    1    5    5    0  503 -0.27315262004E+03 -0.34706087854E+01  0.12554452723E+03  0.30064235775E+03  0.00000000000E+00 0.  1.
         -1    1    6    6    0  502  0.49419358548E+01  0.82292364065E+01 -0.30140534300E+02  0.31632180919E+02  0.00000000000E+00 0.  1.
<mgrwt>
<rscale>  0 0.20362046E+04</rscale>
<asrwt>0</asrwt>
<pdfrwt beam="1">  1        2 0.18220924E+00 0.20362046E+04</pdfrwt>
<pdfrwt beam="2">  1       -2 0.13464360E+00 0.20362046E+04</pdfrwt>
<totfact> 0.71219896E+00</totfact>
</mgrwt>
</event>
<event>
12    1  0.1496989E-007  0.1157905E+04  0.7818608E-02  0.9150522E-01
          1   -1    0    0  501    0  0.00000000000E+00  0.00000000000E+00  0.24736614656E+04  0.24736614656E+04  0.00000000000E+00 0. -1.
         -1   -1    0    0    0  501 -0.00000000000E+00 -0.00000000000E+00 -0.13550192849E+03  0.13550192849E+03  0.00000000000E+00 0.  1.
         23    2    1    2    0    0  0.13168656262E+03 -0.19782591937E+01  0.18131874412E+02  0.15874041695E+03  0.86743822957E+02 0.  0.
        254    2    1    2    0    0 -0.13168656262E+03  0.19782591937E+01  0.23200276627E+04  0.24504229772E+04  0.77762403958E+03 0.  0.
        -24    2    4    4    0    0  0.22423318995E+03 -0.17501304351E+03  0.15721828721E+04  0.15997380701E+04  0.80578040736E+02 0.  0.
         24    2    4    4    0    0 -0.35591975256E+03  0.17699130271E+03  0.74784479064E+03  0.85068490711E+03  0.79926145891E+02 0.  0.
         11    1    3    3    0    0  0.11384418499E+02 -0.10774847426E+02  0.33651194517E+02  0.37122839521E+02  0.00000000000E+00 0. -1.
        -11    1    3    3    0    0  0.12030214412E+03  0.87965882327E+01 -0.15519320105E+02  0.12161757743E+03  0.00000000000E+00 0.  1.
          2    1    6    6  502    0 -0.12730991917E+03  0.10594416180E+03  0.28664674233E+03  0.33105639372E+03  0.00000000000E+00 0. -1.
          1    1    5    5  503    0  0.12863529836E+03 -0.13208763876E+03  0.83276115739E+03  0.85292750545E+03  0.00000000000E+00 0. -1.
         -2    1    5    5    0  503  0.95597891587E+02 -0.42925404751E+02  0.73942171470E+03  0.74681056461E+03  0.00000000000E+00 0.  1.
         -1    1    6    6    0  502 -0.22860983339E+03  0.71047140904E+02  0.46119804832E+03  0.51962851339E+03  0.00000000000E+00 0.  1.
<mgrwt>
<rscale>  0 0.11579048E+04</rscale>
<asrwt>0</asrwt>
<pdfrwt beam="1">  1        1 0.38056327E+00 0.11579048E+04</pdfrwt>
<pdfrwt beam="2">  1       -1 0.20846452E-01 0.11579048E+04</pdfrwt>
<totfact> 0.26945839E+01</totfact>
</mgrwt>
</event>
<event>
12    1  0.1496989E-007  0.1541692E+04  0.7818608E-02  0.8857192E-01
          2   -1    0    0  501    0  0.00000000000E+00  0.00000000000E+00  0.11900817491E+04  0.11900817491E+04  0.00000000000E+00 0. -1.
         -2   -1    0    0    0  501 -0.00000000000E+00 -0.00000000000E+00 -0.49929640606E+03  0.49929640606E+03  0.00000000000E+00 0.  1.
         23    2    1    2    0    0 -0.82201802436E+02  0.20716209094E+03  0.73038164594E+03  0.76904865317E+03  0.91132946714E+02 0.  0.
        254    2    1    2    0    0  0.82201802436E+02 -0.20716209094E+03 -0.39596302923E+02  0.92032950197E+03  0.89205675646E+03 0.  0.
        -24    2    4    4    0    0 -0.99963537853E+02  0.96597480655E+02 -0.38574752627E+03  0.41817234870E+03  0.82116849787E+02 0.  0.
         24    2    4    4    0    0  0.18216534029E+03 -0.30375957159E+03  0.34615122335E+03  0.50215715327E+03  0.82988243853E+02 0.  0.
         13    1    3    3    0    0 -0.38752113090E+02  0.16993104274E+03  0.62827117974E+03  0.65199920310E+03  0.00000000000E+00 0. -1.
        -13    1    3    3    0    0 -0.43449689346E+02  0.37231048195E+02  0.10211046620E+03  0.11704945007E+03  0.00000000000E+00 0.  1.
          4    1    6    6  502    0  0.94374821282E+02 -0.81530575433E+02  0.11235505531E+03  0.16786155032E+03  0.00000000000E+00 0. -1.
          3    1    5    5  503    0 -0.24101049822E+02 -0.13203465511E+02 -0.54112082219E+02  0.60690275548E+02  0.00000000000E+00 0. -1.
         -4    1    5    5    0  503 -0.75862488031E+02  0.10980094617E+03 -0.33163544406E+03  0.35748207315E+03  0.00000000000E+00 0.  1.
         -1    1    6    6    0  502  0.87790519008E+02 -0.22222899616E+03  0.23379616804E+03  0.33429560295E+03  0.00000000000E+00 0.  1.
<mgrwt>
<rscale>  0 0.15416920E+04</rscale>
<asrwt>0</asrwt>
<pdfrwt beam="1">  1        2 0.18308950E+00 0.15416920E+04</pdfrwt>
<pdfrwt beam="2">  1       -2 0.76814832E-01 0.15416920E+04</pdfrwt>
<totfact> 0.28005966E+01</totfact>
</mgrwt>
</event>
<event>
12    1  0.1496989E-007  0.1732052E+04  0.7818608E-02  0.8743292E-01
          2   -1    0    0  501    0  0.00000000000E+00  0.00000000000E+00  0.15515527211E+04  0.15515527211E+04  0.00000000000E+00 0.  1.
         -2   -1    0    0    0  501 -0.00000000000E+00 -0.00000000000E+00 -0.48338758715E+03  0.48338758715E+03  0.00000000000E+00 0. -1.
         23    2    1    2    0    0  0.11460330525E+03  0.28243914047E+03 -0.24785071488E+03  0.40272587030E+03  0.88613566108E+02 0.  0.
        254    2    1    2    0    0 -0.11460330525E+03 -0.28243914047E+03  0.13160158488E+04  0.16322144380E+04  0.91614435078E+03 0.  0.
        -24    2    4    4    0    0 -0.49020505286E+03 -0.45702814185E+02  0.83726474043E+03  0.97433143274E+03  0.76939938700E+02 0.  0.
         24    2    4    4    0    0  0.37560174761E+03 -0.23673632629E+03  0.47875110840E+03  0.65788300522E+03  0.80539827283E+02 0.  0.
         11    1    3    3    0    0  0.79829177323E+02  0.11536571293E+03 -0.72026350643E+02  0.15770142821E+03  0.00000000000E+00 0.  1.
        -11    1    3    3    0    0  0.34774127929E+02  0.16707342754E+03 -0.17582436424E+03  0.24502444209E+03  0.00000000000E+00 0. -1.
          2    1    6    6  502    0  0.20427103132E+03 -0.11050247141E+03  0.19537431512E+03  0.30349394299E+03  0.00000000000E+00 0. -1.
          1    1    5    5  503    0 -0.45730048220E+03 -0.62038802597E+02  0.77083291015E+03  0.89841856582E+03  0.00000000000E+00 0. -1.
         -2    1    5    5    0  503 -0.32904570666E+02  0.16335988412E+02  0.66431830287E+02  0.75912866916E+02  0.00000000000E+00 0.  1.
         -1    1    6    6    0  502  0.17133071629E+03 -0.12623385488E+03  0.28337679327E+03  0.35438906223E+03  0.00000000000E+00 0.  1.
<mgrwt>
<rscale>  0 0.17320523E+04</rscale>
<asrwt>0</asrwt>
<pdfrwt beam="1">  1        2 0.23870042E+00 0.17320523E+04</pdfrwt>
<pdfrwt beam="2">  1       -2 0.74367322E-01 0.17320523E+04</pdfrwt>
<totfact> 0.18334005E+01</totfact>
</mgrwt>
</event>
<event>
12    1  0.1496989E-007  0.2714958E+04  0.7818608E-02  0.8330168E-01
          1   -1    0    0  501    0  0.00000000000E+00  0.00000000000E+00  0.15650343110E+04  0.15650343110E+04  0.00000000000E+00 0. -1.
         -1   -1    0    0    0  501 -0.00000000000E+00 -0.00000000000E+00 -0.11774493025E+04  0.11774493025E+04  0.00000000000E+00 0.  1.
         23    2    1    2    0    0 -0.10133121311E+04 -0.51261661354E+03 -0.23552501366E+03  0.11634031524E+04  0.91965184876E+02 0.  0.
        254    2    1    2    0    0  0.10133121311E+04  0.51261661354E+03  0.62311002210E+03  0.15790804611E+04  0.90313439501E+03 0.  0.
        -24    2    4    4    0    0  0.92318169991E+02 -0.16686037934E+03  0.33849097123E+03  0.39662893347E+03  0.79833217145E+02 0.  0.
         24    2    4    4    0    0  0.92099396116E+03  0.67947699288E+03  0.28461905088E+03  0.11824515277E+04  0.85233507388E+02 0.  0.
         11    1    3    3    0    0 -0.68625047287E+03 -0.36474498887E+03 -0.12024024338E+03  0.78640723201E+03  0.00000000000E+00 0.  1.
        -11    1    3    3    0    0 -0.32706165828E+03 -0.14787162467E+03 -0.11528477029E+03  0.37699592035E+03  0.00000000000E+00 0. -1.
          4    1    6    6  502    0  0.83162745596E+03  0.58034477122E+03  0.25688526954E+03  0.10461330320E+04  0.00000000000E+00 0. -1.
          3    1    5    5  503    0  0.10473845982E+03 -0.12580864436E+03  0.27405168846E+03  0.31922137759E+03  0.00000000000E+00 0. -1.
         -4    1    5    5    0  503 -0.12420289827E+02 -0.41051734984E+02  0.64439282765E+02  0.77407555883E+02  0.00000000000E+00 0.  1.
         -3    1    6    6    0  502  0.89366505196E+02  0.99132221659E+02  0.27733781339E+02  0.13631849562E+03  0.00000000000E+00 0.  1.
<mgrwt>
<rscale>  0 0.27149575E+04</rscale>
<asrwt>0</asrwt>
<pdfrwt beam="1">  1        1 0.24077451E+00 0.27149575E+04</pdfrwt>
<pdfrwt beam="2">  1       -1 0.18114605E+00 0.27149575E+04</pdfrwt>
<totfact> 0.10503534E+00</totfact>
</mgrwt>
</event>
<event>
12    1  0.1496989E-007  0.1544731E+04  0.7818608E-02  0.8855240E-01
          2   -1    0    0  501    0  0.00000000000E+00  0.00000000000E+00  0.18163844141E+04  0.18163844141E+04  0.00000000000E+00 0. -1.
         -2   -1    0    0    0  501 -0.00000000000E+00 -0.00000000000E+00 -0.32842633407E+03  0.32842633407E+03  0.00000000000E+00 0.  1.
         23    2    1    2    0    0  0.87206390871E+02 -0.37261421418E+03  0.95894165949E+03  0.10364406276E+04  0.90519395400E+02 0.  0.
        254    2    1    2    0    0 -0.87206390871E+02  0.37261421418E+03  0.52901642058E+03  0.11083701206E+04  0.89564482016E+03 0.  0.
        -24    2    4    4    0    0  0.12683748001E+03  0.38456768389E+03 -0.11194123188E+03  0.42800643083E+03  0.81722797380E+02 0.  0.
         24    2    4    4    0    0 -0.21404387088E+03 -0.11953469714E+02  0.64095765247E+03  0.68036368981E+03  0.78168881640E+02 0.  0.
         11    1    3    3    0    0  0.90803652219E+02 -0.25555734649E+03  0.74019654503E+03  0.78831832775E+03  0.00000000000E+00 0. -1.
        -11    1    3    3    0    0 -0.35972613476E+01 -0.11705686769E+03  0.21874511446E+03  0.24812229981E+03  0.00000000000E+00 0.  1.
          2    1    6    6  502    0  0.16396288592E+00 -0.26689281353E+01  0.76644839782E+02  0.76691469711E+02  0.00000000000E+00 0. -1.
          3    1    5    5  503    0  0.21936917972E+01  0.11536471996E+03 -0.45269192153E+02  0.12394809661E+03  0.00000000000E+00 0. -1.
         -4    1    5    5    0  503  0.12464378822E+03  0.26920296393E+03 -0.66672039730E+02  0.30405833423E+03  0.00000000000E+00 0.  1.
         -1    1    6    6    0  502 -0.21420783377E+03 -0.92845415784E+01  0.56431281268E+03  0.60367222010E+03  0.00000000000E+00 0.  1.
<mgrwt>
<rscale>  0 0.15447310E+04</rscale>
<asrwt>0</asrwt>
<pdfrwt beam="1">  1        2 0.27944375E+00 0.15447310E+04</pdfrwt>
<pdfrwt beam="2">  1       -2 0.50527129E-01 0.15447310E+04</pdfrwt>
<totfact> 0.30137881E+01</totfact>
</mgrwt>
</event>
<event>
12    1  0.1496989E-007  0.1361136E+04  0.7818608E-02  0.8982441E-01
          1   -1    0    0  501    0  0.00000000000E+00  0.00000000000E+00  0.61432502877E+03  0.61432502877E+03  0.00000000000E+00 0. -1.
         -1   -1    0    0    0  501 -0.00000000000E+00 -0.00000000000E+00 -0.75395359435E+03  0.75395359435E+03  0.00000000000E+00 0.  1.
         23    2    1    2    0    0  0.19822112614E+03 -0.21535999261E+03 -0.26985297033E+03  0.40881708320E+03  0.92947515583E+02 0.  0.
        254    2    1    2    0    0 -0.19822112614E+03  0.21535999261E+03  0.13022440475E+03  0.95946153992E+03  0.90439842422E+03 0.  0.
        -24    2    4    4    0    0  0.28561611512E+03  0.34724391438E+02  0.28736578750E+03  0.41406048508E+03  0.78004108234E+02 0.  0.
         24    2    4    4    0    0 -0.48383724126E+03  0.18063560117E+03 -0.15714138275E+03  0.54540105484E+03  0.77725156879E+02 0.  0.
         11    1    3    3    0    0  0.58368610924E+02 -0.33195960569E+02 -0.11045355546E+03  0.12926273420E+03  0.00000000000E+00 0. -1.
        -11    1    3    3    0    0  0.13985251521E+03 -0.18216403204E+03 -0.15939941487E+03  0.27955434900E+03  0.00000000000E+00 0.  1.
          2    1    6    6  502    0 -0.19554199850E+03  0.57032782352E+02 -0.25716400173E+02  0.20530646526E+03  0.00000000000E+00 0. -1.
          3    1    5    5  503    0  0.10560640748E+01 -0.88422817464E+01  0.29479523384E+01  0.93803859623E+01  0.00000000000E+00 0. -1.
         -4    1    5    5    0  503  0.28456005104E+03  0.43566673184E+02  0.28441783516E+03  0.40468009912E+03  0.00000000000E+00 0.  1.
         -1    1    6    6    0  502 -0.28829524276E+03  0.12360281882E+03 -0.13142498258E+03  0.34009458958E+03  0.00000000000E+00 0.  1.
<mgrwt>
<rscale>  0 0.13611356E+04</rscale>
<asrwt>0</asrwt>
<pdfrwt beam="1">  1        1 0.94511543E-01 0.13611356E+04</pdfrwt>
<pdfrwt beam="2">  1       -1 0.11599286E+00 0.13611356E+04</pdfrwt>
<totfact> 0.21769810E+01</totfact>
</mgrwt>
</event>
<event>
12    1  0.1496989E-007  0.1313763E+04  0.7818608E-02  0.9018722E-01
         -1   -1    0    0    0  501 -0.00000000000E+00  0.00000000000E+00  0.28978160401E+03  0.28978160401E+03  0.00000000000E+00 0.  1.
          1   -1    0    0  501    0  0.00000000000E+00 -0.00000000000E+00 -0.14890291502E+04  0.14890291502E+04  0.00000000000E+00 0. -1.
         23    2    1    2    0    0 -0.24724784799E+03 -0.38453323943E+02 -0.11344081534E+02  0.26655592168E+03  0.91176832253E+02 0.  0.
        254    2    1    2    0    0  0.24724784799E+03  0.38453323943E+02 -0.11879034646E+04  0.15122548325E+04  0.90177041463E+03 0.  0.
        -24    2    4    4    0    0  0.41857017835E+03 -0.29991088001E+03 -0.85492351909E+03  0.10010373258E+04  0.77678658491E+02 0.  0.
         24    2    4    4    0    0 -0.17132233036E+03  0.33836420396E+03 -0.33297994554E+03  0.51121750671E+03  0.81400366347E+02 0.  0.
         13    1    3    3    0    0 -0.91274006983E+02  0.15106270065E+02  0.28672319181E+02  0.96856830597E+02  0.00000000000E+00 0. -1.
        -13    1    3    3    0    0 -0.15597384101E+03 -0.53559594008E+02 -0.40016400716E+02  0.16969909109E+03  0.00000000000E+00 0.  1.
          4    1    6    6  502    0 -0.14053472857E+03  0.28790782592E+03 -0.23704851687E+03  0.39853848686E+03  0.00000000000E+00 0. -1.
          3    1    5    5  503    0  0.36715383404E+03 -0.28624598148E+03 -0.79139342658E+03  0.91817332536E+03  0.00000000000E+00 0. -1.
         -4    1    5    5    0  503  0.51416344306E+02 -0.13664898531E+02 -0.63530092511E+02  0.82864000435E+02  0.00000000000E+00 0.  1.
         -3    1    6    6    0  502 -0.30787601788E+02  0.50456378036E+02 -0.95931428666E+02  0.11267901985E+03  0.00000000000E+00 0.  1.
<mgrwt>
<rscale>  0 0.13137629E+04</rscale>
<asrwt>0</asrwt>
<pdfrwt beam="1">  1        1 0.22908141E+00 0.13137629E+04</pdfrwt>
<pdfrwt beam="2">  1       -1 0.44581785E-01 0.13137629E+04</pdfrwt>
<totfact> 0.32560178E+01</totfact>
</mgrwt>
</event>
<event>
12    1  0.1496989E-007  0.1683838E+04  0.7818608E-02  0.8770636E-01
          1   -1    0    0  501    0  0.00000000000E+00  0.00000000000E+00  0.88985518680E+03  0.88985518680E+03  0.00000000000E+00 0. -1.
         -1   -1    0    0    0  501 -0.00000000000E+00 -0.00000000000E+00 -0.79656542067E+03  0.79656542067E+03  0.00000000000E+00 0.  1.
         23    2    1    2    0    0  0.30319558634E+03  0.36733713668E+03  0.38643239273E+03  0.61998866516E+03  0.90508647220E+02 0.  0.
        254    2    1    2    0    0 -0.30319558634E+03 -0.36733713668E+03 -0.29314262659E+03  0.10664319423E+04  0.90800900463E+03 0.  0.
        -24    2    4    4    0    0 -0.41556607081E+02  0.70033990677E+02  0.27561921508E+03  0.29837798510E+03  0.80198247052E+02 0.  0.
         24    2    4    4    0    0 -0.26163897926E+03 -0.43737112736E+03 -0.56876184167E+03  0.76805395721E+03  0.81660211443E+02 0.  0.
         11    1    3    3    0    0  0.75345353009E+02  0.92975444881E+02  0.15090630966E+03  0.19259820837E+03  0.00000000000E+00 0. -1.
        -11    1    3    3    0    0  0.22785023333E+03  0.27436169180E+03  0.23552608307E+03  0.42739045680E+03  0.00000000000E+00 0.  1.
          2    1    6    6  502    0 -0.12414080521E+03 -0.28339181366E+03 -0.35455141573E+03  0.47056196825E+03  0.00000000000E+00 0. -1.
          3    1    5    5  503    0 -0.25369978068E+01 -0.17184569119E+02  0.27847643604E+02  0.32821289249E+02  0.00000000000E+00 0. -1.
         -4    1    5    5    0  503 -0.39019609274E+02  0.87218559796E+02  0.24777157147E+03  0.26555669585E+03  0.00000000000E+00 0.  1.
         -1    1    6    6    0  502 -0.13749817405E+03 -0.15397931370E+03 -0.21421042595E+03  0.29749198896E+03  0.00000000000E+00 0.  1.
<mgrwt>
<rscale>  0 0.16838383E+04</rscale>
<asrwt>0</asrwt>
<pdfrwt beam="1">  1        1 0.13690080E+00 0.16838383E+04</pdfrwt>
<pdfrwt beam="2">  1       -1 0.12254853E+00 0.16838383E+04</pdfrwt>
<totfact> 0.10393146E+01</totfact>
</mgrwt>
</event>
<event>
12    1  0.1496989E-007  0.2416693E+04  0.7818608E-02  0.8433280E-01
         -2   -1    0    0    0  501 -0.00000000000E+00  0.00000000000E+00  0.38109490583E+03  0.38109490583E+03  0.00000000000E+00 0.  1.
          2   -1    0    0  501    0  0.00000000000E+00 -0.00000000000E+00 -0.38313335239E+04  0.38313335239E+04  0.00000000000E+00 0. -1.
         23    2    1    2    0    0  0.76766264961E+03  0.44797975300E+03 -0.24253373549E+04  0.25846875221E+04  0.91413890301E+02 0.  0.
        254    2    1    2    0    0 -0.76766264961E+03 -0.44797975300E+03 -0.10249012632E+04  0.16277409076E+04  0.89951434692E+03 0.  0.
        -24    2    4    4    0    0  0.11259194177E+03  0.14315510730E+03 -0.13075630462E+03  0.23846434415E+03  0.81226240436E+02 0.  0.
         24    2    4    4    0    0 -0.88025459138E+03 -0.59113486030E+03 -0.89414495855E+03  0.13892765634E+04  0.79407771122E+02 0.  0.
         11    1    3    3    0    0  0.45793712178E+03  0.30725570523E+03 -0.14181863909E+04  0.15216323850E+04  0.00000000000E+00 0. -1.
        -11    1    3    3    0    0  0.30972552783E+03  0.14072404777E+03 -0.10071509640E+04  0.10630551371E+04  0.00000000000E+00 0.  1.
          2    1    6    6  502    0 -0.79914050543E+03 -0.54157347469E+03 -0.84133054751E+03  0.12805328836E+04  0.00000000000E+00 0. -1.
          1    1    5    5  503    0  0.57984427619E+02  0.10748774067E+03 -0.43760722432E+02  0.12973360809E+03  0.00000000000E+00 0. -1.
         -2    1    5    5    0  503  0.54607514156E+02  0.35667366636E+02 -0.86995582188E+02  0.10873073607E+03  0.00000000000E+00 0.  1.
         -1    1    6    6    0  502 -0.81114085955E+02 -0.49561385615E+02 -0.52814411044E+02  0.10874367981E+03  0.00000000000E+00 0.  1.
<mgrwt>
<rscale>  0 0.24166934E+04</rscale>
<asrwt>0</asrwt>
<pdfrwt beam="1">  1        2 0.58943593E+00 0.24166934E+04</pdfrwt>
<pdfrwt beam="2">  1       -2 0.58629985E-01 0.24166934E+04</pdfrwt>
<totfact> 0.11388550E+00</totfact>
</mgrwt>
</event>
<event>
12    1  0.1496989E-007  0.3077693E+04  0.7818608E-02  0.8221887E-01
         -1   -1    0    0    0  501 -0.00000000000E+00  0.00000000000E+00  0.62077346616E+03  0.62077346616E+03  0.00000000000E+00 0.  1.
          1   -1    0    0  501    0  0.00000000000E+00 -0.00000000000E+00 -0.38146746597E+04  0.38146746597E+04  0.00000000000E+00 0. -1.
         23    2    1    2    0    0 -0.56675360079E+03 -0.91710895910E+03 -0.16458489192E+03  0.10943345581E+04  0.90451377198E+02 0.  0.
        254    2    1    2    0    0  0.56675360079E+03  0.91710895910E+03 -0.30293163016E+04  0.33411135677E+04  0.90773571608E+03 0.  0.
        -24    2    4    4    0    0 -0.48212458515E+02  0.42530262324E+03 -0.19770396494E+04  0.20244493195E+04  0.80638138512E+02 0.  0.
         24    2    4    4    0    0  0.61496605930E+03  0.49180633587E+03 -0.10522766522E+04  0.13166642482E+04  0.79131938325E+02 0.  0.
         11    1    3    3    0    0 -0.10881056272E+03 -0.21128981536E+03 -0.69499110125E+02  0.24761512664E+03  0.00000000000E+00 0. -1.
        -11    1    3    3    0    0 -0.45794303807E+03 -0.70581914375E+03 -0.95085781796E+02  0.84671943151E+03  0.00000000000E+00 0.  1.
          4    1    6    6  502    0  0.61082947981E+03  0.48002790093E+03 -0.10452494004E+04  0.13023385689E+04  0.00000000000E+00 0. -1.
          1    1    5    5  503    0 -0.61179728836E+02  0.36787148548E+03 -0.16032196721E+04  0.16460211743E+04  0.00000000000E+00 0. -1.
         -2    1    5    5    0  503  0.12967270321E+02  0.57431137753E+02 -0.37381997729E+03  0.37842814523E+03  0.00000000000E+00 0.  1.
         -3    1    6    6    0  502  0.41365794951E+01  0.11778434934E+02 -0.70272518288E+01  0.14325679309E+02  0.00000000000E+00 0.  1.
<mgrwt>
<rscale>  0 0.30776932E+04</rscale>
<asrwt>0</asrwt>
<pdfrwt beam="1">  1        1 0.58687303E+00 0.30776932E+04</pdfrwt>
<pdfrwt beam="2">  1       -1 0.95503609E-01 0.30776932E+04</pdfrwt>
<totfact> 0.12378962E-01</totfact>
</mgrwt>
</event>
<event>
12    1  0.1496989E-007  0.1498622E+04  0.7818608E-02  0.8885370E-01
         -1   -1    0    0    0  501 -0.00000000000E+00  0.00000000000E+00  0.35565772726E+03  0.35565772726E+03  0.00000000000E+00 0.  1.
          1   -1    0    0  501    0  0.00000000000E+00 -0.00000000000E+00 -0.15786719336E+04  0.15786719336E+04  0.00000000000E+00 0. -1.
         23    2    1    2    0    0  0.24567031994E+03 -0.28628254683E+03 -0.77763202870E+03  0.86943291025E+03  0.94288974118E+02 0.  0.
        254    2    1    2    0    0 -0.24567031994E+03  0.28628254683E+03 -0.44538217768E+03  0.10648967507E+04  0.89068973421E+03 0.  0.
        -24    2    4    4    0    0  0.14543189972E+03 -0.31962602900E+02  0.18892078123E+03  0.25124842998E+03  0.72544238547E+02 0.  0.
         24    2    4    4    0    0 -0.39110221966E+03  0.31824514973E+03 -0.63430295891E+03  0.81364832067E+03  0.73772789637E+02 0.  0.
         13    1    3    3    0    0  0.23116556938E+03 -0.23697466911E+03 -0.71841818953E+03  0.79102415216E+03  0.00000000000E+00 0. -1.
        -13    1    3    3    0    0  0.14504750564E+02 -0.49307877722E+02 -0.59213839174E+02  0.78408758083E+02  0.00000000000E+00 0.  1.
          4    1    6    6  502    0 -0.22745367139E+03  0.17172937418E+03 -0.41344640042E+03  0.50215941354E+03  0.00000000000E+00 0. -1.
          3    1    5    5  503    0 -0.47686025561E+01 -0.12811011824E+02  0.10493943846E+02  0.17233236833E+02  0.00000000000E+00 0. -1.
         -4    1    5    5    0  503  0.15020050228E+03 -0.19151591076E+02  0.17842683739E+03  0.23401519315E+03  0.00000000000E+00 0.  1.
         -3    1    6    6    0  502 -0.16364854827E+03  0.14651577555E+03 -0.22085655850E+03  0.31148890713E+03  0.00000000000E+00 0.  1.
<mgrwt>
<rscale>  0 0.14986219E+04</rscale>
<asrwt>0</asrwt>
<pdfrwt beam="1">  1        1 0.24287261E+00 0.14986219E+04</pdfrwt>
<pdfrwt beam="2">  1       -1 0.54716573E-01 0.14986219E+04</pdfrwt>
<totfact> 0.18844294E+01</totfact>
</mgrwt>
</event>
<event>
12    1  0.1496989E-007  0.2640983E+04  0.7818608E-02  0.8354412E-01
         -1   -1    0    0    0  501 -0.00000000000E+00  0.00000000000E+00  0.12705308039E+04  0.12705308039E+04  0.00000000000E+00 0.  1.
          1   -1    0    0  501    0  0.00000000000E+00 -0.00000000000E+00 -0.13724169181E+04  0.13724169181E+04  0.00000000000E+00 0. -1.
         23    2    1    2    0    0 -0.38934098544E+02  0.69519562546E+02  0.11227961770E+04  0.11287193651E+04  0.83590170233E+02 0.  0.
        254    2    1    2    0    0  0.38934098544E+02 -0.69519562546E+02 -0.12246822911E+04  0.15142283569E+04  0.88695657668E+03 0.  0.
        -24    2    4    4    0    0  0.18665474821E+02  0.30482566907E+03 -0.10654125293E+03  0.33248664471E+03  0.77001570514E+02 0.  0.
         24    2    4    4    0    0  0.20268623724E+02 -0.37434523161E+03 -0.11181410382E+04  0.11817417121E+04  0.75689651821E+02 0.  0.
         13    1    3    3    0    0 -0.22714129372E+02 -0.15184859875E+02  0.19165697016E+03  0.19359469480E+03  0.00000000000E+00 0. -1.
        -13    1    3    3    0    0 -0.16219969172E+02  0.84704422421E+02  0.93113920680E+03  0.93512467031E+03  0.00000000000E+00 0.  1.
          2    1    6    6  502    0  0.23441007238E+02 -0.37627052013E+03 -0.10899671752E+04  0.11533245112E+04  0.00000000000E+00 0. -1.
          3    1    5    5  503    0  0.34295814946E+02  0.25759675351E+03 -0.11090820211E+03  0.28254719896E+03  0.00000000000E+00 0. -1.
         -4    1    5    5    0  503 -0.15630340125E+02  0.47228915556E+02  0.43669491815E+01  0.49939445754E+02  0.00000000000E+00 0.  1.
         -1    1    6    6    0  502 -0.31723835145E+01  0.19252885188E+01 -0.28173863020E+02  0.28417200962E+02  0.00000000000E+00 0.  1.
<mgrwt>
<rscale>  0 0.26409831E+04</rscale>
<asrwt>0</asrwt>
<pdfrwt beam="1">  1        1 0.21114106E+00 0.26409831E+04</pdfrwt>
<pdfrwt beam="2">  1       -1 0.19546628E+00 0.26409831E+04</pdfrwt>
<totfact> 0.11409695E+00</totfact>
</mgrwt>
</event>
<event>
12    1  0.1496989E-007  0.1754576E+04  0.7818608E-02  0.8730835E-01
          2   -1    0    0  501    0  0.00000000000E+00  0.00000000000E+00  0.28622448705E+04  0.28622448705E+04  0.00000000000E+00 0. -1.
         -2   -1    0    0    0  501 -0.00000000000E+00 -0.00000000000E+00 -0.26889195784E+03  0.26889195784E+03  0.00000000000E+00 0.  1.
         23    2    1    2    0    0  0.51323336354E+03  0.20555868463E+02  0.16317879566E+04  0.17131705111E+04  0.91598229923E+02 0.  0.
        254    2    1    2    0    0 -0.51323336354E+03 -0.20555868463E+02  0.96156495609E+03  0.14179663172E+04  0.90674708871E+03 0.  0.
        -24    2    4    4    0    0 -0.36830253024E+03  0.14759857244E+03  0.10805906845E+04  0.11539137127E+04  0.80053334965E+02 0.  0.
         24    2    4    4    0    0 -0.14493083330E+03 -0.16815444090E+03 -0.11902572846E+03  0.26405260456E+03  0.79219893362E+02 0.  0.
         13    1    3    3    0    0  0.50814265471E+03  0.31040989960E+02  0.16082871113E+04  0.16869380347E+04  0.00000000000E+00 0. -1.
        -13    1    3    3    0    0  0.50907088288E+01 -0.10485121497E+02  0.23500845330E+02  0.26232476445E+02  0.00000000000E+00 0.  1.
          2    1    6    6  502    0 -0.11559822782E+02 -0.29764550649E+01 -0.32809114265E+02  0.34913131718E+02  0.00000000000E+00 0. -1.
          1    1    5    5  503    0 -0.46111788292E+02  0.50208815289E+02  0.17848682578E+03  0.19106221272E+03  0.00000000000E+00 0. -1.
         -2    1    5    5    0  503 -0.32219074195E+03  0.97389757147E+02  0.90210385877E+03  0.96285149997E+03  0.00000000000E+00 0.  1.
         -3    1    6    6    0  502 -0.13337101051E+03 -0.16517798583E+03 -0.86216614192E+02  0.22913947284E+03  0.00000000000E+00 0.  1.
<mgrwt>
<rscale>  0 0.17545764E+04</rscale>
<asrwt>0</asrwt>
<pdfrwt beam="1">  1        2 0.44034534E+00 0.17545764E+04</pdfrwt>
<pdfrwt beam="2">  1       -2 0.41367996E-01 0.17545764E+04</pdfrwt>
<totfact> 0.11152403E+01</totfact>
</mgrwt>
</event>
<event>
12    1  0.1496989E-007  0.3445409E+04  0.7818608E-02  0.8126851E-01
          1   -1    0    0  501    0  0.00000000000E+00  0.00000000000E+00  0.20854575208E+04  0.20854575208E+04  0.00000000000E+00 0. -1.
         -1   -1    0    0    0  501 -0.00000000000E+00 -0.00000000000E+00 -0.14230499790E+04  0.14230499790E+04  0.00000000000E+00 0.  1.
         23    2    1    2    0    0  0.98877262206E+02 -0.15791844935E+04  0.39739383290E+02  0.15853826363E+04  0.90876330102E+02 0.  0.
        254    2    1    2    0    0 -0.98877262206E+02  0.15791844935E+04  0.62266815852E+03  0.19231248635E+04  0.89838367498E+03 0.  0.
        -24    2    4    4    0    0 -0.17733232825E+03  0.59267604960E+03 -0.17719149223E+03  0.64817181602E+03  0.77577211513E+02 0.  0.
         24    2    4    4    0    0  0.78455066044E+02  0.98650844391E+03  0.79985965075E+03  0.12749530475E+04  0.79848012536E+02 0.  0.
         13    1    3    3    0    0  0.87510859919E+02 -0.13528402987E+04  0.65775992218E+02  0.13572625043E+04  0.00000000000E+00 0.  1.
        -13    1    3    3    0    0  0.11366402287E+02 -0.22634419479E+03 -0.26036608928E+02  0.22812013199E+03  0.00000000000E+00 0. -1.
          2    1    6    6  502    0  0.88815633928E+02  0.72603271771E+03  0.61068517653E+03  0.95286311129E+03  0.00000000000E+00 0. -1.
          3    1    5    5  503    0 -0.16481556584E+03  0.47171335525E+03 -0.16373935793E+03  0.52582148834E+03  0.00000000000E+00 0. -1.
         -4    1    5    5    0  503 -0.12516762414E+02  0.12096269435E+03 -0.13452134305E+02  0.12235032768E+03  0.00000000000E+00 0.  1.
         -1    1    6    6    0  502 -0.10360567884E+02  0.26047572620E+03  0.18917447422E+03  0.32208993620E+03  0.00000000000E+00 0.  1.
<mgrwt>
<rscale>  0 0.34454087E+04</rscale>
<asrwt>0</asrwt>
<pdfrwt beam="1">  1        1 0.32083962E+00 0.34454087E+04</pdfrwt>
<pdfrwt beam="2">  1       -1 0.21893077E+00 0.34454087E+04</pdfrwt>
<totfact> 0.23908269E-01</totfact>
</mgrwt>
</event>
<event>
12    1  0.1496989E-007  0.2861426E+04  0.7818608E-02  0.8284448E-01
          1   -1    0    0  501    0  0.00000000000E+00  0.00000000000E+00  0.13248085345E+04  0.13248085345E+04  0.00000000000E+00 0. -1.
         -1   -1    0    0    0  501 -0.00000000000E+00 -0.00000000000E+00 -0.15450836387E+04  0.15450836387E+04  0.00000000000E+00 0.  1.
         23    2    1    2    0    0  0.63482060427E+03 -0.62900110422E+03  0.83167565160E+03  0.12238043861E+04  0.85867323369E+02 0.  0.
        254    2    1    2    0    0 -0.63482060427E+03  0.62900110422E+03 -0.10519507557E+04  0.16460877871E+04  0.89686399291E+03 0.  0.
        -24    2    4    4    0    0 -0.50666486064E+03  0.67226707967E+02 -0.91099542052E+03  0.10476725095E+04  0.80475584347E+02 0.  0.
         24    2    4    4    0    0 -0.12815574363E+03  0.56177439625E+03 -0.14095533520E+03  0.59841527764E+03  0.78854746694E+02 0.  0.
         13    1    3    3    0    0  0.35072877318E+03 -0.36748736605E+03  0.41739080626E+03  0.65747450269E+03  0.00000000000E+00 0. -1.
        -13    1    3    3    0    0  0.28409183109E+03 -0.26151373817E+03  0.41428484534E+03  0.56632988340E+03  0.00000000000E+00 0.  1.
          2    1    6    6  502    0 -0.28427756808E+02  0.58703252380E+02  0.43451267637E+01  0.65368871214E+02  0.00000000000E+00 0. -1.
          1    1    5    5  503    0 -0.69588597422E+02 -0.65187606171E+01 -0.83096858613E+02  0.10858248037E+03  0.00000000000E+00 0. -1.
         -2    1    5    5    0  503 -0.43707626322E+03  0.73745468584E+02 -0.82789856191E+03  0.93909002913E+03  0.00000000000E+00 0.  1.
         -1    1    6    6    0  502 -0.99727986819E+02  0.50307114387E+03 -0.14530046196E+03  0.53304640642E+03  0.00000000000E+00 0.  1.
<mgrwt>
<rscale>  0 0.28614262E+04</rscale>
<asrwt>0</asrwt>
<pdfrwt beam="1">  1        1 0.20381670E+00 0.28614262E+04</pdfrwt>
<pdfrwt beam="2">  1       -1 0.23770517E+00 0.28614262E+04</pdfrwt>
<totfact> 0.62778394E-01</totfact>
</mgrwt>
</event>
<event>
12    1  0.1496989E-007  0.1913160E+04  0.7818608E-02  0.8648334E-01
          1   -1    0    0  501    0  0.00000000000E+00  0.00000000000E+00  0.21090145336E+04  0.21090145336E+04  0.00000000000E+00 0. -1.
         -1   -1    0    0    0  501 -0.00000000000E+00 -0.00000000000E+00 -0.43387319249E+03  0.43387319249E+03  0.00000000000E+00 0.  1.
         23    2    1    2    0    0  0.26987997207E+03 -0.18919847120E+03  0.15326301608E+04  0.15702956549E+04  0.90785313583E+02 0.  0.
        254    2    1    2    0    0 -0.26987997207E+03  0.18919847120E+03  0.14251118031E+03  0.97259207119E+03  0.90387755786E+03 0.  0.
        -24    2    4    4    0    0 -0.11401829973E+03 -0.35160064568E+03  0.14139559342E+03  0.40362054508E+03  0.79332489339E+02 0.  0.
         24    2    4    4    0    0 -0.15586167234E+03  0.54079911688E+03  0.11155868952E+01  0.56897152611E+03  0.83491360434E+02 0.  0.
         11    1    3    3    0    0  0.26274853858E+03 -0.18411609048E+03  0.15258630199E+04  0.15592284903E+04  0.00000000000E+00 0. -1.
        -11    1    3    3    0    0  0.71314334829E+01 -0.50823807163E+01  0.67671408872E+01  0.11067164635E+02  0.00000000000E+00 0.  1.
          4    1    6    6  502    0 -0.32250630268E+02  0.25714007388E+03  0.11046221677E+02  0.25938993767E+03  0.00000000000E+00 0. -1.
          1    1    5    5  503    0 -0.11017392421E+03 -0.21919817487E+03  0.84697044386E+02  0.25953751707E+03  0.00000000000E+00 0. -1.
         -2    1    5    5    0  503 -0.38443755223E+01 -0.13240247081E+03  0.56698549030E+02  0.14408302801E+03  0.00000000000E+00 0.  1.
         -3    1    6    6    0  502 -0.12361104207E+03  0.28365904299E+03 -0.99306347816E+01  0.30958158844E+03  0.00000000000E+00 0.  1.
<mgrwt>
<rscale>  0 0.19131596E+04</rscale>
<asrwt>0</asrwt>
<pdfrwt beam="1">  1        1 0.32446377E+00 0.19131596E+04</pdfrwt>
<pdfrwt beam="2">  1       -1 0.66749723E-01 0.19131596E+04</pdfrwt>
<totfact> 0.53403598E+00</totfact>
</mgrwt>
</event>
<event>
12    1  0.1496989E-007  0.1704091E+04  0.7818608E-02  0.8759034E-01
          2   -1    0    0  501    0  0.00000000000E+00  0.00000000000E+00  0.29919841095E+04  0.29919841095E+04  0.00000000000E+00 0. -1.
         -2   -1    0    0    0  501 -0.00000000000E+00 -0.00000000000E+00 -0.24264222199E+03  0.24264222199E+03  0.00000000000E+00 0.  1.
         23    2    1    2    0    0  0.42060312865E+03 -0.19532090884E+03  0.39033870253E+03  0.61224199887E+03  0.86131952443E+02 0.  0.
        254    2    1    2    0    0 -0.42060312865E+03  0.19532090884E+03  0.23590031850E+04  0.26223843326E+04  0.10473520478E+04 0.  0.
        -24    2    4    4    0    0 -0.30827729240E+03  0.32029352945E+03  0.23916019664E+04  0.24338847490E+04  0.80076037668E+02 0.  0.
         24    2    4    4    0    0 -0.11232583625E+03 -0.12497262061E+03 -0.32598781388E+02  0.18849958362E+03  0.78956716541E+02 0.  0.
         11    1    3    3    0    0  0.11267029198E+03 -0.50808797068E+02  0.57437855094E+02  0.13629099660E+03  0.00000000000E+00 0.  1.
        -11    1    3    3    0    0  0.30793283667E+03 -0.14451211178E+03  0.33290084743E+03  0.47595100228E+03  0.00000000000E+00 0. -1.
          4    1    6    6  502    0  0.14113725783E+01  0.54908163437E+01  0.88640341433E+01  0.10521983557E+02  0.00000000000E+00 0. -1.
          3    1    5    5  503    0 -0.87507166956E+02  0.49406324137E+02  0.62870443253E+03  0.63668497125E+03  0.00000000000E+00 0. -1.
         -4    1    5    5    0  503 -0.22077012544E+03  0.27088720532E+03  0.17628975339E+04  0.17971997778E+04  0.00000000000E+00 0.  1.
         -3    1    6    6    0  502 -0.11373720883E+03 -0.13046343695E+03 -0.41462815531E+02  0.17797760007E+03  0.00000000000E+00 0.  1.
<mgrwt>
<rscale>  0 0.17040912E+04</rscale>
<asrwt>0</asrwt>
<pdfrwt beam="1">  1        2 0.46030522E+00 0.17040912E+04</pdfrwt>
<pdfrwt beam="2">  1       -2 0.37329575E-01 0.17040912E+04</pdfrwt>
<totfact> 0.11391559E+01</totfact>
</mgrwt>
</event>
<event>
12    1  0.1496989E-007  0.1756069E+04  0.7818608E-02  0.8730017E-01
          2   -1    0    0  501    0  0.00000000000E+00  0.00000000000E+00  0.19598956369E+04  0.19598956369E+04  0.00000000000E+00 0. -1.
         -2   -1    0    0    0  501 -0.00000000000E+00 -0.00000000000E+00 -0.39335981123E+03  0.39335981123E+03  0.00000000000E+00 0.  1.
         23    2    1    2    0    0  0.12085390179E+03  0.52629952003E+02  0.14463698638E+04  0.14552354402E+04  0.91371911637E+02 0.  0.
        254    2    1    2    0    0 -0.12085390179E+03 -0.52629952003E+02  0.12016596187E+03  0.89802000787E+03  0.88012754685E+03 0.  0.
        -24    2    4    4    0    0 -0.84209889985E+02  0.77599640495E+02  0.48259564977E+03  0.50269651951E+03  0.81805988616E+02 0.  0.
         24    2    4    4    0    0 -0.36644011800E+02 -0.13022959250E+03 -0.36242968790E+03  0.39532348836E+03  0.81380903293E+02 0.  0.
         11    1    3    3    0    0  0.10376439608E+03  0.76235868193E+02  0.10653676981E+04  0.10731203519E+04  0.00000000000E+00 0. -1.
        -11    1    3    3    0    0  0.17089505702E+02 -0.23605916189E+02  0.38100216562E+03  0.38211508828E+03  0.00000000000E+00 0.  1.
          2    1    6    6  502    0 -0.43439253717E+02 -0.13959806649E+03 -0.33189657519E+03  0.36267054685E+03  0.00000000000E+00 0. -1.
          3    1    5    5  503    0 -0.36718244500E+02  0.71866142055E+02  0.19326697049E+03  0.20943995258E+03  0.00000000000E+00 0. -1.
         -4    1    5    5    0  503 -0.47491645486E+02  0.57334984400E+01  0.28932867927E+03  0.29325656692E+03  0.00000000000E+00 0.  1.
         -1    1    6    6    0  502  0.67952419163E+01  0.93684739966E+01 -0.30533112709E+02  0.32652941512E+02  0.00000000000E+00 0.  1.
<mgrwt>
<rscale>  0 0.17560685E+04</rscale>
<asrwt>0</asrwt>
<pdfrwt beam="1">  1        2 0.30152240E+00 0.17560685E+04</pdfrwt>
<pdfrwt beam="2">  1       -2 0.60516895E-01 0.17560685E+04</pdfrwt>
<totfact> 0.16946353E+01</totfact>
</mgrwt>
</event>
<event>
12    1  0.1496989E-007  0.1268905E+04  0.7818608E-02  0.9054594E-01
         -1   -1    0    0    0  501 -0.00000000000E+00  0.00000000000E+00  0.68136054971E+03  0.68136054971E+03  0.00000000000E+00 0.  1.
          1   -1    0    0  501    0  0.00000000000E+00 -0.00000000000E+00 -0.59077343440E+03  0.59077343440E+03  0.00000000000E+00 0. -1.
         23    2    1    2    0    0  0.28992890554E+03  0.11776498171E+03  0.72289666449E+02  0.33378614329E+03  0.90884720349E+02 0.  0.
        254    2    1    2    0    0 -0.28992890554E+03 -0.11776498171E+03  0.18297448860E+02  0.93834784081E+03  0.88444022553E+03 0.  0.
        -24    2    4    4    0    0  0.22944831217E+03  0.11059881902E+03 -0.18925836360E+03  0.32772950751E+03  0.81910165256E+02 0.  0.
         24    2    4    4    0    0 -0.51937721771E+03 -0.22836380073E+03  0.20755581246E+03  0.61061833331E+03  0.88727751702E+02 0.  0.
         11    1    3    3    0    0  0.20738809982E+03  0.88704197911E+02  0.92802437214E+02  0.24390684908E+03  0.00000000000E+00 0. -1.
        -11    1    3    3    0    0  0.82540805719E+02  0.29060783794E+02 -0.20512770764E+02  0.89879294211E+02  0.00000000000E+00 0.  1.
          4    1    6    6  502    0 -0.48558438321E+03 -0.23356457993E+03  0.18523393129E+03  0.56978611383E+03  0.00000000000E+00 0. -1.
          1    1    5    5  503    0  0.12245760669E+03  0.99735315936E+02 -0.92262080699E+02  0.18290787357E+03  0.00000000000E+00 0. -1.
         -2    1    5    5    0  503  0.10699070549E+03  0.10863503088E+02 -0.96996282897E+02  0.14482163393E+03  0.00000000000E+00 0.  1.
         -3    1    6    6    0  502 -0.33792834506E+02  0.52007792058E+01  0.22321881170E+02  0.40832219475E+02  0.00000000000E+00 0.  1.
<mgrwt>
<rscale>  0 0.12689046E+04</rscale>
<asrwt>0</asrwt>
<pdfrwt beam="1">  1        1 0.90888221E-01 0.12689046E+04</pdfrwt>
<pdfrwt beam="2">  1       -1 0.10482470E+00 0.12689046E+04</pdfrwt>
<totfact> 0.29494506E+01</totfact>
</mgrwt>
</event>
<event>
12    1  0.1496989E-007  0.2701635E+04  0.7818608E-02  0.8334475E-01
          1   -1    0    0  501    0  0.00000000000E+00  0.00000000000E+00  0.18531824967E+04  0.18531824967E+04  0.00000000000E+00 0. -1.
         -1   -1    0    0    0  501 -0.00000000000E+00 -0.00000000000E+00 -0.98463461013E+03  0.98463461013E+03  0.00000000000E+00 0.  1.
         23    2    1    2    0    0  0.63594166245E+03  0.99012088353E+03  0.15241599352E+03  0.11899647043E+04  0.89577901135E+02 0.  0.
        254    2    1    2    0    0 -0.63594166245E+03 -0.99012088353E+03  0.71613189305E+03  0.16478524025E+04  0.90432930408E+03 0.  0.
        -24    2    4    4    0    0 -0.46735293525E+03 -0.35071084111E+03  0.78043196319E+03  0.97860912038E+03  0.84763796238E+02 0.  0.
         24    2    4    4    0    0 -0.16858872720E+03 -0.63941004242E+03 -0.64300070149E+02  0.66924328214E+03  0.80527699514E+02 0.  0.
         11    1    3    3    0    0  0.22758534113E+03  0.36108868294E+03  0.98680729201E+02  0.43808447903E+03  0.00000000000E+00 0. -1.
        -11    1    3    3    0    0  0.40835632132E+03  0.62903220059E+03  0.53735264315E+02  0.75188022528E+03  0.00000000000E+00 0.  1.
          4    1    6    6  502    0 -0.30932730098E+02 -0.40000581611E+02  0.24096943291E+01  0.50622988328E+02  0.00000000000E+00 0. -1.
          3    1    5    5  503    0 -0.64728800448E+02 -0.31117040333E+02  0.60000987373E+02  0.93585288866E+02  0.00000000000E+00 0. -1.
         -4    1    5    5    0  503 -0.40262413481E+03 -0.31959380078E+03  0.72043097582E+03  0.88502383151E+03  0.00000000000E+00 0.  1.
         -3    1    6    6    0  502 -0.13765599710E+03 -0.59940946081E+03 -0.66709764478E+02  0.61862029381E+03  0.00000000000E+00 0.  1.
<mgrwt>
<rscale>  0 0.27016348E+04</rscale>
<asrwt>0</asrwt>
<pdfrwt beam="1">  1        1 0.28510500E+00 0.27016348E+04</pdfrwt>
<pdfrwt beam="2">  1       -1 0.15148225E+00 0.27016348E+04</pdfrwt>
<totfact> 0.11118246E+00</totfact>
</mgrwt>
</event>
<event>
12    1  0.1496989E-007  0.1422969E+04  0.7818608E-02  0.8937358E-01
         -1   -1    0    0    0  501 -0.00000000000E+00  0.00000000000E+00  0.24685429986E+03  0.24685429986E+03  0.00000000000E+00 0.  1.
          1   -1    0    0  501    0  0.00000000000E+00 -0.00000000000E+00 -0.20506428886E+04  0.20506428886E+04  0.00000000000E+00 0. -1.
         23    2    1    2    0    0 -0.30515040597E+03 -0.25836643101E+03 -0.54439923957E+03  0.68139860202E+03  0.89797215195E+02 0.  0.
        254    2    1    2    0    0  0.30515040597E+03  0.25836643101E+03 -0.12593893492E+04  0.16160985864E+04  0.93050691848E+03 0.  0.
        -24    2    4    4    0    0 -0.29566207680E+03  0.11415893358E+03 -0.18753522483E+03  0.37629560952E+03  0.77334335311E+02 0.  0.
         24    2    4    4    0    0  0.60081248277E+03  0.14420749744E+03 -0.10718541244E+04  0.12398029769E+04  0.80428327881E+02 0.  0.
         11    1    3    3    0    0 -0.26265478935E+02 -0.53949354085E+02 -0.50142424165E+02  0.78196361111E+02  0.00000000000E+00 0.  1.
        -11    1    3    3    0    0 -0.27888492703E+03 -0.20441707693E+03 -0.49425681541E+03  0.60320224091E+03  0.00000000000E+00 0. -1.
          4    1    6    6  502    0  0.56221551868E+03  0.11364789397E+03 -0.99662801169E+03  0.11498997899E+04  0.00000000000E+00 0. -1.
          3    1    5    5  503    0 -0.13430798973E+03  0.90033719137E+02 -0.11072291098E+03  0.19597007349E+03  0.00000000000E+00 0. -1.
         -4    1    5    5    0  503 -0.16135408707E+03  0.24125214439E+02 -0.76812313849E+02  0.18032553603E+03  0.00000000000E+00 0.  1.
         -3    1    6    6    0  502  0.38596964092E+02  0.30559603469E+02 -0.75226112670E+02  0.89903186978E+02  0.00000000000E+00 0.  1.
<mgrwt>
<rscale>  0 0.14229687E+04</rscale>
<asrwt>0</asrwt>
<pdfrwt beam="1">  1        1 0.31548352E+00 0.14229687E+04</pdfrwt>
<pdfrwt beam="2">  1       -1 0.37977584E-01 0.14229687E+04</pdfrwt>
<totfact> 0.17960824E+01</totfact>
</mgrwt>
</event>
<event>
12    1  0.1496989E-007  0.1683519E+04  0.7818608E-02  0.8770820E-01
         -1   -1    0    0    0  501 -0.00000000000E+00  0.00000000000E+00  0.57819421244E+03  0.57819421244E+03  0.00000000000E+00 0.  1.
          1   -1    0    0  501    0  0.00000000000E+00 -0.00000000000E+00 -0.12254696680E+04  0.12254696680E+04  0.00000000000E+00 0. -1.
         23    2    1    2    0    0 -0.42436519238E+03 -0.18745542246E+03 -0.62825705273E+03  0.78635367603E+03  0.91759618514E+02 0.  0.
        254    2    1    2    0    0  0.42436519238E+03  0.18745542246E+03 -0.19018402814E+02  0.10173102044E+04  0.90517014999E+03 0.  0.
        -24    2    4    4    0    0 -0.86083276781E+01 -0.15268173345E+03  0.32007352090E+03  0.36567717177E+03  0.88808333727E+02 0.  0.
         24    2    4    4    0    0  0.43297352006E+03  0.34013715591E+03 -0.33909192371E+03  0.65163303263E+03  0.80516598238E+02 0.  0.
         13    1    3    3    0    0 -0.26320768213E+03 -0.92153467507E+02 -0.30890356273E+03  0.41616337726E+03  0.00000000000E+00 0.  1.
        -13    1    3    3    0    0 -0.16115751024E+03 -0.95301954952E+02 -0.31935349000E+03  0.37019029877E+03  0.00000000000E+00 0. -1.
          2    1    6    6  502    0  0.34525493971E+03  0.24800602395E+03 -0.29316496942E+03  0.51638518627E+03  0.00000000000E+00 0. -1.
          3    1    5    5  503    0 -0.41347304403E+02 -0.11681106500E+03  0.26305950752E+03  0.29078295855E+03  0.00000000000E+00 0. -1.
         -4    1    5    5    0  503  0.32738976725E+02 -0.35870668453E+02  0.57014013377E+02  0.74894213218E+02  0.00000000000E+00 0.  1.
         -1    1    6    6    0  502  0.87718580347E+02  0.92131131959E+02 -0.45926954296E+02  0.13524784636E+03  0.00000000000E+00 0.  1.
<mgrwt>
<rscale>  0 0.16835195E+04</rscale>
<asrwt>0</asrwt>
<pdfrwt beam="1">  1        1 0.18853379E+00 0.16835195E+04</pdfrwt>
<pdfrwt beam="2">  1       -1 0.88952956E-01 0.16835195E+04</pdfrwt>
<totfact> 0.12093921E+01</totfact>
</mgrwt>
</event>
<event>
12    1  0.1496989E-007  0.3475683E+04  0.7818608E-02  0.8119577E-01
         -1   -1    0    0    0  501 -0.00000000000E+00  0.00000000000E+00  0.18141499894E+04  0.18141499894E+04  0.00000000000E+00 0.  1.
          1   -1    0    0  501    0  0.00000000000E+00 -0.00000000000E+00 -0.16647426729E+04  0.16647426729E+04  0.00000000000E+00 0. -1.
         23    2    1    2    0    0 -0.96352687724E+03  0.30889161354E+03  0.13344832128E+04  0.16772736056E+04  0.92753601294E+02 0.  0.
        254    2    1    2    0    0  0.96352687724E+03 -0.30889161354E+03 -0.11850758964E+04  0.18016190567E+04  0.90422799844E+03 0.  0.
        -24    2    4    4    0    0 -0.63405498567E+02  0.11655229105E+03 -0.42626262640E+03  0.45353233673E+03  0.79919084074E+02 0.  0.
         24    2    4    4    0    0  0.10269323758E+04 -0.42544390458E+03 -0.75881326998E+03  0.13480867200E+04  0.77120719681E+02 0.  0.
         13    1    3    3    0    0 -0.94260367608E+03  0.29038760640E+03  0.13121407328E+04  0.16415053929E+04  0.00000000000E+00 0.  1.
        -13    1    3    3    0    0 -0.20923201156E+02  0.18504007138E+02  0.22342480026E+02  0.35768212710E+02  0.00000000000E+00 0. -1.
          4    1    6    6  502    0  0.91236226760E+03 -0.35070439436E+03 -0.66715631286E+03  0.11834255470E+04  0.00000000000E+00 0. -1.
          3    1    5    5  503    0 -0.66490208542E+02  0.11166058686E+03 -0.42815810479E+03  0.44744652998E+03  0.00000000000E+00 0. -1.
         -4    1    5    5    0  503  0.30847099760E+01  0.48917041898E+01  0.18954783924E+01  0.60858067544E+01  0.00000000000E+00 0.  1.
         -3    1    6    6    0  502  0.11457010820E+03 -0.74739510228E+02 -0.91656957116E+02  0.16466117293E+03  0.00000000000E+00 0.  1.
<mgrwt>
<rscale>  0 0.34756829E+04</rscale>
<asrwt>0</asrwt>
<pdfrwt beam="1">  1        1 0.25611426E+00 0.34756829E+04</pdfrwt>
<pdfrwt beam="2">  1       -1 0.27910000E+00 0.34756829E+04</pdfrwt>
<totfact> 0.18577101E-01</totfact>
</mgrwt>
</event>
<event>
12    1  0.1496989E-007  0.1617679E+04  0.7818608E-02  0.8809760E-01
         -2   -1    0    0    0  501 -0.00000000000E+00  0.00000000000E+00  0.16398846316E+04  0.16398846316E+04  0.00000000000E+00 0. -1.
          2   -1    0    0  501    0  0.00000000000E+00 -0.00000000000E+00 -0.39894327465E+03  0.39894327465E+03  0.00000000000E+00 0.  1.
         23    2    1    2    0    0 -0.13937651762E+03 -0.43859128119E+03  0.80439370254E+03  0.93115398952E+03  0.90611245989E+02 0.  0.
        254    2    1    2    0    0  0.13937651762E+03  0.43859128119E+03  0.43654765443E+03  0.11076739168E+04  0.90806361322E+03 0.  0.
        -24    2    4    4    0    0 -0.23227010721E+03  0.26173332532E+03  0.56515417798E+03  0.66938734435E+03  0.78907766370E+02 0.  0.
         24    2    4    4    0    0  0.37164662483E+03  0.17685795587E+03 -0.12860652355E+03  0.43828657241E+03  0.78457194391E+02 0.  0.
         13    1    3    3    0    0 -0.22054979568E+02 -0.98985993194E+01  0.33495059627E+02  0.41307667710E+02  0.00000000000E+00 0. -1.
        -13    1    3    3    0    0 -0.11732153805E+03 -0.42869268187E+03  0.77089864292E+03  0.88984632181E+03  0.00000000000E+00 0.  1.
          2    1    6    6  502    0  0.95083788136E+01 -0.16059208930E+01 -0.16792551260E+02  0.19364349393E+02  0.00000000000E+00 0. -1.
          1    1    5    5  503    0 -0.16679208289E+02  0.63997590866E+02  0.10841904617E+03  0.12699833542E+03  0.00000000000E+00 0. -1.
         -2    1    5    5    0  503 -0.21559089892E+03  0.19773573445E+03  0.45673513181E+03  0.54238900893E+03  0.00000000000E+00 0.  1.
         -1    1    6    6    0  502  0.36213824601E+03  0.17846387677E+03 -0.11181397229E+03  0.41892222301E+03  0.00000000000E+00 0.  1.
<mgrwt>
<rscale>  0 0.16176785E+04</rscale>
<asrwt>0</asrwt>
<pdfrwt beam="1">  1        2 0.61375889E-01 0.16176785E+04</pdfrwt>
<pdfrwt beam="2">  1       -2 0.25228994E+00 0.16176785E+04</pdfrwt>
<totfact> 0.47531854E+00</totfact>
</mgrwt>
</event>
<event>
12    1  0.1496989E-007  0.1553142E+04  0.7818608E-02  0.8849863E-01
          2   -1    0    0  501    0  0.00000000000E+00  0.00000000000E+00  0.82434344007E+03  0.82434344007E+03  0.00000000000E+00 0. -1.
         -2   -1    0    0    0  501 -0.00000000000E+00 -0.00000000000E+00 -0.73156742433E+03  0.73156742433E+03  0.00000000000E+00 0.  1.
         23    2    1    2    0    0 -0.13914864777E+02 -0.43231103124E+03  0.28920403432E+03  0.52834817986E+03  0.91795285879E+02 0.  0.
        254    2    1    2    0    0  0.13914864777E+02  0.43231103124E+03 -0.19642801858E+03  0.10275626845E+04  0.91116115643E+03 0.  0.
        -24    2    4    4    0    0 -0.81673006996E+02  0.44632226724E+03  0.27728722194E+03  0.53746983365E+03  0.78176545852E+02 0.  0.
         24    2    4    4    0    0  0.95587871773E+02 -0.14011236005E+02 -0.47371524052E+03  0.49009285090E+03  0.80321338633E+02 0.  0.
         13    1    3    3    0    0  0.99802656732E+01 -0.25536682210E+03  0.21875922182E+03  0.33640365138E+03  0.00000000000E+00 0. -1.
        -13    1    3    3    0    0 -0.23895130451E+02 -0.17694420914E+03  0.70444812500E+02  0.19194452848E+03  0.00000000000E+00 0.  1.
          2    1    6    6  502    0 -0.11516823241E+02 -0.10070904999E+02 -0.30744620186E+02  0.34340821415E+02  0.00000000000E+00 0. -1.
          3    1    5    5  503    0 -0.14317602172E+02  0.74853860044E+02  0.14733290790E+02  0.77621929588E+02  0.00000000000E+00 0. -1.
         -4    1    5    5    0  503 -0.67355404824E+02  0.37146840720E+03  0.26255393115E+03  0.45984790406E+03  0.00000000000E+00 0.  1.
         -1    1    6    6    0  502  0.10710469501E+03 -0.39403310065E+01 -0.44297062033E+03  0.45575202948E+03  0.00000000000E+00 0.  1.
<mgrwt>
<rscale>  0 0.15531424E+04</rscale>
<asrwt>0</asrwt>
<pdfrwt beam="1">  1        2 0.12682207E+00 0.15531424E+04</pdfrwt>
<pdfrwt beam="2">  1       -2 0.11254883E+00 0.15531424E+04</pdfrwt>
<totfact> 0.19790173E+01</totfact>
</mgrwt>
</event>
<event>
12    1  0.1496989E-007  0.2434762E+04  0.7818608E-02  0.8426603E-01
          4   -1    0    0  501    0  0.00000000000E+00  0.00000000000E+00  0.15060868571E+04  0.15060868571E+04  0.00000000000E+00 0.  1.
         -4   -1    0    0    0  501 -0.00000000000E+00 -0.00000000000E+00 -0.98401759010E+03  0.98401759010E+03  0.00000000000E+00 0. -1.
         23    2    1    2    0    0  0.59731350152E+03 -0.37150250725E+03  0.10175592953E+04  0.12404068859E+04  0.91568504887E+02 0.  0.
        254    2    1    2    0    0 -0.59731350152E+03  0.37150250725E+03 -0.49549002829E+03  0.12496975613E+04  0.90633111759E+03 0.  0.
        -24    2    4    4    0    0 -0.33843933807E+02 -0.24627470522E+03  0.23405897786E+02  0.26231358168E+03  0.80398611916E+02 0.  0.
         24    2    4    4    0    0 -0.56346956771E+03  0.61777721247E+03 -0.51889592608E+03  0.98738397966E+03  0.80792965145E+02 0.  0.
         13    1    3    3    0    0  0.42466965313E+03 -0.30988403138E+03  0.77085653098E+03  0.93305531377E+03  0.00000000000E+00 0.  1.
        -13    1    3    3    0    0  0.17264384839E+03 -0.61618475871E+02  0.24670276433E+03  0.30735157211E+03  0.00000000000E+00 0. -1.
          2    1    6    6  502    0 -0.15065221539E+02  0.40027566555E+02 -0.35679057657E+02  0.55697056831E+02  0.00000000000E+00 0. -1.
          1    1    5    5  503    0  0.71167081339E+01 -0.41570526808E+02  0.32666057878E+02  0.53346298569E+02  0.00000000000E+00 0. -1.
         -2    1    5    5    0  503 -0.40960641941E+02 -0.20470417841E+03 -0.92601600922E+01  0.20896728311E+03  0.00000000000E+00 0.  1.
         -1    1    6    6    0  502 -0.54840434617E+03  0.57774964591E+03 -0.48321686842E+03  0.93168692283E+03  0.00000000000E+00 0.  1.
<mgrwt>
<rscale>  0 0.24347616E+04</rscale>
<asrwt>0</asrwt>
<pdfrwt beam="1">  1        4 0.23170567E+00 0.24347616E+04</pdfrwt>
<pdfrwt beam="2">  1       -4 0.15138732E+00 0.24347616E+04</pdfrwt>
<totfact> 0.42756219E-02</totfact>
</mgrwt>
</event>
<event>
12    1  0.1496989E-007  0.2709229E+04  0.7818608E-02  0.8332017E-01
          1   -1    0    0  501    0  0.00000000000E+00  0.00000000000E+00  0.14324264611E+04  0.14324264611E+04  0.00000000000E+00 0. -1.
         -1   -1    0    0    0  501 -0.00000000000E+00 -0.00000000000E+00 -0.12810292975E+04  0.12810292975E+04  0.00000000000E+00 0.  1.
         23    2    1    2    0    0 -0.79327862876E+03  0.13930134435E+02 -0.83755488770E+03  0.11570302114E+04  0.87952763411E+02 0.  0.
        254    2    1    2    0    0  0.79327862876E+03 -0.13930134435E+02  0.98895205126E+03  0.15564255472E+04  0.90274541975E+03 0.  0.
        -24    2    4    4    0    0  0.90311731404E+03  0.18927139957E+03  0.91206466486E+03  0.13000344467E+04  0.82359359372E+02 0.  0.
         24    2    4    4    0    0 -0.10983868528E+03 -0.20320153400E+03  0.76887386399E+02  0.25639110054E+03  0.80432120728E+02 0.  0.
         11    1    3    3    0    0 -0.76198536454E+03  0.19396813582E+02 -0.82401871239E+03  0.11224993410E+04  0.00000000000E+00 0.  1.
        -11    1    3    3    0    0 -0.31293264223E+02 -0.54666791467E+01 -0.13536175312E+02  0.34530870373E+02  0.00000000000E+00 0. -1.
          2    1    6    6  502    0 -0.14407849774E+02 -0.10990321439E+03  0.41076604394E+02  0.11820994077E+03  0.00000000000E+00 0. -1.
          3    1    5    5  503    0  0.58638687948E+02  0.33963579255E+02  0.66890510933E+02  0.95217440067E+02  0.00000000000E+00 0. -1.
         -4    1    5    5    0  503  0.84447862609E+03  0.15530782031E+03  0.84517415393E+03  0.12048170066E+04  0.00000000000E+00 0.  1.
         -1    1    6    6    0  502 -0.95430835504E+02 -0.93298319608E+02  0.35810782005E+02  0.13818115977E+03  0.00000000000E+00 0.  1.
<mgrwt>
<rscale>  0 0.27092289E+04</rscale>
<asrwt>0</asrwt>
<pdfrwt beam="1">  1        1 0.22037330E+00 0.27092289E+04</pdfrwt>
<pdfrwt beam="2">  1       -1 0.19708143E+00 0.27092289E+04</pdfrwt>
<totfact> 0.10029995E+00</totfact>
</mgrwt>
</event>
<event>
12    1  0.1496989E-007  0.1369903E+04  0.7818608E-02  0.8975897E-01
         -1   -1    0    0    0  501 -0.00000000000E+00  0.00000000000E+00  0.27742017659E+03  0.27742017659E+03  0.00000000000E+00 0.  1.
          1   -1    0    0  501    0  0.00000000000E+00 -0.00000000000E+00 -0.16911468327E+04  0.16911468327E+04  0.00000000000E+00 0. -1.
         23    2    1    2    0    0 -0.25032233063E+03  0.26815163066E+03 -0.57901507809E+03  0.69165954205E+03  0.92562925757E+02 0.  0.
        254    2    1    2    0    0  0.25032233063E+03 -0.26815163066E+03 -0.83471157799E+03  0.12769074672E+04  0.89397018693E+03 0.  0.
        -24    2    4    4    0    0  0.23821950447E+02  0.29495018676E+03 -0.10416593976E+03  0.32358025021E+03  0.79312907702E+02 0.  0.
         24    2    4    4    0    0  0.22650038018E+03 -0.56310181742E+03 -0.73054563823E+03  0.95332721698E+03  0.82157008827E+02 0.  0.
         11    1    3    3    0    0 -0.24128922011E+03  0.27481300785E+03 -0.57014635228E+03  0.67735481104E+03  0.00000000000E+00 0. -1.
        -11    1    3    3    0    0 -0.90331105188E+01 -0.66613771945E+01 -0.88687258030E+01  0.14304731006E+02  0.00000000000E+00 0.  1.
          2    1    6    6  502    0  0.20180217072E+03 -0.50535117652E+03 -0.68922900896E+03  0.87814608950E+03  0.00000000000E+00 0. -1.
          1    1    5    5  503    0 -0.10867659521E+02  0.24658585118E+03 -0.82817603726E+02  0.26034869601E+03  0.00000000000E+00 0. -1.
         -2    1    5    5    0  503  0.34689609968E+02  0.48364335584E+02 -0.21348336033E+02  0.63231554208E+02  0.00000000000E+00 0.  1.
         -1    1    6    6    0  502  0.24698209463E+02 -0.57750640902E+02 -0.41316629274E+02  0.75181127484E+02  0.00000000000E+00 0.  1.
<mgrwt>
<rscale>  0 0.13699026E+04</rscale>
<asrwt>0</asrwt>
<pdfrwt beam="1">  1        1 0.26017643E+00 0.13699026E+04</pdfrwt>
<pdfrwt beam="2">  1       -1 0.42680028E-01 0.13699026E+04</pdfrwt>
<totfact> 0.25531112E+01</totfact>
</mgrwt>
</event>
<event>
12    1  0.1496989E-007  0.2120208E+04  0.7818608E-02  0.8552393E-01
         -2   -1    0    0    0  501 -0.00000000000E+00  0.00000000000E+00  0.59832705402E+03  0.59832705402E+03  0.00000000000E+00 0.  1.
          2   -1    0    0  501    0  0.00000000000E+00 -0.00000000000E+00 -0.18782717552E+04  0.18782717552E+04  0.00000000000E+00 0. -1.
         23    2    1    2    0    0 -0.23422341732E+03 -0.36069288536E+03 -0.13650956997E+04  0.14340991422E+04  0.90521342379E+02 0.  0.
        254    2    1    2    0    0  0.23422341732E+03  0.36069288536E+03  0.85150998483E+02  0.10424996671E+04  0.94583026838E+03 0.  0.
        -24    2    4    4    0    0 -0.85547323453E+01  0.41731438128E+02  0.47204907683E+03  0.47985070409E+03  0.74911086649E+02 0.  0.
         24    2    4    4    0    0  0.24277814967E+03  0.31896144723E+03 -0.38689807835E+03  0.56264896300E+03  0.78778790023E+02 0.  0.
         11    1    3    3    0    0 -0.13258475076E+03 -0.18544793912E+03 -0.57752846222E+03  0.62089353269E+03  0.00000000000E+00 0. -1.
        -11    1    3    3    0    0 -0.10163866656E+03 -0.17524494624E+03 -0.78756723748E+03  0.81320560947E+03  0.00000000000E+00 0.  1.
          2    1    6    6  502    0  0.12944004632E+03  0.22916930381E+03 -0.26548186597E+03  0.37383675121E+03  0.00000000000E+00 0. -1.
          1    1    5    5  503    0 -0.10528138017E+02  0.55368110492E+02  0.45213685503E+03  0.45563604447E+03  0.00000000000E+00 0. -1.
         -2    1    5    5    0  503  0.19734056720E+01 -0.13636672364E+02  0.19912221809E+02  0.24214659619E+02  0.00000000000E+00 0.  1.
         -1    1    6    6    0  502  0.11333810335E+03  0.89792143424E+02 -0.12141621239E+03  0.18881221179E+03  0.00000000000E+00 0.  1.
<mgrwt>
<rscale>  0 0.21202083E+04</rscale>
<asrwt>0</asrwt>
<pdfrwt beam="1">  1        2 0.28896488E+00 0.21202083E+04</pdfrwt>
<pdfrwt beam="2">  1       -2 0.92050317E-01 0.21202083E+04</pdfrwt>
<totfact> 0.72048671E+00</totfact>
</mgrwt>
</event>
<event>
12    1  0.1514836E-007  0.2541381E+04  0.7818608E-02  0.8388390E-01
         -2   -1    0    0    0  501 -0.00000000000E+00  0.00000000000E+00  0.13614978967E+04  0.13614978967E+04  0.00000000000E+00 0.  1.
          2   -1    0    0  501    0  0.00000000000E+00 -0.00000000000E+00 -0.11859399222E+04  0.11859399222E+04  0.00000000000E+00 0. -1.
         23    2    1    2    0    0  0.26836301998E+03 -0.22080484603E+03  0.11319173922E+04  0.11877095911E+04  0.92970960750E+02 0.  0.
        254    2    1    2    0    0 -0.26836301998E+03  0.22080484603E+03 -0.95635941761E+03  0.13597282278E+04  0.90192240652E+03 0.  0.
        -24    2    4    4    0    0 -0.22813297164E+03  0.52040456961E+03 -0.33667522071E+03  0.66532953813E+03  0.80297081153E+02 0.  0.
         24    2    4    4    0    0 -0.40230048343E+02 -0.29959972359E+03 -0.61968419690E+03  0.69439868970E+03  0.82477786162E+02 0.  0.
         11    1    3    3    0    0  0.15796277496E+01  0.80630073963E+01  0.23749153734E+02  0.25130252987E+02  0.00000000000E+00 0. -1.
        -11    1    3    3    0    0  0.26678339223E+03 -0.22886785342E+03  0.11081682384E+04  0.11625793381E+04  0.00000000000E+00 0.  1.
          2    1    6    6  502    0 -0.20112844631E+02 -0.17781954758E+03 -0.27326319810E+03  0.32664521037E+03  0.00000000000E+00 0. -1.
          3    1    5    5  503    0 -0.23150379334E+03  0.51679642187E+03 -0.33886744593E+03  0.65992703680E+03  0.00000000000E+00 0. -1.
         -4    1    5    5    0  503  0.33708217072E+01  0.36081477420E+01  0.21922252236E+01  0.54025013226E+01  0.00000000000E+00 0.  1.
         -1    1    6    6    0  502 -0.20117203712E+02 -0.12178017601E+03 -0.34642099880E+03  0.36775347934E+03  0.00000000000E+00 0.  1.
<mgrwt>
<rscale>  0 0.25413813E+04</rscale>
<asrwt>0</asrwt>
<pdfrwt beam="1">  1        2 0.18245229E+00 0.25413813E+04</pdfrwt>
<pdfrwt beam="2">  1       -2 0.20946122E+00 0.25413813E+04</pdfrwt>
<totfact> 0.19812979E+00</totfact>
</mgrwt>
</event>
<event>
12    1  0.1496989E-007  0.1275557E+04  0.7818608E-02  0.9049177E-01
         -2   -1    0    0    0  501 -0.00000000000E+00  0.00000000000E+00  0.11581427344E+03  0.11581427344E+03  0.00000000000E+00 0.  1.
          2   -1    0    0  501    0  0.00000000000E+00 -0.00000000000E+00 -0.35121862671E+04  0.35121862671E+04  0.00000000000E+00 0. -1.
         23    2    1    2    0    0  0.18433896849E+03  0.40257707365E+02 -0.15718309374E+04  0.15857970157E+04  0.92185360792E+02 0.  0.
        254    2    1    2    0    0 -0.18433896849E+03 -0.40257707365E+02 -0.18245410563E+04  0.20422035249E+04  0.89779932772E+03 0.  0.
        -24    2    4    4    0    0 -0.21453499036E+03  0.38876513178E+03 -0.11813700677E+04  0.12643295353E+04  0.75699056529E+02 0.  0.
         24    2    4    4    0    0  0.30196021876E+02 -0.42902283914E+03 -0.64317098857E+03  0.77787398963E+03  0.80290889648E+02 0.  0.
         13    1    3    3    0    0  0.15950104701E+03  0.64274252637E+02 -0.11828775223E+04  0.11953120916E+04  0.00000000000E+00 0. -1.
        -13    1    3    3    0    0  0.24837921481E+02 -0.24016545272E+02 -0.38895341515E+03  0.39048492409E+03  0.00000000000E+00 0.  1.
          2    1    6    6  502    0  0.53367249847E+02 -0.18961968429E+03 -0.29164604020E+03  0.35193905835E+03  0.00000000000E+00 0. -1.
          3    1    5    5  503    0 -0.33496622550E+02  0.84244499529E+02 -0.16931089229E+03  0.19205555881E+03  0.00000000000E+00 0. -1.
         -4    1    5    5    0  503 -0.18103836781E+03  0.30452063225E+03 -0.10120591754E+04  0.10722739765E+04  0.00000000000E+00 0.  1.
         -1    1    6    6    0  502 -0.23171227971E+02 -0.23940315486E+03 -0.35152494837E+03  0.42593493128E+03  0.00000000000E+00 0.  1.
<mgrwt>
<rscale>  0 0.12755568E+04</rscale>
<asrwt>0</asrwt>
<pdfrwt beam="1">  1        2 0.54033633E+00 0.12755568E+04</pdfrwt>
<pdfrwt beam="2">  1       -2 0.17817581E-01 0.12755568E+04</pdfrwt>
<totfact> 0.20925600E+01</totfact>
</mgrwt>
</event>
<event>
12    1  0.1496989E-007  0.1891598E+04  0.7818608E-02  0.8659050E-01
         -1   -1    0    0    0  501 -0.00000000000E+00  0.00000000000E+00  0.24920944450E+03  0.24920944450E+03  0.00000000000E+00 0.  1.
          1   -1    0    0  501    0  0.00000000000E+00 -0.00000000000E+00 -0.35894925028E+04  0.35894925028E+04  0.00000000000E+00 0. -1.
         23    2    1    2    0    0  0.66258942356E+03 -0.29638049376E+03 -0.11457967745E+04  0.13590457245E+04  0.85375005932E+02 0.  0.
        254    2    1    2    0    0 -0.66258942356E+03  0.29638049376E+03 -0.21944862838E+04  0.24796562227E+04  0.89780777004E+03 0.  0.
        -24    2    4    4    0    0 -0.26251958897E+03 -0.21491756119E+03 -0.14375763261E+04  0.14792425162E+04  0.80166300536E+02 0.  0.
         24    2    4    4    0    0 -0.40006983459E+03  0.51129805495E+03 -0.75690995769E+03  0.10004137065E+04  0.80208020752E+02 0.  0.
         13    1    3    3    0    0  0.31272402110E+03 -0.17210760496E+03 -0.61921188088E+03  0.71473120436E+03  0.00000000000E+00 0. -1.
        -13    1    3    3    0    0  0.34986540246E+03 -0.12427288881E+03 -0.52658489362E+03  0.64431452018E+03  0.00000000000E+00 0.  1.
          4    1    6    6  502    0 -0.38970367448E+03  0.47213246869E+03 -0.72462418204E+03  0.94860857423E+03  0.00000000000E+00 0. -1.
          1    1    5    5  503    0 -0.15172702190E+03 -0.17096149086E+03 -0.99254773912E+03  0.10185283182E+04  0.00000000000E+00 0. -1.
         -2    1    5    5    0  503 -0.11079256706E+03 -0.43956070324E+02 -0.44502858696E+03  0.46071419801E+03  0.00000000000E+00 0.  1.
         -3    1    6    6    0  502 -0.10366160109E+02  0.39165586260E+02 -0.32285775646E+02  0.51805132290E+02  0.00000000000E+00 0.  1.
<mgrwt>
<rscale>  0 0.18915977E+04</rscale>
<asrwt>0</asrwt>
<pdfrwt beam="1">  1        1 0.55222964E+00 0.18915977E+04</pdfrwt>
<pdfrwt beam="2">  1       -1 0.38339913E-01 0.18915977E+04</pdfrwt>
<totfact> 0.13150466E+00</totfact>
</mgrwt>
</event>
<event>
12    1  0.1496989E-007  0.2494649E+04  0.7818608E-02  0.8404894E-01
          2   -1    0    0  501    0  0.00000000000E+00  0.00000000000E+00  0.11270097678E+04  0.11270097678E+04  0.00000000000E+00 0. -1.
         -2   -1    0    0    0  501 -0.00000000000E+00 -0.00000000000E+00 -0.13804835052E+04  0.13804835052E+04  0.00000000000E+00 0.  1.
         23    2    1    2    0    0 -0.11225484187E+03 -0.10639357359E+04 -0.22441772998E+03  0.10968397805E+04  0.90187510102E+02 0.  0.
        254    2    1    2    0    0  0.11225484187E+03  0.10639357359E+04 -0.29056007435E+02  0.14106534925E+04  0.91898782622E+03 0.  0.
        -24    2    4    4    0    0 -0.21831790343E+02  0.51274509611E+03  0.43187363823E+03  0.67540951189E+03  0.79240196202E+02 0.  0.
         24    2    4    4    0    0  0.13408663221E+03  0.55119063974E+03 -0.46092964566E+03  0.73524398060E+03  0.79606698696E+02 0.  0.
         11    1    3    3    0    0  0.14055342070E+02 -0.15377213154E+03 -0.41976716957E+02  0.16001707986E+03  0.00000000000E+00 0. -1.
        -11    1    3    3    0    0 -0.12631018394E+03 -0.91016360431E+03 -0.18244101302E+03  0.93682270063E+03  0.00000000000E+00 0.  1.
          4    1    6    6  502    0  0.54368281820E+02  0.34684199697E+03 -0.25053096220E+03  0.43130156962E+03  0.00000000000E+00 0. -1.
          3    1    5    5  503    0 -0.14518336086E+02  0.44453685594E+03  0.40562582322E+03  0.60196022031E+03  0.00000000000E+00 0. -1.
         -4    1    5    5    0  503 -0.73134542577E+01  0.68208240168E+02  0.26247815005E+02  0.73449291573E+02  0.00000000000E+00 0.  1.
         -3    1    6    6    0  502  0.79718350393E+02  0.20434864277E+03 -0.21039868346E+03  0.30394241098E+03  0.00000000000E+00 0.  1.
<mgrwt>
<rscale>  0 0.24946490E+04</rscale>
<asrwt>0</asrwt>
<pdfrwt beam="1">  1        2 0.17338612E+00 0.24946490E+04</pdfrwt>
<pdfrwt beam="2">  1       -2 0.21238208E+00 0.24946490E+04</pdfrwt>
<totfact> 0.20679466E+00</totfact>
</mgrwt>
</event>
<event>
12    1  0.1496989E-007  0.2914885E+04  0.7818608E-02  0.8268463E-01
         -2   -1    0    0    0  501 -0.00000000000E+00  0.00000000000E+00  0.13605262047E+04  0.13605262047E+04  0.00000000000E+00 0. -1.
          2   -1    0    0  501    0  0.00000000000E+00 -0.00000000000E+00 -0.15612623763E+04  0.15612623763E+04  0.00000000000E+00 0.  1.
         23    2    1    2    0    0  0.93446845370E+03  0.39759832496E+03 -0.92091419035E+03  0.13739547871E+04  0.91395251001E+02 0.  0.
        254    2    1    2    0    0 -0.93446845370E+03 -0.39759832496E+03  0.72017801877E+03  0.15478337940E+04  0.91968329115E+03 0.  0.
        -24    2    4    4    0    0 -0.73436601973E+03 -0.24689592629E+03  0.92861488499E+03  0.12119173562E+04  0.78530403950E+02 0.  0.
         24    2    4    4    0    0 -0.20010243396E+03 -0.15070239867E+03 -0.20843686622E+03  0.33591643773E+03  0.81496802957E+02 0.  0.
         13    1    3    3    0    0  0.33321914143E+03  0.16714930946E+03 -0.38871565122E+03  0.53858494722E+03  0.00000000000E+00 0.  1.
        -13    1    3    3    0    0  0.60124931227E+03  0.23044901550E+03 -0.53219853913E+03  0.83536983983E+03  0.00000000000E+00 0. -1.
          2    1    6    6  502    0 -0.13718150452E+03 -0.58134020599E+02 -0.95850789292E+02  0.17716010652E+03  0.00000000000E+00 0. -1.
          3    1    5    5  503    0 -0.52472372483E+03 -0.21144958167E+03  0.65776620637E+03  0.86758417184E+03  0.00000000000E+00 0. -1.
         -4    1    5    5    0  503 -0.20964229491E+03 -0.35446344615E+02  0.27084867862E+03  0.34433318439E+03  0.00000000000E+00 0.  1.
         -1    1    6    6    0  502 -0.62920929443E+02 -0.92568378073E+02 -0.11258607693E+03  0.15875633121E+03  0.00000000000E+00 0.  1.
<mgrwt>
<rscale>  0 0.29148848E+04</rscale>
<asrwt>0</asrwt>
<pdfrwt beam="1">  1        2 0.24019421E+00 0.29148848E+04</pdfrwt>
<pdfrwt beam="2">  1       -2 0.20931172E+00 0.29148848E+04</pdfrwt>
<totfact> 0.11692385E+00</totfact>
</mgrwt>
</event>
<event>
12    1  0.1496989E-007  0.1452115E+04  0.7818608E-02  0.8916936E-01
         -2   -1    0    0    0  501 -0.00000000000E+00  0.00000000000E+00  0.14589573299E+04  0.14589573299E+04  0.00000000000E+00 0.  1.
          2   -1    0    0  501    0  0.00000000000E+00 -0.00000000000E+00 -0.36132598931E+03  0.36132598931E+03  0.00000000000E+00 0. -1.
         23    2    1    2    0    0  0.10114134999E+03 -0.18024116289E+03 -0.14753919153E+03  0.26962945601E+03  0.90640945681E+02 0.  0.
        254    2    1    2    0    0 -0.10114134999E+03  0.18024116289E+03  0.12451705322E+04  0.15506538632E+04  0.90075596023E+03 0.  0.
        -24    2    4    4    0    0 -0.28391257639E+03  0.47347766041E+03  0.87865395528E+03  0.10406871984E+04  0.78801178842E+02 0.  0.
         24    2    4    4    0    0  0.18277122640E+03 -0.29323649752E+03  0.36651657688E+03  0.50996666485E+03  0.79615535281E+02 0.  0.
         11    1    3    3    0    0  0.97880132269E+01 -0.14407020873E+02 -0.57307581325E+02  0.59895962557E+02  0.00000000000E+00 0.  1.
        -11    1    3    3    0    0  0.91353336763E+02 -0.16583414202E+03 -0.90231610207E+02  0.20973349346E+03  0.00000000000E+00 0. -1.
          4    1    6    6  502    0  0.16282500545E+03 -0.29212319505E+03  0.34202423415E+03  0.47836024107E+03  0.00000000000E+00 0. -1.
          3    1    5    5  503    0 -0.25355417626E+03  0.44741568267E+03  0.84082094090E+03  0.98562181797E+03  0.00000000000E+00 0. -1.
         -4    1    5    5    0  503 -0.30358400124E+02  0.26061977740E+02  0.37833014378E+02  0.55065380401E+02  0.00000000000E+00 0.  1.
         -3    1    6    6    0  502  0.19946220941E+02 -0.11133024698E+01  0.24492342725E+02  0.31606423783E+02  0.00000000000E+00 0.  1.
<mgrwt>
<rscale>  0 0.14521146E+04</rscale>
<asrwt>0</asrwt>
<pdfrwt beam="1">  1        2 0.55588614E-01 0.14521146E+04</pdfrwt>
<pdfrwt beam="2">  1       -2 0.22445497E+00 0.14521146E+04</pdfrwt>
<totfact> 0.80059902E+00</totfact>
</mgrwt>
</event>
<event>
12    1  0.1496989E-007  0.2347040E+04  0.7818608E-02  0.8459601E-01
         -2   -1    0    0    0  501 -0.00000000000E+00  0.00000000000E+00  0.90324593319E+03  0.90324593319E+03  0.00000000000E+00 0.  1.
          2   -1    0    0  501    0  0.00000000000E+00 -0.00000000000E+00 -0.15246667904E+04  0.15246667904E+04  0.00000000000E+00 0. -1.
         23    2    1    2    0    0 -0.47241720208E+03  0.45058289177E+01 -0.11786486003E+04  0.12727601775E+04  0.86646586802E+02 0.  0.
        254    2    1    2    0    0  0.47241720208E+03 -0.45058289177E+01  0.55722774315E+03  0.11551525461E+04  0.89480519204E+03 0.  0.
        -24    2    4    4    0    0  0.40566387106E+03  0.40929450494E+03  0.28929593631E+03  0.65099649687E+03  0.89549607012E+02 0.  0.
         24    2    4    4    0    0  0.66753331019E+02 -0.41380033386E+03  0.26793180683E+03  0.50415604922E+03  0.81848306956E+02 0.  0.
         13    1    3    3    0    0 -0.36481917780E+03  0.40015831639E+02 -0.89809137463E+03  0.97018679462E+03  0.00000000000E+00 0. -1.
        -13    1    3    3    0    0 -0.10759802427E+03 -0.35510002722E+02 -0.28055722570E+03  0.30257338286E+03  0.00000000000E+00 0.  1.
          2    1    6    6  502    0  0.57560439441E+02 -0.41367426933E+03  0.26435762030E+03  0.49429197516E+03  0.00000000000E+00 0. -1.
          3    1    5    5  503    0  0.32390640968E+03  0.34770406989E+03  0.20154975408E+03  0.51617418167E+03  0.00000000000E+00 0. -1.
         -4    1    5    5    0  503  0.81757461379E+02  0.61590435048E+02  0.87746182231E+02  0.13482231520E+03  0.00000000000E+00 0.  1.
         -1    1    6    6    0  502  0.91928915779E+01 -0.12606453138E+00  0.35741865299E+01  0.98640740660E+01  0.00000000000E+00 0.  1.
<mgrwt>
<rscale>  0 0.23470399E+04</rscale>
<asrwt>0</asrwt>
<pdfrwt beam="1">  1        2 0.23456412E+00 0.23470399E+04</pdfrwt>
<pdfrwt beam="2">  1       -2 0.13896091E+00 0.23470399E+04</pdfrwt>
<totfact> 0.40662407E+00</totfact>
</mgrwt>
</event>
<event>
12    1  0.1496989E-007  0.1952386E+04  0.7818608E-02  0.8629211E-01
          1   -1    0    0  501    0  0.00000000000E+00  0.00000000000E+00  0.11569756591E+04  0.11569756591E+04  0.00000000000E+00 0. -1.
         -1   -1    0    0    0  501 -0.00000000000E+00 -0.00000000000E+00 -0.82365812022E+03  0.82365812022E+03  0.00000000000E+00 0.  1.
         23    2    1    2    0    0  0.11262962649E+03  0.36881588831E+03  0.81849961311E+03  0.90890467336E+03  0.86345216234E+02 0.  0.
        254    2    1    2    0    0 -0.11262962649E+03 -0.36881588831E+03 -0.48518207423E+03  0.10717291060E+04  0.87435178228E+03 0.  0.
        -24    2    4    4    0    0 -0.11408365370E+03 -0.38027595951E+03  0.14972431277E+03  0.43170621441E+03  0.79548729103E+02 0.  0.
         24    2    4    4    0    0  0.14540272157E+01  0.11460071198E+02 -0.63490638700E+03  0.64002289156E+03  0.79935811972E+02 0.  0.
         13    1    3    3    0    0 -0.14434582236E+02  0.33396619759E+02  0.69205459701E+02  0.78186232984E+02  0.00000000000E+00 0.  1.
        -13    1    3    3    0    0  0.12706420872E+03  0.33541926855E+03  0.74929415341E+03  0.83071844038E+03  0.00000000000E+00 0. -1.
          2    1    6    6  502    0 -0.34996859450E+02  0.21041537050E+02 -0.40429164650E+03  0.40634869494E+03  0.00000000000E+00 0. -1.
          3    1    5    5  503    0 -0.10046369715E+02 -0.68477553929E+02  0.58401155943E+02  0.90558268269E+02  0.00000000000E+00 0. -1.
         -4    1    5    5    0  503 -0.10403728399E+03 -0.31179840558E+03  0.91323156824E+02  0.34114794614E+03  0.00000000000E+00 0.  1.
         -1    1    6    6    0  502  0.36450886666E+02 -0.95814658514E+01 -0.23061474050E+03  0.23367419661E+03  0.00000000000E+00 0.  1.
<mgrwt>
<rscale>  0 0.19523856E+04</rscale>
<asrwt>0</asrwt>
<pdfrwt beam="1">  1        1 0.17799626E+00 0.19523856E+04</pdfrwt>
<pdfrwt beam="2">  1       -1 0.12671663E+00 0.19523856E+04</pdfrwt>
<totfact> 0.57915382E+00</totfact>
</mgrwt>
</event>
<event>
12    1  0.1496989E-007  0.1407330E+04  0.7818608E-02  0.8948529E-01
         -1   -1    0    0    0  501 -0.00000000000E+00  0.00000000000E+00  0.31646028846E+03  0.31646028846E+03  0.00000000000E+00 0.  1.
          1   -1    0    0  501    0  0.00000000000E+00 -0.00000000000E+00 -0.15646347471E+04  0.15646347471E+04  0.00000000000E+00 0. -1.
         23    2    1    2    0    0  0.29951568379E+03  0.15128642181E+03 -0.69739903381E+03  0.77936585604E+03  0.91915716517E+02 0.  0.
        254    2    1    2    0    0 -0.29951568379E+03 -0.15128642181E+03 -0.55077542481E+03  0.11017291795E+04  0.89322807284E+03 0.  0.
        -24    2    4    4    0    0  0.31255866821E+03 -0.41942484374E+02 -0.15568712677E+03  0.36087581325E+03  0.80875077000E+02 0.  0.
         24    2    4    4    0    0 -0.61207435200E+03 -0.10934393744E+03 -0.39508829805E+03  0.74085336625E+03  0.78599223888E+02 0.  0.
         11    1    3    3    0    0  0.52069304862E+02  0.57056838016E+02 -0.10377870226E+03  0.12937045379E+03  0.00000000000E+00 0.  1.
        -11    1    3    3    0    0  0.24744637893E+03  0.94229583797E+02 -0.59362033156E+03  0.64999540225E+03  0.00000000000E+00 0. -1.
          2    1    6    6  502    0 -0.30255185815E+03 -0.75990589181E+02 -0.23655444002E+03  0.39149738135E+03  0.00000000000E+00 0. -1.
          3    1    5    5  503    0 -0.21180265726E+01 -0.43742748389E+01  0.37306763355E+01  0.61268477090E+01  0.00000000000E+00 0. -1.
         -4    1    5    5    0  503  0.31467669478E+03 -0.37568209535E+02 -0.15941780310E+03  0.35474896554E+03  0.00000000000E+00 0.  1.
         -1    1    6    6    0  502 -0.30952249385E+03 -0.33353348259E+02 -0.15853385802E+03  0.34935598489E+03  0.00000000000E+00 0.  1.
<mgrwt>
<rscale>  0 0.14073305E+04</rscale>
<asrwt>0</asrwt>
<pdfrwt beam="1">  1        1 0.24071303E+00 0.14073305E+04</pdfrwt>
<pdfrwt beam="2">  1       -1 0.48686199E-01 0.14073305E+04</pdfrwt>
<totfact> 0.24283725E+01</totfact>
</mgrwt>
</event>
<event>
12    1  0.1496989E-007  0.1367846E+04  0.7818608E-02  0.8977428E-01
          2   -1    0    0  501    0  0.00000000000E+00  0.00000000000E+00  0.76959733317E+03  0.76959733317E+03  0.00000000000E+00 0. -1.
         -2   -1    0    0    0  501 -0.00000000000E+00 -0.00000000000E+00 -0.60778630193E+03  0.60778630193E+03  0.00000000000E+00 0.  1.
         23    2    1    2    0    0  0.32465059816E+02  0.10342748389E+03 -0.33537044172E+03  0.36402738172E+03  0.91056998246E+02 0.  0.
        254    2    1    2    0    0 -0.32465059816E+02 -0.10342748389E+03  0.49718147296E+03  0.10133562534E+04  0.87632770965E+03 0.  0.
        -24    2    4    4    0    0  0.19296171657E+03  0.39728093443E+02  0.65752251998E+03  0.69105047403E+03  0.80014673025E+02 0.  0.
         24    2    4    4    0    0 -0.22542677639E+03 -0.14315557733E+03 -0.16034104702E+03  0.32230577936E+03  0.82831233347E+02 0.  0.
         11    1    3    3    0    0 -0.22831111896E+02  0.61134288755E+02 -0.21806282499E+03  0.22761822549E+03  0.00000000000E+00 0. -1.
        -11    1    3    3    0    0  0.55296171712E+02  0.42293195135E+02 -0.11730761672E+03  0.13640915623E+03  0.00000000000E+00 0.  1.
          2    1    6    6  502    0 -0.43794212093E+02 -0.76218092179E+01 -0.59460298549E+02  0.74239828206E+02  0.00000000000E+00 0. -1.
          3    1    5    5  503    0  0.18279541274E+03  0.15993626381E+02  0.52790003464E+03  0.55888138775E+03  0.00000000000E+00 0. -1.
         -4    1    5    5    0  503  0.10166303829E+02  0.23734467061E+02  0.12962248534E+03  0.13216908628E+03  0.00000000000E+00 0.  1.
         -1    1    6    6    0  502 -0.18163256429E+03 -0.13553376812E+03 -0.10088074847E+03  0.24806595116E+03  0.00000000000E+00 0.  1.
<mgrwt>
<rscale>  0 0.13678461E+04</rscale>
<asrwt>0</asrwt>
<pdfrwt beam="1">  1        2 0.11839959E+00 0.13678461E+04</pdfrwt>
<pdfrwt beam="2">  1       -2 0.93505585E-01 0.13678461E+04</pdfrwt>
<totfact> 0.34220098E+01</totfact>
</mgrwt>
</event>
<event>
12    1  0.1496989E-007  0.3258800E+04  0.7818608E-02  0.8173458E-01
         -3   -1    0    0    0  501 -0.00000000000E+00  0.00000000000E+00  0.37209453900E+04  0.37209453900E+04  0.00000000000E+00 0.  1.
          3   -1    0    0  501    0  0.00000000000E+00 -0.00000000000E+00 -0.71351351103E+03  0.71351351103E+03  0.00000000000E+00 0. -1.
         23    2    1    2    0    0 -0.11730306510E+04  0.91025718876E+03  0.17244594956E+04  0.22774457699E+04  0.91812990033E+02 0.  0.
        254    2    1    2    0    0  0.11730306510E+04 -0.91025718876E+03  0.12829723834E+04  0.21570131311E+04  0.89561065953E+03 0.  0.
        -24    2    4    4    0    0 -0.58882573514E+01 -0.13836574950E+03  0.53761207071E+03  0.56083713940E+03  0.79572646951E+02 0.  0.
         24    2    4    4    0    0  0.11789189083E+04 -0.77189143926E+03  0.74536031266E+03  0.15961759917E+04  0.80929688060E+02 0.  0.
         13    1    3    3    0    0 -0.92213882083E+03  0.70457266444E+03  0.12893619067E+04  0.17347094197E+04  0.00000000000E+00 0.  1.
        -13    1    3    3    0    0 -0.25089183015E+03  0.20568452432E+03  0.43509758891E+03  0.54273635023E+03  0.00000000000E+00 0. -1.
          2    1    6    6  502    0  0.16385116874E+03 -0.13333659190E+03  0.90591918602E+02  0.22985375340E+03  0.00000000000E+00 0. -1.
          1    1    5    5  503    0  0.10255797229E+02  0.74108008578E+01  0.54659070704E+02  0.56104503887E+02  0.00000000000E+00 0. -1.
         -4    1    5    5    0  503 -0.16144054581E+02 -0.14577655036E+03  0.48295300001E+03  0.50473263551E+03  0.00000000000E+00 0.  1.
         -1    1    6    6    0  502  0.10150677396E+04 -0.63855484736E+03  0.65476839406E+03  0.13663222383E+04  0.00000000000E+00 0.  1.
<mgrwt>
<rscale>  0 0.32588003E+04</rscale>
<asrwt>0</asrwt>
<pdfrwt beam="1">  1        3 0.10977131E+00 0.32588003E+04</pdfrwt>
<pdfrwt beam="2">  1       -3 0.57245313E+00 0.32588003E+04</pdfrwt>
<totfact> 0.19290373E-03</totfact>
</mgrwt>
</event>
<event>
12    1  0.1496989E-007  0.2408103E+04  0.7818608E-02  0.8436476E-01
         -1   -1    0    0    0  501 -0.00000000000E+00  0.00000000000E+00  0.10444060470E+04  0.10444060470E+04  0.00000000000E+00 0.  1.
          1   -1    0    0  501    0  0.00000000000E+00 -0.00000000000E+00 -0.13881005137E+04  0.13881005137E+04  0.00000000000E+00 0. -1.
         23    2    1    2    0    0 -0.94745247991E+03  0.37166842600E+03  0.32583046797E+02  0.10223353727E+04  0.91128144374E+02 0.  0.
        254    2    1    2    0    0  0.94745247991E+03 -0.37166842600E+03 -0.37627751351E+03  0.14101711881E+04  0.90066330666E+03 0.  0.
        -24    2    4    4    0    0  0.93163367538E+03 -0.11272872264E+03 -0.54678444058E+03  0.10890786247E+04  0.80436038133E+02 0.  0.
         24    2    4    4    0    0  0.15818804532E+02 -0.25893970337E+03  0.17050692708E+03  0.32109256342E+03  0.82023274413E+02 0.  0.
         13    1    3    3    0    0 -0.90751472253E+03  0.36885642290E+03  0.44321828027E+02  0.98061330644E+03  0.00000000000E+00 0. -1.
        -13    1    3    3    0    0 -0.39937757378E+02  0.28120031081E+01 -0.11738781230E+02  0.41722066231E+02  0.00000000000E+00 0.  1.
          4    1    6    6  502    0  0.18736835461E+02 -0.11650943951E+02  0.28060270774E+02  0.35695830204E+02  0.00000000000E+00 0. -1.
          1    1    5    5  503    0  0.47750412492E+03 -0.80626722161E+02 -0.24341397215E+03  0.54199743494E+03  0.00000000000E+00 0. -1.
         -4    1    5    5    0  503  0.45412955045E+03 -0.32102000474E+02 -0.30337046843E+03  0.54708118972E+03  0.00000000000E+00 0.  1.
         -1    1    6    6    0  502 -0.29180309291E+01 -0.24728875942E+03  0.14244665631E+03  0.28539673322E+03  0.00000000000E+00 0.  1.
<mgrwt>
<rscale>  0 0.24081035E+04</rscale>
<asrwt>0</asrwt>
<pdfrwt beam="1">  1        1 0.21355393E+00 0.24081035E+04</pdfrwt>
<pdfrwt beam="2">  1       -1 0.16067785E+00 0.24081035E+04</pdfrwt>
<totfact> 0.20257803E+00</totfact>
</mgrwt>
</event>
<event>
12    1  0.1496989E-007  0.2849611E+04  0.7818608E-02  0.8288029E-01
          2   -1    0    0  501    0  0.00000000000E+00  0.00000000000E+00  0.30687155908E+04  0.30687155908E+04  0.00000000000E+00 0. -1.
         -2   -1    0    0    0  501 -0.00000000000E+00 -0.00000000000E+00 -0.66153779564E+03  0.66153779564E+03  0.00000000000E+00 0.  1.
         23    2    1    2    0    0  0.47057599280E+03  0.11882525661E+04  0.12202148265E+04  0.17692593681E+04  0.89266807318E+02 0.  0.
        254    2    1    2    0    0 -0.47057599280E+03 -0.11882525661E+04  0.11869629686E+04  0.19609940183E+04  0.89623128995E+03 0.  0.
        -24    2    4    4    0    0 -0.13786090166E+03 -0.78842277697E+03  0.11876526761E+04  0.14344915010E+04  0.81430240256E+02 0.  0.
         24    2    4    4    0    0 -0.33271509113E+03 -0.39982978915E+03 -0.68970748631E+00  0.52650251728E+03  0.81493759574E+02 0.  0.
         13    1    3    3    0    0  0.34981475565E+02  0.12865454237E+03  0.97173292588E+02  0.16497982815E+03  0.00000000000E+00 0. -1.
        -13    1    3    3    0    0  0.43559451723E+03  0.10595980237E+04  0.11230415340E+04  0.16042795400E+04  0.00000000000E+00 0.  1.
          4    1    6    6  502    0 -0.33542449786E+03 -0.39705401412E+03 -0.61472450238E+01  0.51980695698E+03  0.00000000000E+00 0. -1.
          1    1    5    5  503    0 -0.10688593753E+03 -0.70392482719E+03  0.10875156828E+04  0.12998558098E+04  0.00000000000E+00 0. -1.
         -2    1    5    5    0  503 -0.30974964129E+02 -0.84497949777E+02  0.10013699323E+03  0.13463569115E+03  0.00000000000E+00 0.  1.
         -3    1    6    6    0  502  0.27094067316E+01 -0.27757750229E+01  0.54575375375E+01  0.66955603042E+01  0.00000000000E+00 0.  1.
<mgrwt>
<rscale>  0 0.28496114E+04</rscale>
<asrwt>0</asrwt>
<pdfrwt beam="1">  1        2 0.47211008E+00 0.28496114E+04</pdfrwt>
<pdfrwt beam="2">  1       -2 0.10177505E+00 0.28496114E+04</pdfrwt>
<totfact> 0.10810745E+00</totfact>
</mgrwt>
</event>
<event>
12    1  0.1496989E-007  0.3149239E+04  0.7818608E-02  0.8202353E-01
         -1   -1    0    0    0  501 -0.00000000000E+00  0.00000000000E+00  0.13576960113E+04  0.13576960113E+04  0.00000000000E+00 0. -1.
          1   -1    0    0  501    0  0.00000000000E+00 -0.00000000000E+00 -0.18262014330E+04  0.18262014330E+04  0.00000000000E+00 0.  1.
         23    2    1    2    0    0  0.39602222770E+03  0.13870733974E+04 -0.16293582213E+03  0.14537441232E+04  0.77573700284E+02 0.  0.
        254    2    1    2    0    0 -0.39602222770E+03 -0.13870733974E+04 -0.30556959955E+03  0.17301533211E+04  0.90512514029E+03 0.  0.
        -24    2    4    4    0    0  0.26635082903E+03 -0.49787286618E+03 -0.23285560193E+03  0.61612547763E+03  0.81047626936E+02 0.  0.
         24    2    4    4    0    0 -0.66237305674E+03 -0.88920053123E+03 -0.72713997624E+02  0.11140278434E+04  0.79718626812E+02 0.  0.
         11    1    3    3    0    0  0.35604789365E+02  0.11203428410E+03 -0.34607146290E+02  0.12254401827E+03  0.00000000000E+00 0. -1.
        -11    1    3    3    0    0  0.36041743834E+03  0.12750391133E+04 -0.12832867584E+03  0.13312001049E+04  0.00000000000E+00 0.  1.
          4    1    6    6  502    0 -0.53662545704E+03 -0.70568230354E+03 -0.27227801789E+02  0.88695870696E+03  0.00000000000E+00 0. -1.
          1    1    5    5  503    0  0.17582567471E+03 -0.25995347876E+03 -0.10260923123E+03  0.33018045572E+03  0.00000000000E+00 0. -1.
         -2    1    5    5    0  503  0.90525154325E+02 -0.23791938742E+03 -0.13024637069E+03  0.28594502191E+03  0.00000000000E+00 0.  1.
         -3    1    6    6    0  502 -0.12574759970E+03 -0.18351822769E+03 -0.45486195834E+02  0.22706913647E+03  0.00000000000E+00 0.  1.
<mgrwt>
<rscale>  0 0.31492389E+04</rscale>
<asrwt>0</asrwt>
<pdfrwt beam="1">  1        1 0.28095406E+00 0.31492389E+04</pdfrwt>
<pdfrwt beam="2">  1       -1 0.20887631E+00 0.31492389E+04</pdfrwt>
<totfact> 0.42993711E-01</totfact>
</mgrwt>
</event>
<event>
12    1  0.1496989E-007  0.1649356E+04  0.7818608E-02  0.8790787E-01
         -1   -1    0    0    0  501 -0.00000000000E+00  0.00000000000E+00  0.48879301600E+03  0.48879301600E+03  0.00000000000E+00 0.  1.
          1   -1    0    0  501    0  0.00000000000E+00 -0.00000000000E+00 -0.13913741136E+04  0.13913741136E+04  0.00000000000E+00 0. -1.
         23    2    1    2    0    0  0.24438351913E+03  0.16737131276E+02 -0.90989842365E+03  0.94659594714E+03  0.90140500313E+02 0.  0.
        254    2    1    2    0    0 -0.24438351913E+03 -0.16737131276E+02  0.73173260499E+01  0.93357118246E+03  0.90083193409E+03 0.  0.
        -24    2    4    4    0    0 -0.45333229224E+03 -0.17070408688E+03 -0.25766884487E+03  0.55418994741E+03  0.77994946786E+02 0.  0.
         24    2    4    4    0    0  0.20894877311E+03  0.15396695560E+03  0.26498617092E+03  0.37938123505E+03  0.79668296877E+02 0.  0.
         11    1    3    3    0    0  0.19228000586E+03 -0.20040610899E+02 -0.74827785002E+03  0.77284731194E+03  0.00000000000E+00 0. -1.
        -11    1    3    3    0    0  0.52103513263E+02  0.36777742175E+02 -0.16162057363E+03  0.17374863520E+03  0.00000000000E+00 0.  1.
          4    1    6    6  502    0  0.15975637730E+03  0.15071174084E+03  0.19453642139E+03  0.29339486731E+03  0.00000000000E+00 0. -1.
          1    1    5    5  503    0 -0.31121808611E+03 -0.88051720886E+02 -0.14234030995E+03  0.35337029658E+03  0.00000000000E+00 0. -1.
         -2    1    5    5    0  503 -0.14211420613E+03 -0.82652365993E+02 -0.11532853493E+03  0.20081965082E+03  0.00000000000E+00 0.  1.
         -3    1    6    6    0  502  0.49192395809E+02  0.32552147626E+01  0.70449749531E+02  0.85986367743E+02  0.00000000000E+00 0.  1.
<mgrwt>
<rscale>  0 0.16493562E+04</rscale>
<asrwt>0</asrwt>
<pdfrwt beam="1">  1        1 0.21405755E+00 0.16493562E+04</pdfrwt>
<pdfrwt beam="2">  1       -1 0.75198926E-01 0.16493562E+04</pdfrwt>
<totfact> 0.13237739E+01</totfact>
</mgrwt>
</event>
<event>
12    1  0.1496989E-007  0.1115921E+04  0.7818608E-02  0.9189811E-01
         -1   -1    0    0    0  501 -0.00000000000E+00  0.00000000000E+00  0.67602121483E+03  0.67602121483E+03  0.00000000000E+00 0.  1.
          1   -1    0    0  501    0  0.00000000000E+00 -0.00000000000E+00 -0.46051826909E+03  0.46051826909E+03  0.00000000000E+00 0. -1.
         23    2    1    2    0    0  0.10044145983E+03 -0.14268415876E+03  0.85649742550E+02  0.21359594860E+03  0.88544310080E+02 0.  0.
        254    2    1    2    0    0 -0.10044145983E+03  0.14268415876E+03  0.12985320319E+03  0.92294353531E+03  0.89694796894E+03 0.  0.
        -24    2    4    4    0    0 -0.13523902683E+03 -0.20975374592E+03 -0.27381983127E+03  0.37912414286E+03  0.80446177020E+02 0.  0.
         24    2    4    4    0    0  0.34797567004E+02  0.35243790468E+03  0.40367303446E+03  0.54381939245E+03  0.85815298943E+02 0.  0.
         11    1    3    3    0    0 -0.12210150039E+02 -0.22524094895E+00  0.13413604841E+02  0.18140101772E+02  0.00000000000E+00 0. -1.
        -11    1    3    3    0    0  0.11265160987E+03 -0.14245891781E+03  0.72236137708E+02  0.19545584683E+03  0.00000000000E+00 0.  1.
          2    1    6    6  502    0 -0.26415245624E+02  0.16079008086E+03  0.19105324230E+03  0.25110268158E+03  0.00000000000E+00 0. -1.
          1    1    5    5  503    0 -0.37527298037E+02 -0.12483366072E+03 -0.11174160198E+03  0.17169137007E+03  0.00000000000E+00 0. -1.
         -2    1    5    5    0  503 -0.97711728797E+02 -0.84920085207E+02 -0.16207822929E+03  0.20743277279E+03  0.00000000000E+00 0.  1.
         -3    1    6    6    0  502  0.61212812628E+02  0.19164782382E+03  0.21261979216E+03  0.29271671087E+03  0.00000000000E+00 0.  1.
<mgrwt>
<rscale>  0 0.11159214E+04</rscale>
<asrwt>0</asrwt>
<pdfrwt beam="1">  1        1 0.70848964E-01 0.11159214E+04</pdfrwt>
<pdfrwt beam="2">  1       -1 0.10400326E+00 0.11159214E+04</pdfrwt>
<totfact> 0.43020714E+01</totfact>
</mgrwt>
</event>
<event>
12    1  0.1496989E-007  0.3019647E+04  0.7818608E-02  0.8238143E-01
          1   -1    0    0  501    0  0.00000000000E+00  0.00000000000E+00  0.19442393159E+04  0.19442393159E+04  0.00000000000E+00 0. -1.
         -1   -1    0    0    0  501 -0.00000000000E+00 -0.00000000000E+00 -0.11724724385E+04  0.11724724385E+04  0.00000000000E+00 0.  1.
         23    2    1    2    0    0  0.26429708690E+03  0.45702085998E+01  0.17545325840E+04  0.17766708102E+04  0.91108410121E+02 0.  0.
        254    2    1    2    0    0 -0.26429708690E+03 -0.45702085998E+01 -0.98276570657E+03  0.13400409442E+04  0.87178406796E+03 0.  0.
        -24    2    4    4    0    0 -0.19087566147E+03  0.35796810630E+03 -0.17688842523E+03  0.44971397748E+03  0.79865282135E+02 0.  0.
         24    2    4    4    0    0 -0.73421425430E+02 -0.36253831490E+03 -0.80587728133E+03  0.89032696670E+03  0.80119782754E+02 0.  0.
         11    1    3    3    0    0  0.20075554722E+03  0.41643666670E+02  0.13545793683E+04  0.13700081203E+04  0.00000000000E+00 0. -1.
        -11    1    3    3    0    0  0.63541539677E+02 -0.37073458071E+02  0.39995321574E+03  0.40666268988E+03  0.00000000000E+00 0.  1.
          4    1    6    6  502    0 -0.15141255143E+02 -0.13806418046E+03 -0.21949106749E+03  0.25974469050E+03  0.00000000000E+00 0. -1.
          3    1    5    5  503    0 -0.17579575003E+03  0.35705527949E+03 -0.17386965338E+03  0.43430781102E+03  0.00000000000E+00 0. -1.
         -4    1    5    5    0  503 -0.15079911435E+02  0.91282680956E+00 -0.30187718540E+01  0.15406166466E+02  0.00000000000E+00 0.  1.
         -3    1    6    6    0  502 -0.58280170287E+02 -0.22447413444E+03 -0.58638621384E+03  0.63058227620E+03  0.00000000000E+00 0.  1.
<mgrwt>
<rscale>  0 0.30196470E+04</rscale>
<asrwt>0</asrwt>
<pdfrwt beam="1">  1        1 0.29911374E+00 0.30196470E+04</pdfrwt>
<pdfrwt beam="2">  1       -1 0.18038038E+00 0.30196470E+04</pdfrwt>
<totfact> 0.57129340E-01</totfact>
</mgrwt>
</event>
<event>
12    1  0.1496989E-007  0.2091059E+04  0.7818608E-02  0.8565192E-01
         -1   -1    0    0    0  501 -0.00000000000E+00  0.00000000000E+00  0.38845598650E+03  0.38845598650E+03  0.00000000000E+00 0.  1.
          1   -1    0    0  501    0  0.00000000000E+00 -0.00000000000E+00 -0.28140443692E+04  0.28140443692E+04  0.00000000000E+00 0. -1.
         23    2    1    2    0    0 -0.20376808209E+03  0.22849180744E+03 -0.21852722304E+04  0.22085538883E+04  0.92550630357E+02 0.  0.
        254    2    1    2    0    0  0.20376808209E+03 -0.22849180744E+03 -0.24031615230E+03  0.99394646741E+03  0.91457519629E+03 0.  0.
        -24    2    4    4    0    0 -0.10657434380E+03  0.21884075434E+03  0.17056094417E+03  0.30751687437E+03  0.78906437194E+02 0.  0.
         24    2    4    4    0    0  0.31034242589E+03 -0.44733256178E+03 -0.41087709648E+03  0.68642959304E+03  0.77115210260E+02 0.  0.
         11    1    3    3    0    0 -0.18324804275E+03  0.14859985893E+03 -0.17058294564E+04  0.17220673324E+04  0.00000000000E+00 0. -1.
        -11    1    3    3    0    0 -0.20520039344E+02  0.79891948513E+02 -0.47944277401E+03  0.48648655583E+03  0.00000000000E+00 0.  1.
          4    1    6    6  502    0  0.22714163696E+03 -0.36051660963E+03 -0.28673044421E+03  0.51359507075E+03  0.00000000000E+00 0. -1.
          3    1    5    5  503    0  0.45821580189E+01 -0.19637645745E+01 -0.26717395015E+01  0.56560353056E+01  0.00000000000E+00 0. -1.
         -4    1    5    5    0  503 -0.11115650181E+03  0.22080451891E+03  0.17323268368E+03  0.30186083907E+03  0.00000000000E+00 0.  1.
         -3    1    6    6    0  502  0.83200788926E+02 -0.86815952148E+02 -0.12414665226E+03  0.17283452229E+03  0.00000000000E+00 0.  1.
<mgrwt>
<rscale>  0 0.20910594E+04</rscale>
<asrwt>0</asrwt>
<pdfrwt beam="1">  1        1 0.43292991E+00 0.20910594E+04</pdfrwt>
<pdfrwt beam="2">  1       -1 0.59762459E-01 0.20910594E+04</pdfrwt>
<totfact> 0.21296488E+00</totfact>
</mgrwt>
</event>
<event>
12    1  0.1496989E-007  0.1432281E+04  0.7818608E-02  0.8930778E-01
          1   -1    0    0  501    0  0.00000000000E+00  0.00000000000E+00  0.19289714018E+03  0.19289714018E+03  0.00000000000E+00 0. -1.
         -1   -1    0    0    0  501 -0.00000000000E+00 -0.00000000000E+00 -0.26587095126E+04  0.26587095126E+04  0.00000000000E+00 0.  1.
         23    2    1    2    0    0 -0.16994311252E+03 -0.26722713596E+03 -0.18335227302E+03  0.37715936359E+03  0.91324289427E+02 0.  0.
        254    2    1    2    0    0  0.16994311252E+03  0.26722713596E+03 -0.22824600994E+04  0.24744472891E+04  0.90165086253E+03 0.  0.
        -24    2    4    4    0    0 -0.33214497596E+02  0.39757794368E+02 -0.21158016791E+04  0.21178473680E+04  0.77310047119E+02 0.  0.
         24    2    4    4    0    0  0.20315761012E+03  0.22746934159E+03 -0.16665842022E+03  0.35659992120E+03  0.79832066605E+02 0.  0.
         11    1    3    3    0    0 -0.31425961441E+00 -0.53315254809E+02 -0.11421655493E+02  0.54525859632E+02  0.00000000000E+00 0.  1.
        -11    1    3    3    0    0 -0.16962885291E+03 -0.21391188115E+03 -0.17193061753E+03  0.32263350396E+03  0.00000000000E+00 0. -1.
          4    1    6    6  502    0  0.13057689384E+03  0.12913796188E+03 -0.14145479944E+03  0.23181112719E+03  0.00000000000E+00 0. -1.
          1    1    5    5  503    0 -0.45879978331E+02 -0.51979633658E+01 -0.98535843235E+03  0.98643967450E+03  0.00000000000E+00 0. -1.
         -2    1    5    5    0  503  0.12665480736E+02  0.44955757734E+02 -0.11304432468E+04  0.11314076934E+04  0.00000000000E+00 0.  1.
         -3    1    6    6    0  502  0.72580716283E+02  0.98331379706E+02 -0.25203620778E+02  0.12478879401E+03  0.00000000000E+00 0.  1.
<mgrwt>
<rscale>  0 0.14322813E+04</rscale>
<asrwt>0</asrwt>
<pdfrwt beam="1">  1        1 0.29676486E-01 0.14322813E+04</pdfrwt>
<pdfrwt beam="2">  1       -1 0.40903219E+00 0.14322813E+04</pdfrwt>
<totfact> 0.94910017E-01</totfact>
</mgrwt>
</event>
<event>
12    1  0.1496989E-007  0.1678026E+04  0.7818608E-02  0.8773997E-01
          1   -1    0    0  501    0  0.00000000000E+00  0.00000000000E+00  0.23000746844E+04  0.23000746844E+04  0.00000000000E+00 0. -1.
         -1   -1    0    0    0  501 -0.00000000000E+00 -0.00000000000E+00 -0.30605205883E+03  0.30605205883E+03  0.00000000000E+00 0.  1.
         23    2    1    2    0    0  0.36066858151E+03 -0.15275959539E+03  0.91675106393E+01  0.40278862487E+03  0.93473597344E+02 0.  0.
        254    2    1    2    0    0 -0.36066858151E+03  0.15275959539E+03  0.19848551149E+04  0.22033381183E+04  0.87271514071E+03 0.  0.
        -24    2    4    4    0    0 -0.58921469785E+03  0.27524115014E+03  0.11270867932E+04  0.13036444714E+04  0.78946927527E+02 0.  0.
         24    2    4    4    0    0  0.22854611634E+03 -0.12248155474E+03  0.85776832167E+03  0.89969364695E+03  0.80293873749E+02 0.  0.
         11    1    3    3    0    0  0.34743318619E+03 -0.16133734624E+03 -0.26589272672E+01  0.38307522505E+03  0.00000000000E+00 0.  1.
        -11    1    3    3    0    0  0.13235395325E+02  0.85777508420E+01  0.11826437907E+02  0.19713399821E+02  0.00000000000E+00 0. -1.
          4    1    6    6  502    0  0.31974925209E+02  0.15977076178E+01  0.18863956504E+03  0.19133696457E+03  0.00000000000E+00 0. -1.
          3    1    5    5  503    0 -0.47133300133E+02  0.57306509991E+01  0.57011465349E+02  0.74193635330E+02  0.00000000000E+00 0. -1.
         -4    1    5    5    0  503 -0.54208139772E+03  0.26951049914E+03  0.10700753279E+04  0.12294508360E+04  0.00000000000E+00 0.  1.
         -3    1    6    6    0  502  0.19657119113E+03 -0.12407926236E+03  0.66912875663E+03  0.70835668238E+03  0.00000000000E+00 0.  1.
<mgrwt>
<rscale>  0 0.16780257E+04</rscale>
<asrwt>0</asrwt>
<pdfrwt beam="1">  1        1 0.35385763E+00 0.16780257E+04</pdfrwt>
<pdfrwt beam="2">  1       -1 0.47084934E-01 0.16780257E+04</pdfrwt>
<totfact> 0.79880560E+00</totfact>
</mgrwt>
</event>
<event>
12    1  0.1588401E-007  0.1781187E+04  0.7818608E-02  0.8716369E-01
         -1   -1    0    0    0  501 -0.00000000000E+00  0.00000000000E+00  0.35936517520E+03  0.35936517520E+03  0.00000000000E+00 0.  1.
          1   -1    0    0  501    0  0.00000000000E+00 -0.00000000000E+00 -0.22071041298E+04  0.22071041298E+04  0.00000000000E+00 0. -1.
         23    2    1    2    0    0 -0.18480590817E+03 -0.25658472509E+03 -0.15246573664E+04  0.15597311512E+04  0.90510962278E+02 0.  0.
        254    2    1    2    0    0  0.18480590817E+03  0.25658472509E+03 -0.32308158826E+03  0.10067381539E+04  0.89952823908E+03 0.  0.
        -24    2    4    4    0    0  0.12498647201E+03  0.91272145953E+02 -0.62462486203E+03  0.64891521150E+03  0.83561418346E+02 0.  0.
         24    2    4    4    0    0  0.59819436161E+02  0.16531257914E+03  0.30154327377E+03  0.35782294235E+03  0.78754671939E+02 0.  0.
         13    1    3    3    0    0 -0.18117906010E+03 -0.20163882810E+03 -0.11827033329E+04  0.12133718484E+04  0.00000000000E+00 0. -1.
        -13    1    3    3    0    0 -0.36268480753E+01 -0.54945896990E+02 -0.34195403342E+03  0.34635930274E+03  0.00000000000E+00 0.  1.
          4    1    6    6  502    0  0.66072224044E+02  0.16834881232E+03  0.26632487395E+03  0.32192514640E+03  0.00000000000E+00 0. -1.
          1    1    5    5  503    0  0.72329653307E+02  0.70085402836E+02 -0.52211891791E+03  0.53174402383E+03  0.00000000000E+00 0. -1.
         -2    1    5    5    0  503  0.52656818707E+02  0.21186743117E+02 -0.10250594412E+03  0.11717118767E+03  0.00000000000E+00 0.  1.
         -3    1    6    6    0  502 -0.62527878833E+01 -0.30362331807E+01  0.35218399825E+02  0.35897795956E+02  0.00000000000E+00 0.  1.
<mgrwt>
<rscale>  0 0.17811865E+04</rscale>
<asrwt>0</asrwt>
<pdfrwt beam="1">  1        1 0.33955449E+00 0.17811865E+04</pdfrwt>
<pdfrwt beam="2">  1       -1 0.55286948E-01 0.17811865E+04</pdfrwt>
<totfact> 0.67374229E+00</totfact>
</mgrwt>
</event>
<event>
12    1  0.1496989E-007  0.1264526E+04  0.7818608E-02  0.9058179E-01
         -2   -1    0    0    0  501 -0.00000000000E+00  0.00000000000E+00  0.47892453406E+03  0.47892453406E+03  0.00000000000E+00 0.  1.
          2   -1    0    0  501    0  0.00000000000E+00 -0.00000000000E+00 -0.83469621381E+03  0.83469621381E+03  0.00000000000E+00 0. -1.
         23    2    1    2    0    0  0.20878860022E+03 -0.15128226325E+03  0.73151524617E+02  0.28204470658E+03  0.87858227859E+02 0.  0.
        254    2    1    2    0    0 -0.20878860022E+03  0.15128226325E+03 -0.42892320438E+03  0.10315760413E+04  0.90205044812E+03 0.  0.
        -24    2    4    4    0    0  0.23058945995E+03  0.34290839303E+03 -0.33218339615E+03  0.53625673149E+03  0.80422685511E+02 0.  0.
         24    2    4    4    0    0 -0.43937806017E+03 -0.19162612978E+03 -0.96739808227E+02  0.49531930980E+03  0.78797048073E+02 0.  0.
         13    1    3    3    0    0  0.85251322998E+00 -0.14834774182E+02 -0.12067777328E+02  0.19142323617E+02  0.00000000000E+00 0. -1.
        -13    1    3    3    0    0  0.20793608699E+03 -0.13644748906E+03  0.85219301944E+02  0.26290238297E+03  0.00000000000E+00 0.  1.
          4    1    6    6  502    0 -0.40313360727E+03 -0.19768076342E+03 -0.87710079575E+02  0.45747945046E+03  0.00000000000E+00 0. -1.
          1    1    5    5  503    0  0.15162317572E+03  0.23946692646E+03 -0.17885545007E+03  0.33514663702E+03  0.00000000000E+00 0. -1.
         -2    1    5    5    0  503  0.78966284231E+02  0.10344146657E+03 -0.15332794608E+03  0.20111009448E+03  0.00000000000E+00 0.  1.
         -3    1    6    6    0  502 -0.36244452907E+02  0.60546336407E+01 -0.90297286524E+01  0.37839859336E+02  0.00000000000E+00 0.  1.
<mgrwt>
<rscale>  0 0.12645260E+04</rscale>
<asrwt>0</asrwt>
<pdfrwt beam="1">  1        2 0.12841480E+00 0.12645260E+04</pdfrwt>
<pdfrwt beam="2">  1       -2 0.73680698E-01 0.12645260E+04</pdfrwt>
<totfact> 0.53112360E+01</totfact>
</mgrwt>
</event>
<event>
12    1  0.1496989E-007  0.1741066E+04  0.7818608E-02  0.8738283E-01
         -2   -1    0    0    0  501 -0.00000000000E+00  0.00000000000E+00  0.43595366662E+03  0.43595366662E+03  0.00000000000E+00 0.  1.
          2   -1    0    0  501    0  0.00000000000E+00 -0.00000000000E+00 -0.17383221929E+04  0.17383221929E+04  0.00000000000E+00 0. -1.
         23    2    1    2    0    0  0.28162570694E+03 -0.55747261086E+03 -0.64436911455E+03  0.90189249462E+03  0.90054235878E+02 0.  0.
        254    2    1    2    0    0 -0.28162570694E+03  0.55747261086E+03 -0.65799941169E+03  0.12723833649E+04  0.89213645297E+03 0.  0.
        -24    2    4    4    0    0 -0.45912275015E+03  0.37508270273E+03 -0.77706993969E+03  0.98056115872E+03  0.78624177184E+02 0.  0.
         24    2    4    4    0    0  0.17749704322E+03  0.18238990813E+03  0.11907052800E+03  0.29182220613E+03  0.78810725268E+02 0.  0.
         11    1    3    3    0    0  0.26234402307E+03 -0.53677407038E+03 -0.63550432209E+03  0.87224797648E+03  0.00000000000E+00 0. -1.
        -11    1    3    3    0    0  0.19281683867E+02 -0.20698540474E+02 -0.88647924653E+01  0.29644518144E+02  0.00000000000E+00 0.  1.
          4    1    6    6  502    0  0.12200232300E+02 -0.11236726543E+01  0.24426423514E+02  0.27326881895E+02  0.00000000000E+00 0. -1.
          3    1    5    5  503    0 -0.92450806551E+02  0.61929701357E+02 -0.19689006391E+03  0.22615953840E+03  0.00000000000E+00 0. -1.
         -4    1    5    5    0  503 -0.36667194360E+03  0.31315300137E+03 -0.58017987578E+03  0.75440162033E+03  0.00000000000E+00 0.  1.
         -3    1    6    6    0  502  0.16529681091E+03  0.18351358078E+03  0.94644104484E+02  0.26449532424E+03  0.00000000000E+00 0.  1.
<mgrwt>
<rscale>  0 0.17410663E+04</rscale>
<asrwt>0</asrwt>
<pdfrwt beam="1">  1        2 0.26743419E+00 0.17410663E+04</pdfrwt>
<pdfrwt beam="2">  1       -2 0.67069794E-01 0.17410663E+04</pdfrwt>
<totfact> 0.18066828E+01</totfact>
</mgrwt>
</event>
<event>
12    1  0.1496989E-007  0.2257308E+04  0.7818608E-02  0.8494947E-01
         -1   -1    0    0    0  501 -0.00000000000E+00  0.00000000000E+00  0.35846961711E+03  0.35846961711E+03  0.00000000000E+00 0.  1.
          1   -1    0    0  501    0  0.00000000000E+00 -0.00000000000E+00 -0.35536071371E+04  0.35536071371E+04  0.00000000000E+00 0. -1.
         23    2    1    2    0    0  0.43122570231E+03 -0.63786754070E+03 -0.22949056769E+04  0.24223059101E+04  0.90239960423E+02 0.  0.
        254    2    1    2    0    0 -0.43122570231E+03  0.63786754070E+03 -0.90023184307E+03  0.14897708441E+04  0.90342082707E+03 0.  0.
        -24    2    4    4    0    0 -0.26271769331E+03  0.75971550414E+02 -0.84878040477E+03  0.89525917862E+03  0.79174229000E+02 0.  0.
         24    2    4    4    0    0 -0.16850800900E+03  0.56189599028E+03 -0.51451438300E+02  0.59451166546E+03  0.81699552414E+02 0.  0.
         13    1    3    3    0    0  0.62603049446E+02 -0.90228771393E+02 -0.23920603198E+03  0.26321074963E+03  0.00000000000E+00 0.  1.
        -13    1    3    3    0    0  0.36862265286E+03 -0.54763876930E+03 -0.20556996449E+04  0.21590951605E+04  0.00000000000E+00 0. -1.
          2    1    6    6  502    0 -0.32208371474E+02  0.83314513367E+02  0.20714299430E+02  0.91693890371E+02  0.00000000000E+00 0. -1.
          3    1    5    5  503    0 -0.13706551446E+03  0.80260672696E+02 -0.48819166668E+03  0.51338078875E+03  0.00000000000E+00 0. -1.
         -4    1    5    5    0  503 -0.12565217885E+03 -0.42891222819E+01 -0.36058873809E+03  0.38187838988E+03  0.00000000000E+00 0.  1.
         -1    1    6    6    0  502 -0.13629963753E+03  0.47858147692E+03 -0.72165737731E+02  0.50281777508E+03  0.00000000000E+00 0.  1.
<mgrwt>
<rscale>  0 0.22573083E+04</rscale>
<asrwt>0</asrwt>
<pdfrwt beam="1">  1        1 0.54670878E+00 0.22573083E+04</pdfrwt>
<pdfrwt beam="2">  1       -1 0.55149173E-01 0.22573083E+04</pdfrwt>
<totfact> 0.68495528E-01</totfact>
</mgrwt>
</event>
<event>
12    1  0.1496989E-007  0.1279499E+04  0.7818608E-02  0.9045982E-01
          2   -1    0    0  501    0  0.00000000000E+00  0.00000000000E+00  0.19630694644E+03  0.19630694644E+03  0.00000000000E+00 0. -1.
         -2   -1    0    0    0  501 -0.00000000000E+00 -0.00000000000E+00 -0.20848958259E+04  0.20848958259E+04  0.00000000000E+00 0.  1.
         23    2    1    2    0    0 -0.14818867601E+03  0.21646975794E+02 -0.99483085124E+03  0.10106735012E+04  0.96664513367E+02 0.  0.
        254    2    1    2    0    0  0.14818867601E+03 -0.21646975794E+02 -0.89375802818E+03  0.12705292711E+04  0.89051262798E+03 0.  0.
        -24    2    4    4    0    0  0.23370233861E+03  0.20416373115E+03 -0.95612781125E+03  0.10083570783E+04  0.79397693473E+02 0.  0.
         24    2    4    4    0    0 -0.85513662595E+02 -0.22581070695E+03  0.62369783071E+02  0.26217219282E+03  0.80877728611E+02 0.  0.
         13    1    3    3    0    0 -0.12720929669E+02  0.38001244586E+02 -0.17210027484E+03  0.17670433284E+03  0.00000000000E+00 0. -1.
        -13    1    3    3    0    0 -0.13546774634E+03 -0.16354268792E+02 -0.82273057640E+03  0.83396916835E+03  0.00000000000E+00 0.  1.
          2    1    6    6  502    0 -0.78234397462E+02 -0.15262431204E+03  0.98355691552E+01  0.17178923131E+03  0.00000000000E+00 0. -1.
          1    1    5    5  503    0  0.22123300100E+03  0.16153460288E+03 -0.77952228772E+03  0.82625205943E+03  0.00000000000E+00 0. -1.
         -2    1    5    5    0  503  0.12469337609E+02  0.42629128272E+02 -0.17660552353E+03  0.18210501888E+03  0.00000000000E+00 0.  1.
         -1    1    6    6    0  502 -0.72792651339E+01 -0.73186394906E+02  0.52534213916E+02  0.90382961514E+02  0.00000000000E+00 0.  1.
<mgrwt>
<rscale>  0 0.12794992E+04</rscale>
<asrwt>0</asrwt>
<pdfrwt beam="1">  1        2 0.30201069E-01 0.12794992E+04</pdfrwt>
<pdfrwt beam="2">  1       -2 0.32075320E+00 0.12794992E+04</pdfrwt>
<totfact> 0.41462120E+00</totfact>
</mgrwt>
</event>
<event>
12    1  0.1496989E-007  0.2517555E+04  0.7818608E-02  0.8396758E-01
         -2   -1    0    0    0  501 -0.00000000000E+00  0.00000000000E+00  0.75846245253E+03  0.75846245253E+03  0.00000000000E+00 0.  1.
          2   -1    0    0  501    0  0.00000000000E+00 -0.00000000000E+00 -0.20891218013E+04  0.20891218013E+04  0.00000000000E+00 0. -1.
         23    2    1    2    0    0  0.16320029576E+03  0.86587974597E+03 -0.13132563442E+04  0.15842006794E+04  0.93099388006E+02 0.  0.
        254    2    1    2    0    0 -0.16320029576E+03 -0.86587974597E+03 -0.17403004629E+02  0.12633835745E+04  0.90523649985E+03 0.  0.
        -24    2    4    4    0    0  0.32324863638E+03 -0.93904038143E+02 -0.28401078216E+02  0.34733539854E+03  0.80793616912E+02 0.  0.
         24    2    4    4    0    0 -0.48644893214E+03 -0.77197570782E+03  0.10998073587E+02  0.91604817593E+03  0.80276060833E+02 0.  0.
         13    1    3    3    0    0  0.82302493200E+02  0.42906849500E+03 -0.73440116089E+03  0.85452825519E+03  0.00000000000E+00 0.  1.
        -13    1    3    3    0    0  0.80897802558E+02  0.43681125097E+03 -0.57885518327E+03  0.72967242420E+03  0.00000000000E+00 0. -1.
          4    1    6    6  502    0 -0.11185467462E+02 -0.36116606981E+01  0.44089839288E+01  0.12553800804E+02  0.00000000000E+00 0. -1.
          1    1    5    5  503    0  0.14747557037E+03 -0.66503988823E+02  0.19906564923E+02  0.16299722609E+03  0.00000000000E+00 0. -1.
         -2    1    5    5    0  503  0.17577306601E+03 -0.27400049320E+02 -0.48307643139E+02  0.18433817245E+03  0.00000000000E+00 0.  1.
         -3    1    6    6    0  502 -0.47526346468E+03 -0.76836404713E+03  0.65890896580E+01  0.90349437512E+03  0.00000000000E+00 0.  1.
<mgrwt>
<rscale>  0 0.25175547E+04</rscale>
<asrwt>0</asrwt>
<pdfrwt beam="1">  1        2 0.32140335E+00 0.25175547E+04</pdfrwt>
<pdfrwt beam="2">  1       -2 0.11668653E+00 0.25175547E+04</pdfrwt>
<totfact> 0.30194661E+00</totfact>
</mgrwt>
</event>
<event>
12    1  0.1496989E-007  0.1131354E+04  0.7818608E-02  0.9175160E-01
          1   -1    0    0  501    0  0.00000000000E+00  0.00000000000E+00  0.22477541352E+04  0.22477541352E+04  0.00000000000E+00 0. -1.
         -1   -1    0    0    0  501 -0.00000000000E+00 -0.00000000000E+00 -0.14235998362E+03  0.14235998362E+03  0.00000000000E+00 0.  1.
         23    2    1    2    0    0  0.13284638404E+03  0.87342166482E+02  0.15517878040E+03  0.24015001565E+03  0.91185307653E+02 0.  0.
        254    2    1    2    0    0 -0.13284638404E+03 -0.87342166482E+02  0.19502153712E+04  0.21499641032E+04  0.89091460597E+03 0.  0.
        -24    2    4    4    0    0 -0.40131045066E+03  0.14702360105E+03  0.15421994967E+04  0.16023069664E+04  0.79638618821E+02 0.  0.
         24    2    4    4    0    0  0.26846406663E+03 -0.23436576754E+03  0.40801587447E+03  0.54765713684E+03  0.80318849906E+02 0.  0.
         11    1    3    3    0    0  0.80411716812E+02  0.97235948628E+02  0.85633294269E+02  0.15249240963E+03  0.00000000000E+00 0.  1.
        -11    1    3    3    0    0  0.52434667223E+02 -0.98937821464E+01  0.69545486134E+02  0.87657606022E+02  0.00000000000E+00 0. -1.
          2    1    6    6  502    0  0.17205516154E+03 -0.11513576207E+03  0.27804175687E+03  0.34665031499E+03  0.00000000000E+00 0. -1.
          3    1    5    5  503    0 -0.15217243823E+03  0.80388311467E+02  0.73643190821E+03  0.75627421416E+03  0.00000000000E+00 0. -1.
         -4    1    5    5    0  503 -0.24913801244E+03  0.66635289588E+02  0.80576758854E+03  0.84603275220E+03  0.00000000000E+00 0.  1.
         -1    1    6    6    0  502  0.96408905087E+02 -0.11923000547E+03  0.12997411759E+03  0.20100682185E+03  0.00000000000E+00 0.  1.
<mgrwt>
<rscale>  0 0.11313536E+04</rscale>
<asrwt>0</asrwt>
<pdfrwt beam="1">  1        1 0.34580830E+00 0.11313536E+04</pdfrwt>
<pdfrwt beam="2">  1       -1 0.21901538E-01 0.11313536E+04</pdfrwt>
<totfact> 0.35449047E+01</totfact>
</mgrwt>
</event>
<event>
12    1  0.1496989E-007  0.2350786E+04  0.7818608E-02  0.8458162E-01
          2   -1    0    0  501    0  0.00000000000E+00  0.00000000000E+00  0.10406653023E+04  0.10406653023E+04  0.00000000000E+00 0. -1.
         -2   -1    0    0    0  501 -0.00000000000E+00 -0.00000000000E+00 -0.13275629848E+04  0.13275629848E+04  0.00000000000E+00 0.  1.
         23    2    1    2    0    0  0.12718456659E+02  0.41004070405E+02  0.88562346553E+03  0.89114402078E+03  0.89250491020E+02 0.  0.
        254    2    1    2    0    0 -0.12718456659E+02 -0.41004070405E+02 -0.11725211480E+04  0.14770842663E+04  0.89728980517E+03 0.  0.
        -24    2    4    4    0    0  0.20825220991E+03  0.34221265551E+03 -0.77861621502E+03  0.87937191619E+03  0.81075718778E+02 0.  0.
         24    2    4    4    0    0 -0.22097066657E+03 -0.38321672591E+03 -0.39390493298E+03  0.59771235015E+03  0.80099081145E+02 0.  0.
         11    1    3    3    0    0  0.34362298816E+02 -0.12913013127E+02  0.47706825875E+03  0.47847846032E+03  0.00000000000E+00 0. -1.
        -11    1    3    3    0    0 -0.21643842157E+02  0.53917083532E+02  0.40855520678E+03  0.41266556045E+03  0.00000000000E+00 0.  1.
          4    1    6    6  502    0 -0.11071583414E+03 -0.16159482872E+03 -0.22351974579E+03  0.29720693356E+03  0.00000000000E+00 0. -1.
          3    1    5    5  503    0  0.15877810347E+03  0.30828956379E+03 -0.63054413192E+03  0.71961020253E+03  0.00000000000E+00 0. -1.
         -4    1    5    5    0  503  0.49474106438E+02  0.33923091716E+02 -0.14807208310E+03  0.15976171366E+03  0.00000000000E+00 0.  1.
         -3    1    6    6    0  502 -0.11025483243E+03 -0.22162189720E+03 -0.17038518719E+03  0.30050541660E+03  0.00000000000E+00 0.  1.
<mgrwt>
<rscale>  0 0.23507860E+04</rscale>
<asrwt>0</asrwt>
<pdfrwt beam="1">  1        2 0.16010235E+00 0.23507860E+04</pdfrwt>
<pdfrwt beam="2">  1       -2 0.20424046E+00 0.23507860E+04</pdfrwt>
<totfact> 0.26725121E+00</totfact>
</mgrwt>
</event>
<event>
12    1  0.1496989E-007  0.1434000E+04  0.7818608E-02  0.8929569E-01
         -2   -1    0    0    0  501 -0.00000000000E+00  0.00000000000E+00  0.62969393036E+03  0.62969393036E+03  0.00000000000E+00 0. -1.
          2   -1    0    0  501    0  0.00000000000E+00 -0.00000000000E+00 -0.81641102331E+03  0.81641102331E+03  0.00000000000E+00 0.  1.
         23    2    1    2    0    0 -0.27983981501E+03  0.30813033919E+03  0.46016738321E+02  0.42873454117E+03  0.91875669184E+02 0.  0.
        254    2    1    2    0    0  0.27983981501E+03 -0.30813033919E+03 -0.23273383127E+03  0.10173704125E+04  0.89867841413E+03 0.  0.
        -24    2    4    4    0    0  0.23253027533E+03 -0.61875515430E+03 -0.12938810074E+03  0.67827283239E+03  0.79902970093E+02 0.  0.
         24    2    4    4    0    0  0.47309539678E+02  0.31062481511E+03 -0.10334573053E+03  0.33909758011E+03  0.74705157219E+02 0.  0.
         11    1    3    3    0    0 -0.23283716762E+03  0.27871319730E+03  0.67273145242E+02  0.36935060450E+03  0.00000000000E+00 0. -1.
        -11    1    3    3    0    0 -0.47002647389E+02  0.29417141894E+02 -0.21256406922E+02  0.59383936666E+02  0.00000000000E+00 0.  1.
          4    1    6    6  502    0  0.46082275971E+01  0.97406812851E+02  0.18583752664E+01  0.97533463540E+02  0.00000000000E+00 0. -1.
          3    1    5    5  503    0  0.88896377888E+02 -0.17538112963E+03 -0.68691821280E+02  0.20827787435E+03  0.00000000000E+00 0. -1.
         -4    1    5    5    0  503  0.14363389744E+03 -0.44337402467E+03 -0.60696279455E+02  0.46999495804E+03  0.00000000000E+00 0.  1.
         -3    1    6    6    0  502  0.42701312081E+02  0.21321800225E+03 -0.10520410580E+03  0.24156411657E+03  0.00000000000E+00 0.  1.
<mgrwt>
<rscale>  0 0.14340001E+04</rscale>
<asrwt>0</asrwt>
<pdfrwt beam="1">  1        2 0.12560170E+00 0.14340001E+04</pdfrwt>
<pdfrwt beam="2">  1       -2 0.96875989E-01 0.14340001E+04</pdfrwt>
<totfact> 0.28982333E+01</totfact>
</mgrwt>
</event>
<event>
12    1  0.1496989E-007  0.1289882E+04  0.7818608E-02  0.9037627E-01
         -1   -1    0    0    0  501 -0.00000000000E+00  0.00000000000E+00  0.10905288963E+04  0.10905288963E+04  0.00000000000E+00 0.  1.
          1   -1    0    0  501    0  0.00000000000E+00 -0.00000000000E+00 -0.38141950164E+03  0.38141950164E+03  0.00000000000E+00 0. -1.
         23    2    1    2    0    0  0.58020457048E+02 -0.38854469518E+02 -0.17234041230E+03  0.21192537124E+03  0.10166170382E+03 0.  0.
        254    2    1    2    0    0 -0.58020457048E+02  0.38854469518E+02  0.88144980699E+03  0.12600230267E+04  0.89767935390E+03 0.  0.
        -24    2    4    4    0    0 -0.36020411308E+03  0.31336128090E+03  0.44661426352E+03  0.65824474266E+03  0.76678193880E+02 0.  0.
         24    2    4    4    0    0  0.30218365603E+03 -0.27450681138E+03  0.43483554348E+03  0.60177828408E+03  0.79913715034E+02 0.  0.
         11    1    3    3    0    0 -0.66815473729E+01  0.21009201434E+02 -0.47276069213E+01  0.22547281153E+02  0.00000000000E+00 0.  1.
        -11    1    3    3    0    0  0.64702004421E+02 -0.59863670952E+02 -0.16761280538E+03  0.18937809008E+03  0.00000000000E+00 0. -1.
          4    1    6    6  502    0  0.85564431465E+02 -0.33552538558E+02  0.91219721313E+02  0.12949163036E+03  0.00000000000E+00 0. -1.
          3    1    5    5  503    0 -0.96902298666E+02  0.13199918490E+03  0.15707226732E+03  0.22690424735E+03  0.00000000000E+00 0. -1.
         -4    1    5    5    0  503 -0.26330181441E+03  0.18136209600E+03  0.28954199619E+03  0.43134049531E+03  0.00000000000E+00 0.  1.
         -3    1    6    6    0  502  0.21661922456E+03 -0.24095427282E+03  0.34361582216E+03  0.47228665372E+03  0.00000000000E+00 0.  1.
<mgrwt>
<rscale>  0 0.12898821E+04</rscale>
<asrwt>0</asrwt>
<pdfrwt beam="1">  1        1 0.58679924E-01 0.12898821E+04</pdfrwt>
<pdfrwt beam="2">  1       -1 0.16777368E+00 0.12898821E+04</pdfrwt>
<totfact> 0.16060608E+01</totfact>
</mgrwt>
</event>
<event>
12    1  0.1496989E-007  0.2457121E+04  0.7818608E-02  0.8418423E-01
          1   -1    0    0  501    0  0.00000000000E+00  0.00000000000E+00  0.16729353858E+04  0.16729353858E+04  0.00000000000E+00 0. -1.
         -1   -1    0    0    0  501 -0.00000000000E+00 -0.00000000000E+00 -0.90222308065E+03  0.90222308065E+03  0.00000000000E+00 0.  1.
         23    2    1    2    0    0  0.86167316952E+03 -0.61720471085E+03  0.46653152511E+03  0.11619450341E+04  0.95090967582E+02 0.  0.
        254    2    1    2    0    0 -0.86167316952E+03  0.61720471085E+03  0.30418078003E+03  0.14132134324E+04  0.88386874156E+03 0.  0.
        -24    2    4    4    0    0 -0.97340254013E+02  0.46533779693E+03 -0.15220814850E+03  0.50652824993E+03  0.85960207120E+02 0.  0.
         24    2    4    4    0    0 -0.76433291551E+03  0.15186691392E+03  0.45638892853E+03  0.90668518243E+03  0.80739090199E+02 0.  0.
         11    1    3    3    0    0  0.16455097846E+03 -0.11097801780E+03  0.48352241130E+02  0.20428187431E+03  0.00000000000E+00 0.  1.
        -11    1    3    3    0    0  0.69712219106E+03 -0.50622669305E+03  0.41817928398E+03  0.95766315976E+03  0.00000000000E+00 0. -1.
          2    1    6    6  502    0 -0.76020265210E+03  0.15245474605E+03  0.44368178166E+03  0.89331072155E+03  0.00000000000E+00 0. -1.
          1    1    5    5  503    0 -0.10621808167E+03  0.38898522710E+03 -0.14805666185E+03  0.42954925549E+03  0.00000000000E+00 0. -1.
         -2    1    5    5    0  503  0.88778276595E+01  0.76352569834E+02 -0.41514866485E+01  0.76978994444E+02  0.00000000000E+00 0.  1.
         -1    1    6    6    0  502 -0.41302634069E+01 -0.58783212428E+00  0.12707146871E+02  0.13374460887E+02  0.00000000000E+00 0.  1.
<mgrwt>
<rscale>  0 0.24571210E+04</rscale>
<asrwt>0</asrwt>
<pdfrwt beam="1">  1        1 0.25737468E+00 0.24571210E+04</pdfrwt>
<pdfrwt beam="2">  1       -1 0.13880355E+00 0.24571210E+04</pdfrwt>
<totfact> 0.19010159E+00</totfact>
</mgrwt>
</event>
<event>
12    1  0.1496989E-007  0.1429346E+04  0.7818608E-02  0.8932846E-01
         -2   -1    0    0    0  501 -0.00000000000E+00  0.00000000000E+00  0.38610374875E+03  0.38610374875E+03  0.00000000000E+00 0. -1.
          2   -1    0    0  501    0  0.00000000000E+00 -0.00000000000E+00 -0.13228512267E+04  0.13228512267E+04  0.00000000000E+00 0.  1.
         23    2    1    2    0    0 -0.39869159632E+03 -0.31614071700E+02 -0.46120205831E+03  0.61730804702E+03  0.91692136123E+02 0.  0.
        254    2    1    2    0    0  0.39869159632E+03  0.31614071700E+02 -0.47554541968E+03  0.10916469285E+04  0.89754951493E+03 0.  0.
        -24    2    4    4    0    0  0.60346484700E+03 -0.12636545100E+03 -0.10196237199E+03  0.63008152094E+03  0.80426046447E+02 0.  0.
         24    2    4    4    0    0 -0.20477325068E+03  0.15797952270E+03 -0.37358304768E+03  0.46156540753E+03  0.81170919214E+02 0.  0.
         11    1    3    3    0    0 -0.55575935963E+02 -0.23606441694E+02 -0.33927403740E+02  0.69260504418E+02  0.00000000000E+00 0. -1.
        -11    1    3    3    0    0 -0.34311566035E+03 -0.80076300061E+01 -0.42727465457E+03  0.54804754260E+03  0.00000000000E+00 0.  1.
          2    1    6    6  502    0 -0.20327920854E+03  0.16206016589E+03 -0.37558390036E+03  0.45678134836E+03  0.00000000000E+00 0. -1.
          3    1    5    5  503    0  0.45511555070E+03 -0.12733891805E+03 -0.91416285689E+02  0.48135465286E+03  0.00000000000E+00 0. -1.
         -4    1    5    5    0  503  0.14834929630E+03  0.97346704935E+00 -0.10546086304E+02  0.14872686808E+03  0.00000000000E+00 0.  1.
         -1    1    6    6    0  502 -0.14940421418E+01 -0.40806431903E+01  0.20008526789E+01  0.47840591772E+01  0.00000000000E+00 0.  1.
<mgrwt>
<rscale>  0 0.14293464E+04</rscale>
<asrwt>0</asrwt>
<pdfrwt beam="1">  1        2 0.20351558E+00 0.14293464E+04</pdfrwt>
<pdfrwt beam="2">  1       -2 0.59400576E-01 0.14293464E+04</pdfrwt>
<totfact> 0.41191096E+01</totfact>
</mgrwt>
</event>
<event>
12    1  0.1496989E-007  0.1890086E+04  0.7818608E-02  0.8659807E-01
         -2   -1    0    0    0  501 -0.00000000000E+00  0.00000000000E+00  0.15078349812E+04  0.15078349812E+04  0.00000000000E+00 0.  1.
          2   -1    0    0  501    0  0.00000000000E+00 -0.00000000000E+00 -0.59231050612E+03  0.59231050612E+03  0.00000000000E+00 0. -1.
         23    2    1    2    0    0  0.64287275992E+02  0.36850517236E+03  0.10547577061E+04  0.11229813310E+04  0.92974917759E+02 0.  0.
        254    2    1    2    0    0 -0.64287275992E+02 -0.36850517236E+03 -0.13923323102E+03  0.97716415630E+03  0.89192767635E+03 0.  0.
        -24    2    4    4    0    0  0.18332841075E+02  0.28816808825E+03 -0.56790236231E+02  0.30516145966E+03  0.80755466580E+02 0.  0.
         24    2    4    4    0    0 -0.82620117067E+02 -0.65667326061E+03 -0.82442994790E+02  0.67200269664E+03  0.82127473838E+02 0.  0.
         11    1    3    3    0    0  0.50922186457E+02  0.19165731461E+03  0.68089830191E+03  0.70918833385E+03  0.00000000000E+00 0. -1.
        -11    1    3    3    0    0  0.13365089534E+02  0.17684785775E+03  0.37385940414E+03  0.41379299713E+03  0.00000000000E+00 0.  1.
          4    1    6    6  502    0 -0.43990848695E+02 -0.49051088071E+03 -0.29414103875E+02  0.49335718133E+03  0.00000000000E+00 0. -1.
          3    1    5    5  503    0  0.27315726441E+02  0.28293903935E+03 -0.42383992891E+02  0.28739702809E+03  0.00000000000E+00 0. -1.
         -4    1    5    5    0  503 -0.89828853657E+01  0.52290488983E+01 -0.14406243340E+02  0.17764431571E+02  0.00000000000E+00 0.  1.
         -3    1    6    6    0  502 -0.38629268372E+02 -0.16616237990E+03 -0.53028890915E+02  0.17864551531E+03  0.00000000000E+00 0.  1.
<mgrwt>
<rscale>  0 0.18900862E+04</rscale>
<asrwt>0</asrwt>
<pdfrwt beam="1">  1        2 0.91124694E-01 0.18900862E+04</pdfrwt>
<pdfrwt beam="2">  1       -2 0.23197461E+00 0.18900862E+04</pdfrwt>
<totfact> 0.39219885E+00</totfact>
</mgrwt>
</event>
<event>
12    1  0.1496989E-007  0.1860335E+04  0.7818608E-02  0.8674856E-01
          1   -1    0    0  501    0  0.00000000000E+00  0.00000000000E+00  0.80617410776E+03  0.80617410776E+03  0.00000000000E+00 0. -1.
         -1   -1    0    0    0  501 -0.00000000000E+00 -0.00000000000E+00 -0.10732318408E+04  0.10732318408E+04  0.00000000000E+00 0.  1.
         23    2    1    2    0    0 -0.27605633292E+03  0.25163566880E+03  0.50356692576E+03  0.63086758690E+03  0.69904611638E+02 0.  0.
        254    2    1    2    0    0  0.27605633292E+03 -0.25163566880E+03 -0.77062465883E+03  0.12485383617E+04  0.90854722886E+03 0.  0.
        -24    2    4    4    0    0  0.95018547968E+02  0.55384837130E+02  0.18229781533E+03  0.22766485117E+03  0.80639855807E+02 0.  0.
         24    2    4    4    0    0  0.18103778495E+03 -0.30702050593E+03 -0.95292247416E+03  0.10208735105E+04  0.84173701930E+02 0.  0.
         13    1    3    3    0    0 -0.11598470407E+03  0.88574372617E+02  0.14530786815E+03  0.20594234049E+03  0.00000000000E+00 0. -1.
        -13    1    3    3    0    0 -0.16007162886E+03  0.16306129618E+03  0.35825905761E+03  0.42492524641E+03  0.00000000000E+00 0.  1.
          4    1    6    6  502    0  0.12674087702E+02 -0.77161347719E+02 -0.15502251204E+03  0.17362743251E+03  0.00000000000E+00 0. -1.
          3    1    5    5  503    0  0.33093468095E+02 -0.27938812994E+01  0.86119815573E+01  0.34309614244E+02  0.00000000000E+00 0. -1.
         -4    1    5    5    0  503  0.61925079874E+02  0.58178718429E+02  0.17368583377E+03  0.19335523693E+03  0.00000000000E+00 0.  1.
         -3    1    6    6    0  502  0.16836369725E+03 -0.22985915821E+03 -0.79789996212E+03  0.84724607802E+03  0.00000000000E+00 0.  1.
<mgrwt>
<rscale>  0 0.18603352E+04</rscale>
<asrwt>0</asrwt>
<pdfrwt beam="1">  1        1 0.12402679E+00 0.18603352E+04</pdfrwt>
<pdfrwt beam="2">  1       -1 0.16511259E+00 0.18603352E+04</pdfrwt>
<totfact> 0.54831631E+00</totfact>
</mgrwt>
</event>
<event>
12    1  0.1496989E-007  0.2452012E+04  0.7818608E-02  0.8420284E-01
         -1   -1    0    0    0  501 -0.00000000000E+00  0.00000000000E+00  0.13534873231E+04  0.13534873231E+04  0.00000000000E+00 0.  1.
          1   -1    0    0  501    0  0.00000000000E+00 -0.00000000000E+00 -0.11105315923E+04  0.11105315923E+04  0.00000000000E+00 0. -1.
         23    2    1    2    0    0  0.72470879224E+03  0.71311023827E+03  0.39221901301E+03  0.10932062554E+04  0.86805052763E+02 0.  0.
        254    2    1    2    0    0 -0.72470879224E+03 -0.71311023827E+03 -0.14926328226E+03  0.13708126600E+04  0.90725893539E+03 0.  0.
        -24    2    4    4    0    0  0.32627084983E+02 -0.25359444024E+03  0.27693809514E+03  0.38481823059E+03  0.77560913211E+02 0.  0.
         24    2    4    4    0    0 -0.75733587722E+03 -0.45951579804E+03 -0.42620137740E+03  0.98599442940E+03  0.76321695007E+02 0.  0.
         13    1    3    3    0    0  0.37308885200E+03  0.34551664753E+03  0.23954881720E+03  0.56210379916E+03  0.00000000000E+00 0. -1.
        -13    1    3    3    0    0  0.35161994024E+03  0.36759359075E+03  0.15267019581E+03  0.53110245624E+03  0.00000000000E+00 0.  1.
          4    1    6    6  502    0 -0.61590369647E+03 -0.38541153630E+03 -0.37916856249E+03  0.81954146596E+03  0.00000000000E+00 0. -1.
          1    1    5    5  503    0  0.32464938667E+02 -0.23833822174E+03  0.22035321143E+03  0.32621253497E+03  0.00000000000E+00 0. -1.
         -2    1    5    5    0  503  0.16214631533E+00 -0.15256218498E+02  0.56584883705E+02  0.58605695612E+02  0.00000000000E+00 0.  1.
         -3    1    6    6    0  502 -0.14143218075E+03 -0.74104261736E+02 -0.47032814907E+02  0.16645296344E+03  0.00000000000E+00 0.  1.
<mgrwt>
<rscale>  0 0.24520118E+04</rscale>
<asrwt>0</asrwt>
<pdfrwt beam="1">  1        1 0.17085101E+00 0.24520118E+04</pdfrwt>
<pdfrwt beam="2">  1       -1 0.20822882E+00 0.24520118E+04</pdfrwt>
<totfact> 0.14679234E+00</totfact>
</mgrwt>
</event>
<event>
12    1  0.1496989E-007  0.2820376E+04  0.7818608E-02  0.8296970E-01
          2   -1    0    0  501    0  0.00000000000E+00  0.00000000000E+00  0.10359543392E+04  0.10359543392E+04  0.00000000000E+00 0. -1.
         -2   -1    0    0    0  501 -0.00000000000E+00 -0.00000000000E+00 -0.19196123833E+04  0.19196123833E+04  0.00000000000E+00 0.  1.
         23    2    1    2    0    0  0.35540547177E+03  0.10097158572E+04 -0.11051999176E+04  0.15410727492E+04  0.87173383661E+02 0.  0.
        254    2    1    2    0    0 -0.35540547177E+03 -0.10097158572E+04  0.22154187351E+03  0.14144939734E+04  0.89770442643E+03 0.  0.
        -24    2    4    4    0    0  0.48059567934E+02 -0.87853892033E+02 -0.26468962790E+03  0.29421755108E+03  0.80469496300E+02 0.  0.
         24    2    4    4    0    0 -0.40346503970E+03 -0.92186196519E+03  0.48623150141E+03  0.11202764223E+04  0.77360637276E+02 0.  0.
         13    1    3    3    0    0  0.11893220732E+03  0.34399747635E+03 -0.31774941178E+03  0.48316024501E+03  0.00000000000E+00 0. -1.
        -13    1    3    3    0    0  0.23647326444E+03  0.66571838087E+03 -0.78745050584E+03  0.10579125042E+04  0.00000000000E+00 0.  1.
          2    1    6    6  502    0 -0.31165618700E+03 -0.62581415166E+03  0.34651069557E+03  0.78028366218E+03  0.00000000000E+00 0. -1.
          3    1    5    5  503    0 -0.90475337074E+01 -0.10815613278E+02 -0.11879167432E+03  0.11962565463E+03  0.00000000000E+00 0. -1.
         -4    1    5    5    0  503  0.57107101641E+02 -0.77038278755E+02 -0.14589795358E+03  0.17459189646E+03  0.00000000000E+00 0.  1.
         -1    1    6    6    0  502 -0.91808852699E+02 -0.29604781353E+03  0.13972080583E+03  0.33999276009E+03  0.00000000000E+00 0.  1.
<mgrwt>
<rscale>  0 0.28203764E+04</rscale>
<asrwt>0</asrwt>
<pdfrwt beam="1">  1        2 0.15937759E+00 0.28203764E+04</pdfrwt>
<pdfrwt beam="2">  1       -2 0.29532498E+00 0.28203764E+04</pdfrwt>
<totfact> 0.70455966E-01</totfact>
</mgrwt>
</event>
<event>
12    1  0.1496989E-007  0.3209790E+04  0.7818608E-02  0.8186236E-01
          1   -1    0    0  501    0  0.00000000000E+00  0.00000000000E+00  0.30227935569E+04  0.30227935569E+04  0.00000000000E+00 0. -1.
         -1   -1    0    0    0  501 -0.00000000000E+00 -0.00000000000E+00 -0.85208878346E+03  0.85208878346E+03  0.00000000000E+00 0.  1.
         23    2    1    2    0    0 -0.71384688805E+03 -0.94917106131E+02  0.25581796483E+04  0.26590786782E+04  0.88485407455E+02 0.  0.
        254    2    1    2    0    0  0.71384688805E+03  0.94917106131E+02 -0.38747487489E+03  0.12158036621E+04  0.89969724325E+03 0.  0.
        -24    2    4    4    0    0  0.67761418991E+03 -0.23331670246E+03 -0.28976375483E+02  0.72172535347E+03  0.80313021985E+02 0.  0.
         24    2    4    4    0    0  0.36232698146E+02  0.32823380859E+03 -0.35849849941E+03  0.49407830864E+03  0.80882380501E+02 0.  0.
         11    1    3    3    0    0 -0.69025307989E+03 -0.76808769883E+02  0.24807070958E+04  0.25760932818E+04  0.00000000000E+00 0. -1.
        -11    1    3    3    0    0 -0.23593808164E+02 -0.18108336248E+02  0.77472552460E+02  0.82985396366E+02  0.00000000000E+00 0.  1.
          4    1    6    6  502    0  0.64222152645E+01  0.22606779405E+02 -0.65719987348E+02  0.69795616345E+02  0.00000000000E+00 0. -1.
          3    1    5    5  503    0  0.19752114786E+03 -0.33349965139E+02  0.67116843074E+01  0.20042921626E+03  0.00000000000E+00 0. -1.
         -4    1    5    5    0  503  0.48009304205E+03 -0.19996673732E+03 -0.35688059791E+02  0.52129613721E+03  0.00000000000E+00 0.  1.
         -3    1    6    6    0  502  0.29810482881E+02  0.30562702918E+03 -0.29277851206E+03  0.42428269230E+03  0.00000000000E+00 0.  1.
<mgrwt>
<rscale>  0 0.32097903E+04</rscale>
<asrwt>0</asrwt>
<pdfrwt beam="1">  1        1 0.46504516E+00 0.32097903E+04</pdfrwt>
<pdfrwt beam="2">  1       -1 0.13109058E+00 0.32097903E+04</pdfrwt>
<totfact> 0.23855583E-01</totfact>
</mgrwt>
</event>
<event>
12    1  0.1496989E-007  0.1177710E+04  0.7818608E-02  0.9132594E-01
          2   -1    0    0  501    0  0.00000000000E+00  0.00000000000E+00  0.11363094558E+04  0.11363094558E+04  0.00000000000E+00 0. -1.
         -2   -1    0    0    0  501 -0.00000000000E+00 -0.00000000000E+00 -0.30515479608E+03  0.30515479608E+03  0.00000000000E+00 0.  1.
         23    2    1    2    0    0 -0.98873500551E+02  0.14216369361E+03  0.36624098532E+03  0.41473508736E+03  0.88804552056E+02 0.  0.
        254    2    1    2    0    0  0.98873500551E+02 -0.14216369361E+03  0.46491367439E+03  0.10267291645E+04  0.89891132362E+03 0.  0.
        -24    2    4    4    0    0 -0.17717471641E+02  0.12730443637E+03 -0.22584330075E+03  0.27192767252E+03  0.80119499923E+02 0.  0.
         24    2    4    4    0    0  0.11659097219E+03 -0.26946812998E+03  0.69075697514E+03  0.75480149199E+03  0.79834614888E+02 0.  0.
         11    1    3    3    0    0 -0.49718047502E+02  0.56998743780E+02  0.25633486657E+03  0.26726074321E+03  0.00000000000E+00 0. -1.
        -11    1    3    3    0    0 -0.49155453049E+02  0.85164949833E+02  0.10990611875E+03  0.14747434415E+03  0.00000000000E+00 0.  1.
          4    1    6    6  502    0  0.52874666974E+02 -0.91029018240E+02  0.16276058266E+03  0.19383761203E+03  0.00000000000E+00 0. -1.
          1    1    5    5  503    0 -0.39004056169E+02  0.51346945009E+02 -0.59106926891E+02  0.87472589797E+02  0.00000000000E+00 0. -1.
         -2    1    5    5    0  503  0.21286584528E+02  0.75957491361E+02 -0.16673637386E+03  0.18445508272E+03  0.00000000000E+00 0.  1.
         -3    1    6    6    0  502  0.63716305219E+02 -0.17843911174E+03  0.52799639248E+03  0.56096387996E+03  0.00000000000E+00 0.  1.
<mgrwt>
<rscale>  0 0.11777101E+04</rscale>
<asrwt>0</asrwt>
<pdfrwt beam="1">  1        2 0.17481684E+00 0.11777101E+04</pdfrwt>
<pdfrwt beam="2">  1       -2 0.46946892E-01 0.11777101E+04</pdfrwt>
<totfact> 0.87921347E+01</totfact>
</mgrwt>
</event>
<event>
12    1  0.1496989E-007  0.2173286E+04  0.7818608E-02  0.8529630E-01
          2   -1    0    0  501    0  0.00000000000E+00  0.00000000000E+00  0.18128811974E+04  0.18128811974E+04  0.00000000000E+00 0. -1.
         -2   -1    0    0    0  501 -0.00000000000E+00 -0.00000000000E+00 -0.65133515891E+03  0.65133515891E+03  0.00000000000E+00 0.  1.
         23    2    1    2    0    0  0.38751090931E+03 -0.48685604045E+03  0.12152073470E+04  0.13682468765E+04  0.90427374507E+02 0.  0.
        254    2    1    2    0    0 -0.38751090931E+03  0.48685604045E+03 -0.53661308443E+02  0.10959694798E+04  0.90059761031E+03 0.  0.
        -24    2    4    4    0    0  0.10702305228E+03 -0.84279354472E+02 -0.26339608478E+03  0.30778868213E+03  0.82458668798E+02 0.  0.
         24    2    4    4    0    0 -0.49453396158E+03  0.57113539492E+03  0.20973477633E+03  0.78818079769E+03  0.80503508889E+02 0.  0.
         13    1    3    3    0    0 -0.40146969954E+01 -0.51588801457E+01  0.25624610043E+02  0.26445273229E+02  0.00000000000E+00 0. -1.
        -13    1    3    3    0    0  0.39152560630E+03 -0.48169716031E+03  0.11895827369E+04  0.13418016033E+04  0.00000000000E+00 0.  1.
          4    1    6    6  502    0 -0.18219502531E+03  0.26942935722E+03  0.79753756155E+02  0.33488485693E+03  0.00000000000E+00 0. -1.
          3    1    5    5  503    0  0.56353582067E+02 -0.91652882202E+02 -0.18892079476E+03  0.21740985194E+03  0.00000000000E+00 0. -1.
         -4    1    5    5    0  503  0.50669470212E+02  0.73735277308E+01 -0.74475290018E+02  0.90378830187E+02  0.00000000000E+00 0.  1.
         -3    1    6    6    0  502 -0.31233893628E+03  0.30170603770E+03  0.12998102018E+03  0.45329594076E+03  0.00000000000E+00 0.  1.
<mgrwt>
<rscale>  0 0.21732862E+04</rscale>
<asrwt>0</asrwt>
<pdfrwt beam="1">  1        2 0.27890480E+00 0.21732862E+04</pdfrwt>
<pdfrwt beam="2">  1       -2 0.10020541E+00 0.21732862E+04</pdfrwt>
<totfact> 0.63912761E+00</totfact>
</mgrwt>
</event>
<event>
12    1  0.1496989E-007  0.2515791E+04  0.7818608E-02  0.8397381E-01
          2   -1    0    0  501    0  0.00000000000E+00  0.00000000000E+00  0.30265335970E+04  0.30265335970E+04  0.00000000000E+00 0.  1.
         -2   -1    0    0    0  501 -0.00000000000E+00 -0.00000000000E+00 -0.52280966653E+03  0.52280966653E+03  0.00000000000E+00 0. -1.
         23    2    1    2    0    0 -0.24170910745E+03  0.16554801969E+02  0.26015429588E+04  0.26144453573E+04  0.92743766114E+02 0.  0.
        254    2    1    2    0    0  0.24170910745E+03 -0.16554801969E+02 -0.97819028286E+02  0.93489790620E+03  0.89764590938E+03 0.  0.
        -24    2    4    4    0    0 -0.25738892853E+03  0.98543539981E+02  0.18823767928E+03  0.34317016448E+03  0.79827614804E+02 0.  0.
         24    2    4    4    0    0  0.49909803599E+03 -0.11509834195E+03 -0.28605670756E+03  0.59172774172E+03  0.77245080970E+02 0.  0.
         11    1    3    3    0    0 -0.35099129880E+01 -0.88541680306E+01  0.36235882848E+03  0.36248398083E+03  0.00000000000E+00 0. -1.
        -11    1    3    3    0    0 -0.23819919446E+03  0.25408969999E+02  0.22391841303E+04  0.22519613765E+04  0.00000000000E+00 0.  1.
          4    1    6    6  502    0  0.19647361822E+02 -0.15690059776E+02 -0.30088203533E+02  0.39210926974E+02  0.00000000000E+00 0. -1.
          1    1    5    5  503    0 -0.17053641541E+03  0.75411287652E+02  0.16812114606E+03  0.25106622839E+03  0.00000000000E+00 0. -1.
         -2    1    5    5    0  503 -0.86852513129E+02  0.23132252329E+02  0.20116533215E+02  0.92103936090E+02  0.00000000000E+00 0.  1.
         -3    1    6    6    0  502  0.47945067416E+03 -0.99408282173E+02 -0.25596850403E+03  0.55251681475E+03  0.00000000000E+00 0.  1.
<mgrwt>
<rscale>  0 0.25157909E+04</rscale>
<asrwt>0</asrwt>
<pdfrwt beam="1">  1        2 0.46562055E+00 0.25157909E+04</pdfrwt>
<pdfrwt beam="2">  1       -2 0.80432257E-01 0.25157909E+04</pdfrwt>
<totfact> 0.20384074E+00</totfact>
</mgrwt>
</event>
<event>
12    1  0.1496989E-007  0.1191521E+04  0.7818608E-02  0.9120311E-01
         -2   -1    0    0    0  501 -0.00000000000E+00  0.00000000000E+00  0.24440504485E+03  0.24440504485E+03  0.00000000000E+00 0.  1.
          2   -1    0    0  501    0  0.00000000000E+00 -0.00000000000E+00 -0.14522216811E+04  0.14522216811E+04  0.00000000000E+00 0. -1.
         23    2    1    2    0    0 -0.22595771071E+03 -0.31536273381E+02 -0.39478187633E+03  0.46526736104E+03  0.92571938527E+02 0.  0.
        254    2    1    2    0    0  0.22595771071E+03  0.31536273381E+02 -0.81303475989E+03  0.12313593649E+04  0.89619693212E+03 0.  0.
        -24    2    4    4    0    0  0.33900435627E+03  0.31263863545E+03 -0.14066319742E+03  0.48955895730E+03  0.84940965482E+02 0.  0.
         24    2    4    4    0    0 -0.11304664557E+03 -0.28110236207E+03 -0.67237156247E+03  0.74180040759E+03  0.79913982814E+02 0.  0.
         11    1    3    3    0    0 -0.64535469579E+02  0.55946908748E+01 -0.46925339323E+02  0.79988217072E+02  0.00000000000E+00 0.  1.
        -11    1    3    3    0    0 -0.16142224113E+03 -0.37130964255E+02 -0.34785653701E+03  0.38527914397E+03  0.00000000000E+00 0. -1.
          4    1    6    6  502    0 -0.55037161281E+02 -0.10684731615E+03 -0.18140810668E+03  0.21761052194E+03  0.00000000000E+00 0. -1.
          1    1    5    5  503    0  0.21930846050E+02  0.15828988930E+01  0.41449723900E+01  0.22375173150E+02  0.00000000000E+00 0. -1.
         -2    1    5    5    0  503  0.31707351022E+03  0.31105573655E+03 -0.14480816981E+03  0.46718378415E+03  0.00000000000E+00 0.  1.
         -3    1    6    6    0  502 -0.58009484286E+02 -0.17425504591E+03 -0.49096345579E+03  0.52418988565E+03  0.00000000000E+00 0.  1.
<mgrwt>
<rscale>  0 0.11915205E+04</rscale>
<asrwt>0</asrwt>
<pdfrwt beam="1">  1        2 0.22341872E+00 0.11915205E+04</pdfrwt>
<pdfrwt beam="2">  1       -2 0.37600775E-01 0.11915205E+04</pdfrwt>
<totfact> 0.88946263E+01</totfact>
</mgrwt>
</event>
<event>
12    1  0.1496989E-007  0.1862094E+04  0.7818608E-02  0.8673958E-01
         -2   -1    0    0    0  501 -0.00000000000E+00  0.00000000000E+00  0.12030927620E+04  0.12030927620E+04  0.00000000000E+00 0.  1.
          2   -1    0    0  501    0  0.00000000000E+00 -0.00000000000E+00 -0.72051702245E+03  0.72051702245E+03  0.00000000000E+00 0. -1.
         23    2    1    2    0    0  0.77037430713E+02 -0.69690599703E+03  0.85819597377E+02  0.71168387889E+03  0.86696053794E+02 0.  0.
        254    2    1    2    0    0 -0.77037430713E+02  0.69690599703E+03  0.39675614213E+03  0.12119259055E+04  0.90539285933E+03 0.  0.
        -24    2    4    4    0    0 -0.53117917054E+02  0.71649419032E+03 -0.80658332134E+02  0.72743463184E+03  0.80435932146E+02 0.  0.
         24    2    4    4    0    0 -0.23919513659E+02 -0.19588193294E+02  0.47741447427E+03  0.48449127368E+03  0.76494271568E+02 0.  0.
         11    1    3    3    0    0  0.95215677353E+02 -0.56864868134E+03  0.79156962190E+02  0.58197351543E+03  0.00000000000E+00 0. -1.
        -11    1    3    3    0    0 -0.18178246640E+02 -0.12825731570E+03  0.66626351877E+01  0.12971036346E+03  0.00000000000E+00 0.  1.
          2    1    6    6  502    0  0.13111454484E+02  0.29925880182E+01  0.15401091285E+02  0.20446501767E+02  0.00000000000E+00 0. -1.
          3    1    5    5  503    0 -0.81098725488E+00 -0.21596290516E+01 -0.91072633899E+00  0.24801452442E+01  0.00000000000E+00 0. -1.
         -4    1    5    5    0  503 -0.52306929799E+02  0.71865381938E+03 -0.79747605795E+02  0.72495448660E+03  0.00000000000E+00 0.  1.
         -1    1    6    6    0  502 -0.37030968143E+02 -0.22580781312E+02  0.46201338298E+03  0.46404477192E+03  0.00000000000E+00 0.  1.
<mgrwt>
<rscale>  0 0.18620943E+04</rscale>
<asrwt>0</asrwt>
<pdfrwt beam="1">  1        2 0.11084877E+00 0.18620943E+04</pdfrwt>
<pdfrwt beam="2">  1       -2 0.18509119E+00 0.18620943E+04</pdfrwt>
<totfact> 0.62028271E+00</totfact>
</mgrwt>
</event>
<event>
12    1  0.1496989E-007  0.1231263E+04  0.7818608E-02  0.9085923E-01
         -1   -1    0    0    0  501 -0.00000000000E+00  0.00000000000E+00  0.12563004354E+03  0.12563004354E+03  0.00000000000E+00 0.  1.
          1   -1    0    0  501    0  0.00000000000E+00 -0.00000000000E+00 -0.30168130453E+04  0.30168130453E+04  0.00000000000E+00 0. -1.
         23    2    1    2    0    0  0.16108053662E+03  0.19924906488E+03 -0.41915058411E+03  0.49904179976E+03  0.87797361066E+02 0.  0.
        254    2    1    2    0    0 -0.16108053662E+03 -0.19924906488E+03 -0.24720324177E+04  0.26434012891E+04  0.90054370917E+03 0.  0.
        -24    2    4    4    0    0 -0.38457784137E+02 -0.19273761840E+03 -0.24877353241E+04  0.24966413334E+04  0.75921761506E+02 0.  0.
         24    2    4    4    0    0 -0.12262275248E+03 -0.65114464765E+01  0.15702906445E+02  0.14675995575E+03  0.78823632116E+02 0.  0.
         13    1    3    3    0    0  0.77847934742E+02  0.86298471764E+02 -0.27165366712E+03  0.29547155875E+03  0.00000000000E+00 0. -1.
        -13    1    3    3    0    0  0.83232601877E+02  0.11295059312E+03 -0.14749691700E+03  0.20357024101E+03  0.00000000000E+00 0.  1.
          2    1    6    6  502    0 -0.12557997507E+03 -0.19846480461E+02  0.25855586993E+02  0.12974098930E+03  0.00000000000E+00 0. -1.
          1    1    5    5  503    0 -0.26852611436E+00 -0.14107640663E+03 -0.19466782751E+04  0.19517835257E+04  0.00000000000E+00 0. -1.
         -2    1    5    5    0  503 -0.38189258023E+02 -0.51661211769E+02 -0.54105704906E+03  0.54485780766E+03  0.00000000000E+00 0.  1.
         -1    1    6    6    0  502  0.29572225894E+01  0.13335033984E+02 -0.10152680548E+02  0.17018966452E+02  0.00000000000E+00 0.  1.
<mgrwt>
<rscale>  0 0.12312633E+04</rscale>
<asrwt>0</asrwt>
<pdfrwt beam="1">  1        1 0.46412503E+00 0.12312633E+04</pdfrwt>
<pdfrwt beam="2">  1       -1 0.19327701E-01 0.12312633E+04</pdfrwt>
<totfact> 0.12582434E+01</totfact>
</mgrwt>
</event>
<event>
12    1  0.1496989E-007  0.1404563E+04  0.7818608E-02  0.8950522E-01
          1   -1    0    0  501    0  0.00000000000E+00  0.00000000000E+00  0.26903243104E+04  0.26903243104E+04  0.00000000000E+00 0. -1.
         -1   -1    0    0    0  501 -0.00000000000E+00 -0.00000000000E+00 -0.18332332008E+03  0.18332332008E+03  0.00000000000E+00 0.  1.
         23    2    1    2    0    0  0.15331439370E+02  0.31118333849E+03  0.13384090131E+04  0.13773266359E+04  0.92843160044E+02 0.  0.
        254    2    1    2    0    0 -0.15331439370E+02 -0.31118333849E+03  0.11685919772E+04  0.14963209946E+04  0.88107842243E+03 0.  0.
        -24    2    4    4    0    0 -0.40894188954E+03 -0.28462594546E+03  0.82408114041E+03  0.96637798063E+03  0.80816320237E+02 0.  0.
         24    2    4    4    0    0  0.39361045017E+03 -0.26557393027E+02  0.34451083679E+03  0.52994301396E+03  0.80730414123E+02 0.  0.
         13    1    3    3    0    0 -0.17181461706E+01  0.33931916715E+02  0.31716732399E+03  0.31898187786E+03  0.00000000000E+00 0.  1.
        -13    1    3    3    0    0  0.17049585541E+02  0.27725142177E+03  0.10212416891E+04  0.10583447580E+04  0.00000000000E+00 0. -1.
          2    1    6    6  502    0  0.17699453630E+03  0.21592320365E+01  0.10532988961E+03  0.20597600299E+03  0.00000000000E+00 0. -1.
          3    1    5    5  503    0 -0.22205445177E+03 -0.16791551560E+03  0.53279319111E+03  0.60114256581E+03  0.00000000000E+00 0. -1.
         -4    1    5    5    0  503 -0.18688743777E+03 -0.11671042986E+03  0.29128794930E+03  0.36523541482E+03  0.00000000000E+00 0.  1.
         -1    1    6    6    0  502  0.21661591387E+03 -0.28716625064E+02  0.23918094719E+03  0.32396701096E+03  0.00000000000E+00 0.  1.
<mgrwt>
<rscale>  0 0.14045628E+04</rscale>
<asrwt>0</asrwt>
<pdfrwt beam="1">  1        1 0.41389602E+00 0.14045628E+04</pdfrwt>
<pdfrwt beam="2">  1       -1 0.28203590E-01 0.14045628E+04</pdfrwt>
<totfact> 0.11102003E+01</totfact>
</mgrwt>
</event>
<event>
12    1  0.1496989E-007  0.2560081E+04  0.7818608E-02  0.8381889E-01
          2   -1    0    0  501    0  0.00000000000E+00  0.00000000000E+00  0.87480730630E+03  0.87480730630E+03  0.00000000000E+00 0.  1.
         -2   -1    0    0    0  501 -0.00000000000E+00 -0.00000000000E+00 -0.18729880119E+04  0.18729880119E+04  0.00000000000E+00 0. -1.
         23    2    1    2    0    0 -0.29279123196E+03 -0.66166965168E+03 -0.13712752073E+04  0.15531250465E+04  0.90930095961E+02 0.  0.
        254    2    1    2    0    0  0.29279123196E+03  0.66166965168E+03  0.37309450170E+03  0.11946702717E+04  0.87435926110E+03 0.  0.
        -24    2    4    4    0    0 -0.15550668990E+03  0.34358907171E+03 -0.16637892523E+03  0.42043419989E+03  0.82747742437E+02 0.  0.
         24    2    4    4    0    0  0.44829792186E+03  0.31808057998E+03  0.53947342693E+03  0.77423607183E+03  0.79143126430E+02 0.  0.
         11    1    3    3    0    0 -0.23795503687E+03 -0.50274195638E+03 -0.97187237122E+03  0.11197803268E+04  0.00000000000E+00 0. -1.
        -11    1    3    3    0    0 -0.54836195093E+02 -0.15892769530E+03 -0.39940283609E+03  0.43334471971E+03  0.00000000000E+00 0.  1.
          2    1    6    6  502    0  0.29071151989E+03  0.16302138272E+03  0.30180463760E+03  0.44963896439E+03  0.00000000000E+00 0. -1.
          3    1    5    5  503    0 -0.15387691302E+03  0.27323406072E+03 -0.15252246937E+03  0.34870913375E+03  0.00000000000E+00 0. -1.
         -4    1    5    5    0  503 -0.16297768767E+01  0.70355010989E+02 -0.13856455854E+02  0.71725066140E+02  0.00000000000E+00 0.  1.
         -1    1    6    6    0  502  0.15758640198E+03  0.15505919725E+03  0.23766878933E+03  0.32459710744E+03  0.00000000000E+00 0.  1.
<mgrwt>
<rscale>  0 0.25600809E+04</rscale>
<asrwt>0</asrwt>
<pdfrwt beam="1">  1        2 0.13458574E+00 0.25600809E+04</pdfrwt>
<pdfrwt beam="2">  1       -2 0.28815200E+00 0.25600809E+04</pdfrwt>
<totfact> 0.10167618E+00</totfact>
</mgrwt>
</event>
<event>
12    1  0.1496989E-007  0.1585522E+04  0.7818608E-02  0.8829492E-01
          2   -1    0    0  501    0  0.00000000000E+00  0.00000000000E+00  0.16509674708E+04  0.16509674708E+04  0.00000000000E+00 0. -1.
         -2   -1    0    0    0  501 -0.00000000000E+00 -0.00000000000E+00 -0.38066756162E+03  0.38066756162E+03  0.00000000000E+00 0.  1.
         23    2    1    2    0    0  0.12432846696E+03 -0.26119256179E+03  0.10025051802E+04  0.10471956792E+04  0.89011416389E+02 0.  0.
        254    2    1    2    0    0 -0.12432846696E+03  0.26119256179E+03  0.26779472904E+03  0.98443935324E+03  0.90206856795E+03 0.  0.
        -24    2    4    4    0    0 -0.32936425400E+03  0.20257548936E+03  0.51438176733E+03  0.64865560806E+03  0.81534376803E+02 0.  0.
         24    2    4    4    0    0  0.20503578704E+03  0.58617072428E+02 -0.24658703829E+03  0.33578374518E+03  0.80435818691E+02 0.  0.
         11    1    3    3    0    0  0.61870206142E+02 -0.17558198724E+03  0.76141445721E+03  0.78384241548E+03  0.00000000000E+00 0. -1.
        -11    1    3    3    0    0  0.62458260817E+02 -0.85610574547E+02  0.24109072294E+03  0.26335326371E+03  0.00000000000E+00 0.  1.
          2    1    6    6  502    0  0.14603773205E+03  0.67186675708E+02 -0.21458907501E+03  0.26812224766E+03  0.00000000000E+00 0. -1.
          1    1    5    5  503    0 -0.31784229248E+03  0.20689194950E+03  0.51008808070E+03  0.63562398613E+03  0.00000000000E+00 0. -1.
         -2    1    5    5    0  503 -0.11521961517E+02 -0.43164601425E+01  0.42936866241E+01  0.13031621932E+02  0.00000000000E+00 0.  1.
         -1    1    6    6    0  502  0.58998054991E+02 -0.85696032808E+01 -0.31997963275E+02  0.67661497521E+02  0.00000000000E+00 0.  1.
<mgrwt>
<rscale>  0 0.15855217E+04</rscale>
<asrwt>0</asrwt>
<pdfrwt beam="1">  1        2 0.25399499E+00 0.15855217E+04</pdfrwt>
<pdfrwt beam="2">  1       -2 0.58564241E-01 0.15855217E+04</pdfrwt>
<totfact> 0.27326009E+01</totfact>
</mgrwt>
</event>
<event>
12    1  0.1496989E-007  0.1075591E+04  0.7818608E-02  0.9229315E-01
          2   -1    0    0  501    0  0.00000000000E+00  0.00000000000E+00  0.94681451868E+03  0.94681451868E+03  0.00000000000E+00 0.  1.
         -2   -1    0    0    0  501 -0.00000000000E+00 -0.00000000000E+00 -0.30547063331E+03  0.30547063331E+03  0.00000000000E+00 0. -1.
         23    2    1    2    0    0 -0.34019343950E+02  0.10671342028E+03  0.55771835504E+01  0.14483174193E+03  0.91651833941E+02 0.  0.
        254    2    1    2    0    0  0.34019343950E+02 -0.10671342028E+03  0.63576670182E+03  0.11074534101E+04  0.89983814460E+03 0.  0.
        -24    2    4    4    0    0  0.26835105856E+02 -0.49316269644E+03  0.26473324001E+03  0.56616015946E+03  0.80771713690E+02 0.  0.
         24    2    4    4    0    0  0.71842380933E+01  0.38644927615E+03  0.37103346181E+03  0.54129325059E+03  0.77057751334E+02 0.  0.
         11    1    3    3    0    0 -0.22458973325E+02  0.11515506573E+03 -0.16541626203E+02  0.11848510473E+03  0.00000000000E+00 0. -1.
        -11    1    3    3    0    0 -0.11560370625E+02 -0.84416454505E+01  0.22118809753E+02  0.26346637201E+02  0.00000000000E+00 0.  1.
          2    1    6    6  502    0 -0.42710669810E+01  0.24315672277E+03  0.28123001452E+03  0.37179800283E+03  0.00000000000E+00 0. -1.
          1    1    5    5  503    0  0.78874715973E+01 -0.17700389724E+03  0.52108573073E+02  0.18468322943E+03  0.00000000000E+00 0. -1.
         -2    1    5    5    0  503  0.18947634259E+02 -0.31615879920E+03  0.21262466694E+03  0.38147693003E+03  0.00000000000E+00 0.  1.
         -1    1    6    6    0  502  0.11455305074E+02  0.14329255339E+03  0.89803447287E+02  0.16949524777E+03  0.00000000000E+00 0.  1.
<mgrwt>
<rscale>  0 0.10755911E+04</rscale>
<asrwt>0</asrwt>
<pdfrwt beam="1">  1        2 0.14566377E+00 0.10755911E+04</pdfrwt>
<pdfrwt beam="2">  1       -2 0.46995482E-01 0.10755911E+04</pdfrwt>
<totfact> 0.11638176E+02</totfact>
</mgrwt>
</event>
<event>
12    1  0.1496989E-007  0.2149484E+04  0.7818608E-02  0.8539753E-01
         -1   -1    0    0    0  501 -0.00000000000E+00  0.00000000000E+00  0.30089979757E+03  0.30089979757E+03  0.00000000000E+00 0.  1.
          1   -1    0    0  501    0  0.00000000000E+00 -0.00000000000E+00 -0.38387193803E+04  0.38387193803E+04  0.00000000000E+00 0. -1.
         23    2    1    2    0    0 -0.23329991377E+03  0.62960155935E+03 -0.35861538590E+03  0.76668925256E+03  0.91544752313E+02 0.  0.
        254    2    1    2    0    0  0.23329991377E+03 -0.62960155935E+03 -0.31792041969E+04  0.33729299254E+04  0.90470436204E+03 0.  0.
        -24    2    4    4    0    0 -0.23586133396E+03 -0.47600536104E+03 -0.97880137366E+03  0.11164680963E+04  0.78975998248E+02 0.  0.
         24    2    4    4    0    0  0.46916124773E+03 -0.15359619832E+03 -0.22004028232E+04  0.22564618291E+04  0.78379418737E+02 0.  0.
         13    1    3    3    0    0 -0.22590150890E+03  0.60800327100E+03 -0.36323389524E+03  0.74339648366E+03  0.00000000000E+00 0.  1.
        -13    1    3    3    0    0 -0.73984048689E+01  0.21598288350E+02  0.46185093350E+01  0.23292768894E+02  0.00000000000E+00 0. -1.
          4    1    6    6  502    0  0.36075904921E+02 -0.10796968096E+00 -0.25466917651E+03  0.25721172609E+03  0.00000000000E+00 0. -1.
          1    1    5    5  503    0 -0.85365973734E+02 -0.10008260117E+03 -0.21781784614E+03  0.25445724714E+03  0.00000000000E+00 0. -1.
         -2    1    5    5    0  503 -0.15049536022E+03 -0.37592275987E+03 -0.76098352752E+03  0.86201084912E+03  0.00000000000E+00 0.  1.
         -3    1    6    6    0  502  0.43308534281E+03 -0.15348822864E+03 -0.19457336467E+04  0.19992501030E+04  0.00000000000E+00 0.  1.
<mgrwt>
<rscale>  0 0.21494836E+04</rscale>
<asrwt>0</asrwt>
<pdfrwt beam="1">  1        1 0.59057221E+00 0.21494836E+04</pdfrwt>
<pdfrwt beam="2">  1       -1 0.46292277E-01 0.21494836E+04</pdfrwt>
<totfact> 0.56513553E-01</totfact>
</mgrwt>
</event>
<event>
12    1  0.1496989E-007  0.1334257E+04  0.7818608E-02  0.9002832E-01
          2   -1    0    0  501    0  0.00000000000E+00  0.00000000000E+00  0.25816961892E+03  0.25816961892E+03  0.00000000000E+00 0. -1.
         -2   -1    0    0    0  501 -0.00000000000E+00 -0.00000000000E+00 -0.17239071142E+04  0.17239071142E+04  0.00000000000E+00 0.  1.
         23    2    1    2    0    0  0.21383415367E+03  0.22651480493E+03 -0.66315659409E+03  0.73844688141E+03  0.92158158854E+02 0.  0.
        254    2    1    2    0    0 -0.21383415367E+03 -0.22651480493E+03 -0.80258090117E+03  0.12436298517E+04  0.89746593416E+03 0.  0.
        -24    2    4    4    0    0 -0.21008940565E+03  0.31760454396E+03 -0.24423704202E+03  0.45963011930E+03  0.81227514788E+02 0.  0.
         24    2    4    4    0    0 -0.37447480130E+01 -0.54411934889E+03 -0.55834385915E+03  0.78399973240E+03  0.82630662446E+02 0.  0.
         11    1    3    3    0    0  0.67625163340E+01  0.42577493641E+02 -0.14013542455E+03  0.14661688786E+03  0.00000000000E+00 0. -1.
        -11    1    3    3    0    0  0.20707163733E+03  0.18393731129E+03 -0.52302116955E+03  0.59182999355E+03  0.00000000000E+00 0.  1.
          2    1    6    6  502    0  0.33379790015E+02 -0.11950523192E+03 -0.13064229655E+03  0.18017524937E+03  0.00000000000E+00 0. -1.
          3    1    5    5  503    0 -0.34959086710E+02  0.23531193223E+02 -0.59002070249E+01  0.42551935809E+02  0.00000000000E+00 0. -1.
         -4    1    5    5    0  503 -0.17513031894E+03  0.29407335074E+03 -0.23833683500E+03  0.41707818349E+03  0.00000000000E+00 0.  1.
         -1    1    6    6    0  502 -0.37124538028E+02 -0.42461411697E+03 -0.42770156260E+03  0.60382448303E+03  0.00000000000E+00 0.  1.
<mgrwt>
<rscale>  0 0.13342570E+04</rscale>
<asrwt>0</asrwt>
<pdfrwt beam="1">  1        2 0.39718403E-01 0.13342570E+04</pdfrwt>
<pdfrwt beam="2">  1       -2 0.26521648E+00 0.13342570E+04</pdfrwt>
<totfact> 0.65994823E+00</totfact>
</mgrwt>
</event>
<event>
12    1  0.1496989E-007  0.2430003E+04  0.7818608E-02  0.8428356E-01
         -2   -1    0    0    0  501 -0.00000000000E+00  0.00000000000E+00  0.12302720906E+04  0.12302720906E+04  0.00000000000E+00 0.  1.
          2   -1    0    0  501    0  0.00000000000E+00 -0.00000000000E+00 -0.11999203539E+04  0.11999203539E+04  0.00000000000E+00 0. -1.
         23    2    1    2    0    0 -0.98335698238E+03  0.96843461299E+02 -0.32212920705E+03  0.10432676636E+04  0.90942735200E+02 0.  0.
        254    2    1    2    0    0  0.98335698238E+03 -0.96843461299E+02  0.35248094380E+03  0.13869247809E+04  0.90716477073E+03 0.  0.
        -24    2    4    4    0    0  0.11275712717E+04 -0.33394055847E+02  0.18977870220E+03  0.11466907044E+04  0.79696172755E+02 0.  0.
         24    2    4    4    0    0 -0.14421428935E+03 -0.63449405452E+02  0.16270224160E+03  0.24023407647E+03  0.80104954736E+02 0.  0.
         13    1    3    3    0    0 -0.58577638304E+03  0.40903089383E+02 -0.14754467783E+03  0.60545558516E+03  0.00000000000E+00 0. -1.
        -13    1    3    3    0    0 -0.39758059934E+03  0.55940371917E+02 -0.17458452923E+03  0.43781207844E+03  0.00000000000E+00 0.  1.
          2    1    6    6  502    0 -0.83646113118E+02 -0.14824372327E+02  0.13145047045E+03  0.15651089559E+03  0.00000000000E+00 0. -1.
          1    1    5    5  503    0  0.88936608692E+03 -0.57645593420E+02  0.14057279095E+03  0.90225038684E+03  0.00000000000E+00 0. -1.
         -2    1    5    5    0  503  0.23820518481E+03  0.24251537572E+02  0.49205911253E+02  0.24444031755E+03  0.00000000000E+00 0.  1.
         -1    1    6    6    0  502 -0.60568176227E+02 -0.48625033125E+02  0.31251771145E+02  0.83723180886E+02  0.00000000000E+00 0.  1.
<mgrwt>
<rscale>  0 0.24300029E+04</rscale>
<asrwt>0</asrwt>
<pdfrwt beam="1">  1        2 0.18460313E+00 0.24300029E+04</pdfrwt>
<pdfrwt beam="2">  1       -2 0.18927263E+00 0.24300029E+04</pdfrwt>
<totfact> 0.26635844E+00</totfact>
</mgrwt>
</event>
<event>
12    1  0.1496989E-007  0.1780694E+04  0.7818608E-02  0.8716634E-01
         -1   -1    0    0    0  501 -0.00000000000E+00  0.00000000000E+00  0.49719435702E+03  0.49719435702E+03  0.00000000000E+00 0.  1.
          1   -1    0    0  501    0  0.00000000000E+00 -0.00000000000E+00 -0.15943815221E+04  0.15943815221E+04  0.00000000000E+00 0. -1.
         23    2    1    2    0    0 -0.60921601823E+03  0.14262677788E+03 -0.62757915180E+03  0.89091081899E+03  0.91542017494E+02 0.  0.
        254    2    1    2    0    0  0.60921601823E+03 -0.14262677788E+03 -0.46960801330E+03  0.12006650601E+04  0.91081191575E+03 0.  0.
        -24    2    4    4    0    0 -0.97369526817E+00  0.18221695401E+03  0.16552453294E+03  0.25828051752E+03  0.78144022904E+02 0.  0.
         24    2    4    4    0    0  0.61018971350E+03 -0.32484373189E+03 -0.63513254623E+03  0.94238454263E+03  0.82706337654E+02 0.  0.
         13    1    3    3    0    0 -0.41824013101E+03  0.68135483174E+02 -0.37715253602E+03  0.56728413223E+03  0.00000000000E+00 0.  1.
        -13    1    3    3    0    0 -0.19097588723E+03  0.74491294702E+02 -0.25042661578E+03  0.32362668676E+03  0.00000000000E+00 0. -1.
          2    1    6    6  502    0  0.22427314132E+03 -0.78515650968E+02 -0.19648473446E+03  0.30833326166E+03  0.00000000000E+00 0. -1.
          1    1    5    5  503    0 -0.10114600279E+02  0.22121343040E+02 -0.43113227415E+01  0.24703167013E+02  0.00000000000E+00 0. -1.
         -2    1    5    5    0  503  0.91409050103E+01  0.16009561097E+03  0.16983585568E+03  0.23357735051E+03  0.00000000000E+00 0.  1.
         -1    1    6    6    0  502  0.38591657218E+03 -0.24632808092E+03 -0.43864781177E+03  0.63405128097E+03  0.00000000000E+00 0.  1.
<mgrwt>
<rscale>  0 0.17806937E+04</rscale>
<asrwt>0</asrwt>
<pdfrwt beam="1">  1        1 0.24528946E+00 0.17806937E+04</pdfrwt>
<pdfrwt beam="2">  1       -1 0.76491440E-01 0.17806937E+04</pdfrwt>
<totfact> 0.91277389E+00</totfact>
</mgrwt>
</event>
<event>
12    1  0.1496989E-007  0.1333995E+04  0.7818608E-02  0.9003033E-01
          2   -1    0    0  501    0  0.00000000000E+00  0.00000000000E+00  0.13131707394E+04  0.13131707394E+04  0.00000000000E+00 0. -1.
         -2   -1    0    0    0  501 -0.00000000000E+00 -0.00000000000E+00 -0.33878734597E+03  0.33878734597E+03  0.00000000000E+00 0.  1.
         23    2    1    2    0    0  0.34382659262E+03 -0.42337897634E+02  0.36879417681E+03  0.51411568169E+03  0.91085486949E+02 0.  0.
        254    2    1    2    0    0 -0.34382659262E+03  0.42337897634E+02  0.60558921657E+03  0.11378424036E+04  0.89885361039E+03 0.  0.
        -24    2    4    4    0    0 -0.50843524053E+03 -0.11346919552E+03  0.70180537797E+03  0.87760012202E+03  0.79180385695E+02 0.  0.
         24    2    4    4    0    0  0.16460864791E+03  0.15580709315E+03 -0.96216161398E+02  0.26024228162E+03  0.84241546654E+02 0.  0.
         11    1    3    3    0    0  0.24727712283E+03  0.10958281363E+02  0.26612125686E+03  0.36343717856E+03  0.00000000000E+00 0. -1.
        -11    1    3    3    0    0  0.96549469791E+02 -0.53296178997E+02  0.10267291996E+03  0.15067850313E+03  0.00000000000E+00 0.  1.
          2    1    6    6  502    0  0.54302406440E+02  0.24298228011E+02  0.70824875045E+01  0.59910907679E+02  0.00000000000E+00 0. -1.
          1    1    5    5  503    0 -0.49342075328E+03 -0.10076591031E+03  0.65053427318E+03  0.82268623972E+03  0.00000000000E+00 0. -1.
         -2    1    5    5    0  503 -0.15014487248E+02 -0.12703285214E+02  0.51271104791E+02  0.54913882298E+02  0.00000000000E+00 0.  1.
         -1    1    6    6    0  502  0.11030624147E+03  0.13150886514E+03 -0.10329864890E+03  0.20033137394E+03  0.00000000000E+00 0.  1.
<mgrwt>
<rscale>  0 0.13339949E+04</rscale>
<asrwt>0</asrwt>
<pdfrwt beam="1">  1        2 0.20202627E+00 0.13339949E+04</pdfrwt>
<pdfrwt beam="2">  1       -2 0.52121131E-01 0.13339949E+04</pdfrwt>
<totfact> 0.55180402E+01</totfact>
</mgrwt>
</event>
<event>
12    1  0.1496989E-007  0.1769607E+04  0.7818608E-02  0.8722631E-01
         -1   -1    0    0    0  501 -0.00000000000E+00  0.00000000000E+00  0.11242721805E+04  0.11242721805E+04  0.00000000000E+00 0.  1.
          1   -1    0    0  501    0  0.00000000000E+00 -0.00000000000E+00 -0.69634102935E+03  0.69634102935E+03  0.00000000000E+00 0. -1.
         23    2    1    2    0    0  0.27648391715E+03  0.50355432479E+03  0.50001601217E+03  0.76722658836E+03  0.92791761492E+02 0.  0.
        254    2    1    2    0    0 -0.27648391715E+03 -0.50355432479E+03 -0.72084860967E+02  0.10533866215E+04  0.88000956403E+03 0.  0.
        -24    2    4    4    0    0 -0.11835660524E+03 -0.56037485224E+03 -0.38125442565E+03  0.69273228306E+03  0.80590433003E+02 0.  0.
         24    2    4    4    0    0 -0.15812731191E+03  0.56820527450E+02  0.30916956468E+03  0.36065433847E+03  0.79075362920E+02 0.  0.
         13    1    3    3    0    0  0.54240724271E+01  0.70856848503E+02  0.68752284207E+02  0.98878663650E+02  0.00000000000E+00 0. -1.
        -13    1    3    3    0    0  0.27105984472E+03  0.43269747629E+03  0.43126372796E+03  0.66834792471E+03  0.00000000000E+00 0.  1.
          2    1    6    6  502    0 -0.90885346199E+02  0.71348278867E+02  0.21433414603E+03  0.24349507019E+03  0.00000000000E+00 0. -1.
          1    1    5    5  503    0 -0.94913542153E+02 -0.48440539114E+03 -0.29333918437E+03  0.57419947800E+03  0.00000000000E+00 0. -1.
         -2    1    5    5    0  503 -0.23443063088E+02 -0.75969461108E+02 -0.87915241278E+02  0.11853280507E+03  0.00000000000E+00 0.  1.
         -1    1    6    6    0  502 -0.67241965710E+02 -0.14527751417E+02  0.94835418646E+02  0.11715926828E+03  0.00000000000E+00 0.  1.
<mgrwt>
<rscale>  0 0.17696066E+04</rscale>
<asrwt>0</asrwt>
<pdfrwt beam="1">  1        1 0.10712939E+00 0.17696066E+04</pdfrwt>
<pdfrwt beam="2">  1       -1 0.17296495E+00 0.17696066E+04</pdfrwt>
<totfact> 0.60804595E+00</totfact>
</mgrwt>
</event>
<event>
12    1  0.1496989E-007  0.1342250E+04  0.7818608E-02  0.8996716E-01
         -1   -1    0    0    0  501 -0.00000000000E+00  0.00000000000E+00  0.11008964682E+04  0.11008964682E+04  0.00000000000E+00 0.  1.
          1   -1    0    0  501    0  0.00000000000E+00 -0.00000000000E+00 -0.40912901676E+03  0.40912901676E+03  0.00000000000E+00 0. -1.
         23    2    1    2    0    0  0.56351389361E+02 -0.24155930100E+02 -0.18923775821E+03  0.21947388777E+03  0.92730093500E+02 0.  0.
        254    2    1    2    0    0 -0.56351389361E+02  0.24155930100E+02  0.88100520961E+03  0.12905515972E+04  0.94106017742E+03 0.  0.
        -24    2    4    4    0    0  0.96662288188E+02 -0.20161016753E+03 -0.10901536856E+03  0.26062805418E+03  0.77797007866E+02 0.  0.
         24    2    4    4    0    0 -0.15301367755E+03  0.22576609763E+03  0.99002057817E+03  0.10299235430E+04  0.78855835722E+02 0.  0.
         11    1    3    3    0    0  0.59467227348E+02 -0.54438895924E+02 -0.13312063441E+03  0.15563112743E+03  0.00000000000E+00 0. -1.
        -11    1    3    3    0    0 -0.31158379865E+01  0.30282965824E+02 -0.56117123799E+02  0.63842760348E+02  0.00000000000E+00 0.  1.
          2    1    6    6  502    0  0.94918226015E+01  0.12107268454E+02  0.59588932583E+02  0.61542843062E+02  0.00000000000E+00 0. -1.
          3    1    5    5  503    0  0.24468103616E+01 -0.24613777917E+02 -0.42861758804E+02  0.49486920616E+02  0.00000000000E+00 0. -1.
         -4    1    5    5    0  503  0.94215477827E+02 -0.17699638961E+03 -0.66153609758E+02  0.21114113356E+03  0.00000000000E+00 0.  1.
         -1    1    6    6    0  502 -0.16250550015E+03  0.21365882917E+03  0.93043164559E+03  0.96838069992E+03  0.00000000000E+00 0.  1.
<mgrwt>
<rscale>  0 0.13422499E+04</rscale>
<asrwt>0</asrwt>
<pdfrwt beam="1">  1        1 0.62942926E-01 0.13422499E+04</pdfrwt>
<pdfrwt beam="2">  1       -1 0.16936869E+00 0.13422499E+04</pdfrwt>
<totfact> 0.14179290E+01</totfact>
</mgrwt>
</event>
<event>
12    1  0.1496989E-007  0.2002609E+04  0.7818608E-02  0.8605402E-01
         -1   -1    0    0    0  501 -0.00000000000E+00  0.00000000000E+00  0.40875824802E+03  0.40875824802E+03  0.00000000000E+00 0.  1.
          1   -1    0    0  501    0  0.00000000000E+00 -0.00000000000E+00 -0.24528209216E+04  0.24528209216E+04  0.00000000000E+00 0. -1.
         23    2    1    2    0    0 -0.18250038984E+03 -0.11418499279E+03  0.27718385776E+03  0.36262387901E+03  0.91217222919E+02 0.  0.
        254    2    1    2    0    0  0.18250038984E+03  0.11418499279E+03 -0.23212465314E+04  0.24989552906E+04  0.90013747857E+03 0.  0.
        -24    2    4    4    0    0 -0.27294937922E+03 -0.16137675764E+03 -0.13450249601E+04  0.13842294957E+04  0.80345081428E+02 0.  0.
         24    2    4    4    0    0  0.45544976906E+03  0.27556175043E+03 -0.97622157129E+03  0.11147257949E+04  0.78970064712E+02 0.  0.
         13    1    3    3    0    0 -0.62985769127E+02  0.54006810249E+01  0.94655602616E+02  0.11382467911E+03  0.00000000000E+00 0. -1.
        -13    1    3    3    0    0 -0.11951462072E+03 -0.11958567381E+03  0.18252825515E+03  0.24879919990E+03  0.00000000000E+00 0.  1.
          4    1    6    6  502    0  0.24698277689E+02  0.22969494609E+02 -0.31488418619E+02  0.46142422027E+02  0.00000000000E+00 0. -1.
          3    1    5    5  503    0 -0.11791734170E+03 -0.46918249646E+02 -0.68460880104E+03  0.69627223992E+03  0.00000000000E+00 0. -1.
         -4    1    5    5    0  503 -0.15503203751E+03 -0.11445850800E+03 -0.66041615903E+03  0.68795725581E+03  0.00000000000E+00 0.  1.
         -3    1    6    6    0  502  0.43075149137E+03  0.25259225582E+03 -0.94473315267E+03  0.10685833729E+04  0.00000000000E+00 0.  1.
<mgrwt>
<rscale>  0 0.20026091E+04</rscale>
<asrwt>0</asrwt>
<pdfrwt beam="1">  1        1 0.37735706E+00 0.20026091E+04</pdfrwt>
<pdfrwt beam="2">  1       -1 0.62885884E-01 0.20026091E+04</pdfrwt>
<totfact> 0.34758496E+00</totfact>
</mgrwt>
</event>
<event>
12    1  0.1496989E-007  0.1243461E+04  0.7818608E-02  0.9075643E-01
          2   -1    0    0  501    0  0.00000000000E+00  0.00000000000E+00  0.13198025681E+04  0.13198025681E+04  0.00000000000E+00 0. -1.
         -2   -1    0    0    0  501 -0.00000000000E+00 -0.00000000000E+00 -0.29288371230E+03  0.29288371230E+03  0.00000000000E+00 0.  1.
         23    2    1    2    0    0  0.83850496844E+02  0.24445996030E+03  0.82666164920E+02  0.28610879357E+03  0.90735709195E+02 0.  0.
        254    2    1    2    0    0 -0.83850496844E+02 -0.24445996030E+03  0.94425269088E+03  0.13265774868E+04  0.89521120766E+03 0.  0.
        -24    2    4    4    0    0 -0.46993034577E+03 -0.16625715231E+03  0.37304358942E+03  0.62766798091E+03  0.79558808916E+02 0.  0.
         24    2    4    4    0    0  0.38607984893E+03 -0.78202807990E+02  0.57120910146E+03  0.69890950592E+03  0.83793382511E+02 0.  0.
         11    1    3    3    0    0  0.73993691298E+02  0.24993649757E+03  0.71610648449E+02  0.27031722872E+03  0.00000000000E+00 0.  1.
        -11    1    3    3    0    0  0.98568055463E+01 -0.54765372688E+01  0.11055516472E+02  0.15791564852E+02  0.00000000000E+00 0. -1.
          2    1    6    6  502    0  0.24785114313E+02 -0.19242322900E+02  0.82738244059E+02  0.88488337718E+02  0.00000000000E+00 0. -1.
          1    1    5    5  503    0 -0.40560243917E+03 -0.12020943116E+03  0.28952049575E+03  0.51262633903E+03  0.00000000000E+00 0. -1.
         -2    1    5    5    0  503 -0.64327906599E+02 -0.46047721151E+02  0.83523093671E+02  0.11504164188E+03  0.00000000000E+00 0.  1.
         -1    1    6    6    0  502  0.36129473461E+03 -0.58960485089E+02  0.48847085740E+03  0.61042116820E+03  0.00000000000E+00 0.  1.
<mgrwt>
<rscale>  0 0.12434608E+04</rscale>
<asrwt>0</asrwt>
<pdfrwt beam="1">  1        2 0.20304655E+00 0.12434608E+04</pdfrwt>
<pdfrwt beam="2">  1       -2 0.45059034E-01 0.12434608E+04</pdfrwt>
<totfact> 0.73951146E+01</totfact>
</mgrwt>
</event>
<event>
12    1  0.1496989E-007  0.1581837E+04  0.7818608E-02  0.8831784E-01
          1   -1    0    0  501    0  0.00000000000E+00  0.00000000000E+00  0.36869114694E+03  0.36869114694E+03  0.00000000000E+00 0. -1.
         -1   -1    0    0    0  501 -0.00000000000E+00 -0.00000000000E+00 -0.16966835800E+04  0.16966835800E+04  0.00000000000E+00 0.  1.
         23    2    1    2    0    0 -0.25684997646E+03  0.44210140115E+03 -0.26200206082E+03  0.58198159646E+03  0.92908231265E+02 0.  0.
        254    2    1    2    0    0  0.25684997646E+03 -0.44210140115E+03 -0.10659903722E+04  0.14833931305E+04  0.89593199885E+03 0.  0.
        -24    2    4    4    0    0  0.27112065855E+03 -0.14301254974E+03  0.53879751643E+02  0.32145395520E+03  0.80440144235E+02 0.  0.
         24    2    4    4    0    0 -0.14270682090E+02 -0.29908885141E+03 -0.11198701239E+04  0.11619391753E+04  0.79597482911E+02 0.  0.
         13    1    3    3    0    0 -0.20780972846E+03  0.33074435581E+03 -0.23965351423E+03  0.45826904655E+03  0.00000000000E+00 0.  1.
        -13    1    3    3    0    0 -0.49040247995E+02  0.11135704534E+03 -0.22348546597E+02  0.12371254991E+03  0.00000000000E+00 0. -1.
          4    1    6    6  502    0 -0.87859273015E+01 -0.15034087313E+03 -0.41385752513E+03  0.44040620086E+03  0.00000000000E+00 0. -1.
          1    1    5    5  503    0  0.68997922346E+02 -0.17510055150E+02 -0.17031639974E+02  0.73194207965E+02  0.00000000000E+00 0. -1.
         -2    1    5    5    0  503  0.20212273620E+03 -0.12550249459E+03  0.70911391617E+02  0.24825974724E+03  0.00000000000E+00 0.  1.
         -3    1    6    6    0  502 -0.54847547890E+01 -0.14874797828E+03 -0.70601259874E+03  0.72153297441E+03  0.00000000000E+00 0.  1.
<mgrwt>
<rscale>  0 0.15818372E+04</rscale>
<asrwt>0</asrwt>
<pdfrwt beam="1">  1        1 0.56721716E-01 0.15818372E+04</pdfrwt>
<pdfrwt beam="2">  1       -1 0.26102824E+00 0.15818372E+04</pdfrwt>
<totfact> 0.37989978E+00</totfact>
</mgrwt>
</event>
<event>
12    1  0.1496989E-007  0.1663036E+04  0.7818608E-02  0.8782732E-01
          1   -1    0    0  501    0  0.00000000000E+00  0.00000000000E+00  0.88266511066E+03  0.88266511066E+03  0.00000000000E+00 0. -1.
         -1   -1    0    0    0  501 -0.00000000000E+00 -0.00000000000E+00 -0.78333489039E+03  0.78333489039E+03  0.00000000000E+00 0.  1.
         23    2    1    2    0    0 -0.40982654050E+03  0.30276408249E+03  0.31900319363E+03  0.60773683112E+03  0.89202776943E+02 0.  0.
        254    2    1    2    0    0  0.40982654050E+03 -0.30276408249E+03 -0.21967297336E+03  0.10582631699E+04  0.90113308599E+03 0.  0.
        -24    2    4    4    0    0  0.81415866444E+02  0.28766342889E+03 -0.21687380199E+03  0.37801422347E+03  0.80509102140E+02 0.  0.
         24    2    4    4    0    0  0.32841067406E+03 -0.59042751138E+03 -0.27991713718E+01  0.68024894646E+03  0.79199600836E+02 0.  0.
         11    1    3    3    0    0 -0.35826917483E+03  0.23393540595E+03  0.23811044036E+03  0.48967250035E+03  0.00000000000E+00 0. -1.
        -11    1    3    3    0    0 -0.51557365666E+02  0.68828676540E+02  0.80892753275E+02  0.11806433077E+03  0.00000000000E+00 0.  1.
          2    1    6    6  502    0  0.10811853623E+01 -0.38670463583E+02 -0.11053074532E+01  0.38701361993E+02  0.00000000000E+00 0. -1.
          3    1    5    5  503    0  0.73115518858E+01  0.42267908274E+02 -0.71337466399E+02  0.83241029384E+02  0.00000000000E+00 0. -1.
         -4    1    5    5    0  503  0.74104314558E+02  0.24539552062E+03 -0.14553633559E+03  0.29477319408E+03  0.00000000000E+00 0.  1.
         -1    1    6    6    0  502  0.32732948870E+03 -0.55175704779E+03 -0.16938639185E+01  0.64154758447E+03  0.00000000000E+00 0.  1.
<mgrwt>
<rscale>  0 0.16630362E+04</rscale>
<asrwt>0</asrwt>
<pdfrwt beam="1">  1        1 0.13579463E+00 0.16630362E+04</pdfrwt>
<pdfrwt beam="2">  1       -1 0.12051306E+00 0.16630362E+04</pdfrwt>
<totfact> 0.10999969E+01</totfact>
</mgrwt>
</event>
<event>
12    1  0.2577337E-007  0.2332332E+04  0.7818608E-02  0.8465281E-01
         -1   -1    0    0    0  501 -0.00000000000E+00  0.00000000000E+00  0.69258517511E+03  0.69258517511E+03  0.00000000000E+00 0.  1.
          1   -1    0    0  501    0  0.00000000000E+00 -0.00000000000E+00 -0.19635751200E+04  0.19635751200E+04  0.00000000000E+00 0. -1.
         23    2    1    2    0    0 -0.75693768981E+03 -0.17759084282E+02  0.18580329953E+03  0.78491787084E+03  0.91121602907E+02 0.  0.
        254    2    1    2    0    0  0.75693768981E+03  0.17759084282E+02 -0.14567932444E+04  0.18712424243E+04  0.89779262755E+03 0.  0.
        -24    2    4    4    0    0 -0.83497292738E+02 -0.22750425402E+03 -0.14697387707E+03  0.29376029019E+03  0.77225669684E+02 0.  0.
         24    2    4    4    0    0  0.84043498255E+03  0.24526333830E+03 -0.13098193673E+04  0.15774821341E+04  0.79611828726E+02 0.  0.
         13    1    3    3    0    0 -0.22513926400E+03 -0.26242618622E+01  0.98628886311E+02  0.24580934107E+03  0.00000000000E+00 0. -1.
        -13    1    3    3    0    0 -0.53179842581E+03 -0.15134822420E+02  0.87174413216E+02  0.53910852976E+03  0.00000000000E+00 0.  1.
          4    1    6    6  502    0  0.14048025204E+02 -0.55533536679E+01 -0.16956734680E+02  0.22709416551E+02  0.00000000000E+00 0. -1.
          1    1    5    5  503    0 -0.30872433871E+02 -0.13027573200E+02 -0.19822056384E+02  0.38932489722E+02  0.00000000000E+00 0. -1.
         -2    1    5    5    0  503 -0.52624858867E+02 -0.21447668082E+03 -0.12715182069E+03  0.25482780047E+03  0.00000000000E+00 0.  1.
         -3    1    6    6    0  502  0.82638695734E+03  0.25081669197E+03 -0.12928626327E+04  0.15547727175E+04  0.00000000000E+00 0.  1.
<mgrwt>
<rscale>  0 0.23323319E+04</rscale>
<asrwt>0</asrwt>
<pdfrwt beam="1">  1        1 0.30208848E+00 0.23323319E+04</pdfrwt>
<pdfrwt beam="2">  1       -1 0.10655157E+00 0.23323319E+04</pdfrwt>
<totfact> 0.23387396E+00</totfact>
</mgrwt>
</event>
<event>
12    1  0.1496989E-007  0.2334617E+04  0.7818608E-02  0.8464396E-01
         -1   -1    0    0    0  501 -0.00000000000E+00  0.00000000000E+00  0.53182384831E+03  0.53182384831E+03  0.00000000000E+00 0.  1.
          1   -1    0    0  501    0  0.00000000000E+00 -0.00000000000E+00 -0.25621429827E+04  0.25621429827E+04  0.00000000000E+00 0. -1.
         23    2    1    2    0    0  0.54217177985E+03 -0.12090463587E+03  0.22410099798E+03  0.60579016697E+03  0.90511321166E+02 0.  0.
        254    2    1    2    0    0 -0.54217177985E+03  0.12090463587E+03 -0.22544201324E+04  0.24881766641E+04  0.89445223931E+03 0.  0.
        -24    2    4    4    0    0 -0.67866680666E+03  0.14670566148E+01 -0.21664395324E+04  0.22716097005E+04  0.78483101764E+02 0.  0.
         24    2    4    4    0    0  0.13649502681E+03  0.11943757925E+03 -0.87980600049E+02  0.21656696359E+03  0.79148190459E+02 0.  0.
         11    1    3    3    0    0  0.35749611024E+02  0.14539124978E+02  0.15321490581E+02  0.41523113047E+02  0.00000000000E+00 0. -1.
        -11    1    3    3    0    0  0.50642216883E+03 -0.13544376084E+03  0.20877950740E+03  0.56426705392E+03  0.00000000000E+00 0.  1.
          2    1    6    6  502    0  0.10503256060E+03  0.59356298014E+02 -0.86996073377E+02  0.14873911954E+03  0.00000000000E+00 0. -1.
          1    1    5    5  503    0 -0.54080674443E+03 -0.83468424695E+01 -0.16173000169E+04  0.17053448183E+04  0.00000000000E+00 0. -1.
         -2    1    5    5    0  503 -0.13786006223E+03  0.98138990843E+01 -0.54913951541E+03  0.56626488216E+03  0.00000000000E+00 0.  1.
         -1    1    6    6    0  502  0.31462466210E+02  0.60081281238E+02 -0.98452667142E+00  0.67827844046E+02  0.00000000000E+00 0.  1.
<mgrwt>
<rscale>  0 0.23346167E+04</rscale>
<asrwt>0</asrwt>
<pdfrwt beam="1">  1        1 0.39417583E+00 0.23346167E+04</pdfrwt>
<pdfrwt beam="2">  1       -1 0.81819056E-01 0.23346167E+04</pdfrwt>
<totfact> 0.16427552E+00</totfact>
</mgrwt>
</event>
<event>
12    1  0.1496989E-007  0.2528698E+04  0.7818608E-02  0.8392832E-01
          2   -1    0    0  501    0  0.00000000000E+00  0.00000000000E+00  0.13051458933E+04  0.13051458933E+04  0.00000000000E+00 0. -1.
         -2   -1    0    0    0  501 -0.00000000000E+00 -0.00000000000E+00 -0.12248276561E+04  0.12248276561E+04  0.00000000000E+00 0.  1.
         23    2    1    2    0    0 -0.23207821333E+03 -0.85358172676E+03 -0.62560620195E+03  0.10872315733E+04  0.90704535255E+02 0.  0.
        254    2    1    2    0    0  0.23207821333E+03  0.85358172676E+03  0.70592443909E+03  0.14427419761E+04  0.89482570062E+03 0.  0.
        -24    2    4    4    0    0  0.45928812064E+02  0.24381130125E+03  0.75473228770E+03  0.79825514306E+03  0.77698397219E+02 0.  0.
         24    2    4    4    0    0  0.18614940126E+03  0.60977042551E+03 -0.48807848608E+02  0.64448683303E+03  0.80681475216E+02 0.  0.
         13    1    3    3    0    0 -0.11835656823E+02 -0.15251066637E+03 -0.13137063242E+03  0.20163786646E+03  0.00000000000E+00 0. -1.
        -13    1    3    3    0    0 -0.22024255651E+03 -0.70107106040E+03 -0.49423556953E+03  0.88559370685E+03  0.00000000000E+00 0.  1.
          2    1    6    6  502    0  0.16566604974E+03  0.57190051857E+03 -0.63974434449E+02  0.59883901964E+03  0.00000000000E+00 0. -1.
          3    1    5    5  503    0  0.37916005512E+02  0.20721508421E+03  0.52839347544E+03  0.56883686544E+03  0.00000000000E+00 0. -1.
         -4    1    5    5    0  503  0.80128065522E+01  0.36596217044E+02  0.22633881226E+03  0.22941827762E+03  0.00000000000E+00 0.  1.
         -3    1    6    6    0  502  0.20483351520E+02  0.37869906938E+02  0.15166585841E+02  0.45647813387E+02  0.00000000000E+00 0.  1.
<mgrwt>
<rscale>  0 0.25286983E+04</rscale>
<asrwt>0</asrwt>
<pdfrwt beam="1">  1        2 0.20079168E+00 0.25286983E+04</pdfrwt>
<pdfrwt beam="2">  1       -2 0.18843502E+00 0.25286983E+04</pdfrwt>
<totfact> 0.23199489E+00</totfact>
</mgrwt>
</event>
<event>
12    1  0.1496989E-007  0.1857369E+04  0.7818608E-02  0.8676372E-01
          1   -1    0    0  501    0  0.00000000000E+00  0.00000000000E+00  0.23009106731E+04  0.23009106731E+04  0.00000000000E+00 0. -1.
         -1   -1    0    0    0  501 -0.00000000000E+00 -0.00000000000E+00 -0.37483199520E+03  0.37483199520E+03  0.00000000000E+00 0.  1.
         23    2    1    2    0    0 -0.23366951811E+03 -0.64175259161E+03  0.52771541914E+03  0.86840278718E+03  0.95874942741E+02 0.  0.
        254    2    1    2    0    0  0.23366951811E+03  0.64175259161E+03  0.13983632588E+04  0.18073398811E+04  0.91902655560E+03 0.  0.
        -24    2    4    4    0    0  0.99734089062E+02 -0.20946070015E+03  0.51805903074E+03  0.57292662327E+03  0.77711536430E+02 0.  0.
         24    2    4    4    0    0  0.13393542905E+03  0.85121329177E+03  0.88030422802E+03  0.12344132579E+04  0.79610238335E+02 0.  0.
         11    1    3    3    0    0 -0.11285729899E+02 -0.12734554768E+03  0.77136688682E+02  0.14931284256E+03  0.00000000000E+00 0. -1.
        -11    1    3    3    0    0 -0.22238378821E+03 -0.51440704394E+03  0.45057873046E+03  0.71908994462E+03  0.00000000000E+00 0.  1.
          4    1    6    6  502    0  0.91961296119E+02  0.41600962770E+03  0.39172031860E+03  0.57876221225E+03  0.00000000000E+00 0. -1.
          3    1    5    5  503    0  0.46271764374E+02 -0.14005835264E+03  0.39681882404E+03  0.42334689964E+03  0.00000000000E+00 0. -1.
         -4    1    5    5    0  503  0.53462324688E+02 -0.69402347508E+02  0.12124020669E+03  0.14957972362E+03  0.00000000000E+00 0.  1.
         -3    1    6    6    0  502  0.41974132932E+02  0.43520366407E+03  0.48858390942E+03  0.65565104560E+03  0.00000000000E+00 0.  1.
<mgrwt>
<rscale>  0 0.18573690E+04</rscale>
<asrwt>0</asrwt>
<pdfrwt beam="1">  1        1 0.35398625E+00 0.18573690E+04</pdfrwt>
<pdfrwt beam="2">  1       -1 0.57666462E-01 0.18573690E+04</pdfrwt>
<totfact> 0.53178837E+00</totfact>
</mgrwt>
</event>
<event>
12    1  0.1496989E-007  0.3006314E+04  0.7818608E-02  0.8241930E-01
         -2   -1    0    0    0  501 -0.00000000000E+00  0.00000000000E+00  0.12148237998E+04  0.12148237998E+04  0.00000000000E+00 0. -1.
          2   -1    0    0  501    0  0.00000000000E+00 -0.00000000000E+00 -0.18599253573E+04  0.18599253573E+04  0.00000000000E+00 0.  1.
         23    2    1    2    0    0  0.12292707425E+04 -0.51202823475E+03  0.14837045740E+02  0.13348730337E+04  0.91577325920E+02 0.  0.
        254    2    1    2    0    0 -0.12292707425E+04  0.51202823475E+03 -0.65993860324E+03  0.17398761234E+04  0.90463832167E+03 0.  0.
        -24    2    4    4    0    0 -0.12483947804E+03  0.47474282870E+03 -0.26619769925E+03  0.56405465000E+03  0.79566226667E+02 0.  0.
         24    2    4    4    0    0 -0.11044312645E+04  0.37285406049E+02 -0.39374090399E+03  0.11758214734E+04  0.79784824955E+02 0.  0.
         13    1    3    3    0    0  0.10324931469E+04 -0.39633000459E+03 -0.24324397759E+01  0.11059500385E+04  0.00000000000E+00 0. -1.
        -13    1    3    3    0    0  0.19677759559E+03 -0.11569823016E+03  0.17269485516E+02  0.22892299517E+03  0.00000000000E+00 0.  1.
          4    1    6    6  502    0 -0.57424054615E+03 -0.15712210636E+02 -0.22436046436E+03  0.61671443665E+03  0.00000000000E+00 0. -1.
          3    1    5    5  503    0 -0.13580674709E+03  0.42116919527E+03 -0.24007222331E+03  0.50344973533E+03  0.00000000000E+00 0. -1.
         -4    1    5    5    0  503  0.10967269053E+02  0.53573633431E+02 -0.26125475936E+02  0.60604914672E+02  0.00000000000E+00 0.  1.
         -3    1    6    6    0  502 -0.53019071833E+03  0.52997616684E+02 -0.16938043964E+03  0.55910703672E+03  0.00000000000E+00 0.  1.
<mgrwt>
<rscale>  0 0.30063144E+04</rscale>
<asrwt>0</asrwt>
<pdfrwt beam="1">  1        2 0.28614236E+00 0.30063144E+04</pdfrwt>
<pdfrwt beam="2">  1       -2 0.18689597E+00 0.30063144E+04</pdfrwt>
<totfact> 0.11124067E+00</totfact>
</mgrwt>
</event>
<event>
12    1  0.1496989E-007  0.1624786E+04  0.7818608E-02  0.8805464E-01
         -1   -1    0    0    0  501 -0.00000000000E+00  0.00000000000E+00  0.54689508974E+03  0.54689508974E+03  0.00000000000E+00 0.  1.
          1   -1    0    0  501    0  0.00000000000E+00 -0.00000000000E+00 -0.12067799325E+04  0.12067799325E+04  0.00000000000E+00 0. -1.
         23    2    1    2    0    0  0.44288146375E+03 -0.31435087498E+03 -0.35459556168E+03  0.65502554844E+03  0.91432998447E+02 0.  0.
        254    2    1    2    0    0 -0.44288146375E+03  0.31435087498E+03 -0.30528928111E+03  0.10986494738E+04  0.90491361890E+03 0.  0.
        -24    2    4    4    0    0 -0.89824607804E+02 -0.15330977397E+03 -0.44972050263E+03  0.48998903258E+03  0.79173067383E+02 0.  0.
         24    2    4    4    0    0 -0.35305685595E+03  0.46766064895E+03  0.14443122152E+03  0.60866044126E+03  0.79066610483E+02 0.  0.
         11    1    3    3    0    0 -0.38073918346E+01 -0.10756906790E+01  0.59550409694E+00  0.40009958946E+01  0.00000000000E+00 0.  1.
        -11    1    3    3    0    0  0.44668885559E+03 -0.31327518430E+03 -0.35519106578E+03  0.65102455254E+03  0.00000000000E+00 0. -1.
          2    1    6    6  502    0 -0.28439813528E+03  0.32579754931E+03  0.88516484277E+02  0.44143120696E+03  0.00000000000E+00 0. -1.
          3    1    5    5  503    0 -0.21692416670E+01  0.45776125468E+01 -0.62759655922E+02  0.62963755904E+02  0.00000000000E+00 0. -1.
         -4    1    5    5    0  503 -0.87655366137E+02 -0.15788738652E+03 -0.38696084671E+03  0.42702527668E+03  0.00000000000E+00 0.  1.
         -1    1    6    6    0  502 -0.68658720665E+02  0.14186309964E+03  0.55914737243E+02  0.16722923430E+03  0.00000000000E+00 0.  1.
<mgrwt>
<rscale>  0 0.16247855E+04</rscale>
<asrwt>0</asrwt>
<pdfrwt beam="1">  1        1 0.18565845E+00 0.16247855E+04</pdfrwt>
<pdfrwt beam="2">  1       -1 0.84137707E-01 0.16247855E+04</pdfrwt>
<totfact> 0.14160928E+01</totfact>
</mgrwt>
</event>
<event>
12    1  0.1496989E-007  0.2350456E+04  0.7818608E-02  0.8458288E-01
          2   -1    0    0  501    0  0.00000000000E+00  0.00000000000E+00  0.25922718292E+04  0.25922718292E+04  0.00000000000E+00 0. -1.
         -2   -1    0    0    0  501 -0.00000000000E+00 -0.00000000000E+00 -0.53279957713E+03  0.53279957713E+03  0.00000000000E+00 0.  1.
         23    2    1    2    0    0  0.89863826018E+03 -0.29977276922E+03  0.43821919419E+03  0.10478176694E+04  0.92040047205E+02 0.  0.
        254    2    1    2    0    0 -0.89863826018E+03  0.29977276922E+03  0.16212530578E+04  0.20772537369E+04  0.88831704593E+03 0.  0.
        -24    2    4    4    0    0 -0.77356113818E+03  0.58156349011E+03  0.11103939797E+04  0.14751519174E+04  0.80532365839E+02 0.  0.
         24    2    4    4    0    0 -0.12507712200E+03 -0.28179072088E+03  0.51085907817E+03  0.60210181945E+03  0.80618275918E+02 0.  0.
         11    1    3    3    0    0  0.92976422312E+02 -0.55754793973E+02  0.69681998717E+02  0.12887510660E+03  0.00000000000E+00 0.  1.
        -11    1    3    3    0    0  0.80566183787E+03 -0.24401797525E+03  0.36853719547E+03  0.91894256278E+03  0.00000000000E+00 0. -1.
          4    1    6    6  502    0 -0.39683780285E+02 -0.17675586583E+03  0.25737327890E+03  0.31473551311E+03  0.00000000000E+00 0. -1.
          1    1    5    5  503    0 -0.67622605716E+03  0.48880806584E+03  0.91936544463E+03  0.12415505734E+04  0.00000000000E+00 0. -1.
         -4    1    5    5    0  503 -0.97335081017E+02  0.92755424272E+02  0.19102853503E+03  0.23360134401E+03  0.00000000000E+00 0.  1.
         -3    1    6    6    0  502 -0.85393341715E+02 -0.10503485505E+03  0.25348579928E+03  0.28736630634E+03  0.00000000000E+00 0.  1.
<mgrwt>
<rscale>  0 0.23504564E+04</rscale>
<asrwt>0</asrwt>
<pdfrwt beam="1">  1        2 0.39881104E+00 0.23504564E+04</pdfrwt>
<pdfrwt beam="2">  1       -2 0.81969167E-01 0.23504564E+04</pdfrwt>
<totfact> 0.36330390E+00</totfact>
</mgrwt>
</event>
<event>
12    1  0.1496989E-007  0.1748770E+04  0.7818608E-02  0.8734027E-01
          2   -1    0    0  501    0  0.00000000000E+00  0.00000000000E+00  0.18555586549E+04  0.18555586549E+04  0.00000000000E+00 0. -1.
         -2   -1    0    0    0  501 -0.00000000000E+00 -0.00000000000E+00 -0.41203200639E+03  0.41203200639E+03  0.00000000000E+00 0.  1.
         23    2    1    2    0    0  0.23847790884E+03  0.33576588500E+03  0.11732798930E+04  0.12470214617E+04  0.94161437488E+02 0.  0.
        254    2    1    2    0    0 -0.23847790884E+03 -0.33576588500E+03  0.27024675559E+03  0.10205691996E+04  0.89382198434E+03 0.  0.
        -24    2    4    4    0    0  0.52835954493E+02 -0.55911007813E+03  0.30289622217E+03  0.64319078373E+03  0.80947793692E+02 0.  0.
         24    2    4    4    0    0 -0.29131386334E+03  0.22334419313E+03 -0.32649466583E+02  0.37737841586E+03  0.81253218461E+02 0.  0.
         13    1    3    3    0    0  0.23471535727E+03  0.30394929143E+03  0.11278017269E+04  0.11913912900E+04  0.00000000000E+00 0. -1.
        -13    1    3    3    0    0  0.37625515759E+01  0.31816593571E+02  0.45478166075E+02  0.55630171763E+02  0.00000000000E+00 0.  1.
          2    1    6    6  502    0 -0.11337094170E+03  0.13765626082E+03 -0.20486073158E+02  0.17950458423E+03  0.00000000000E+00 0. -1.
          1    1    5    5  503    0  0.67245646052E+02 -0.53564906650E+03  0.28930226224E+03  0.61248485556E+03  0.00000000000E+00 0. -1.
         -4    1    5    5    0  503 -0.14409691559E+02 -0.23461011636E+02  0.13593959936E+02  0.30705928166E+02  0.00000000000E+00 0.  1.
         -1    1    6    6    0  502 -0.17794292164E+03  0.85687932307E+02 -0.12163393425E+02  0.19787383163E+03  0.00000000000E+00 0.  1.
<mgrwt>
<rscale>  0 0.17487705E+04</rscale>
<asrwt>0</asrwt>
<pdfrwt beam="1">  1        2 0.28547056E+00 0.17487705E+04</pdfrwt>
<pdfrwt beam="2">  1       -2 0.63389540E-01 0.17487705E+04</pdfrwt>
<totfact> 0.17551708E+01</totfact>
</mgrwt>
</event>
<event>
12    1  0.1496989E-007  0.1589888E+04  0.7818608E-02  0.8826785E-01
          2   -1    0    0  501    0  0.00000000000E+00  0.00000000000E+00  0.26151569005E+04  0.26151569005E+04  0.00000000000E+00 0. -1.
         -2   -1    0    0    0  501 -0.00000000000E+00 -0.00000000000E+00 -0.24164350766E+03  0.24164350766E+03  0.00000000000E+00 0.  1.
         23    2    1    2    0    0 -0.31163221438E+03  0.32446617512E+03  0.28219686281E+03  0.53882379447E+03  0.91121217447E+02 0.  0.
        254    2    1    2    0    0  0.31163221438E+03 -0.32446617512E+03  0.20913165300E+04  0.23179766137E+04  0.89275854350E+03 0.  0.
        -24    2    4    4    0    0  0.37583803874E+03  0.22132379849E+03  0.97278884737E+03  0.10691842899E+04  0.81230838667E+02 0.  0.
         24    2    4    4    0    0 -0.64205824367E+02 -0.54578997361E+03  0.11185276827E+04  0.12487923237E+04  0.79806063563E+02 0.  0.
         11    1    3    3    0    0 -0.22439765988E+03  0.21757715371E+03  0.24146886093E+03  0.39497004744E+03  0.00000000000E+00 0.  1.
        -11    1    3    3    0    0 -0.87234554499E+02  0.10688902142E+03  0.40728001884E+02  0.14385374703E+03  0.00000000000E+00 0. -1.
          4    1    6    6  502    0  0.57280200841E+01 -0.15808646070E+01  0.19938990866E+02  0.20805593088E+02  0.00000000000E+00 0. -1.
          3    1    5    5  503    0 -0.19238834526E+01  0.10368058732E+02  0.16709482799E+02  0.19758663538E+02  0.00000000000E+00 0. -1.
         -4    1    5    5    0  503  0.37776192220E+03  0.21095573976E+03  0.95607936457E+03  0.10494256264E+04  0.00000000000E+00 0.  1.
         -3    1    6    6    0  502 -0.69933844451E+02 -0.54420910901E+03  0.10985886918E+04  0.12279867307E+04  0.00000000000E+00 0.  1.
<mgrwt>
<rscale>  0 0.15898877E+04</rscale>
<asrwt>0</asrwt>
<pdfrwt beam="1">  1        2 0.40233181E+00 0.15898877E+04</pdfrwt>
<pdfrwt beam="2">  1       -2 0.37175926E-01 0.15898877E+04</pdfrwt>
<totfact> 0.19572781E+01</totfact>
</mgrwt>
</event>
<event>
12    1  0.1496989E-007  0.1822913E+04  0.7818608E-02  0.8694209E-01
          1   -1    0    0  501    0  0.00000000000E+00  0.00000000000E+00  0.24416252174E+04  0.24416252174E+04  0.00000000000E+00 0. -1.
         -1   -1    0    0    0  501 -0.00000000000E+00 -0.00000000000E+00 -0.34024572740E+03  0.34024572740E+03  0.00000000000E+00 0.  1.
         23    2    1    2    0    0 -0.33289815968E+03  0.40236006429E+02 -0.11845726342E+03  0.36703752217E+03  0.90798119443E+02 0.  0.
        254    2    1    2    0    0  0.33289815968E+03 -0.40236006429E+02  0.22198367534E+04  0.24148334226E+04  0.88955332961E+03 0.  0.
        -24    2    4    4    0    0  0.32470781931E+03  0.67946053370E+02  0.22503617060E+04  0.22760728429E+04  0.79548376974E+02 0.  0.
         24    2    4    4    0    0  0.81903403721E+01 -0.10818205980E+03 -0.30524952637E+02  0.13876057966E+03  0.80946191978E+02 0.  0.
         13    1    3    3    0    0 -0.14774525135E+03  0.68723359542E+01 -0.63665732404E+01  0.14804195876E+03  0.00000000000E+00 0. -1.
        -13    1    3    3    0    0 -0.18515290833E+03  0.33363670474E+02 -0.11209069018E+03  0.21899556341E+03  0.00000000000E+00 0.  1.
          2    1    6    6  502    0  0.15967945838E+00  0.13233736765E+02 -0.64415514805E+01  0.14719064908E+02  0.00000000000E+00 0. -1.
          3    1    5    5  503    0  0.11748962709E+02 -0.80438337918E+01  0.41911457142E+02  0.44264112175E+02  0.00000000000E+00 0. -1.
         -4    1    5    5    0  503  0.31295885660E+03  0.75989887162E+02  0.22084502489E+04  0.22318087308E+04  0.00000000000E+00 0.  1.
         -1    1    6    6    0  502  0.80306609137E+01 -0.12141579656E+03 -0.24083401157E+02  0.12404151475E+03  0.00000000000E+00 0.  1.
<mgrwt>
<rscale>  0 0.18229126E+04</rscale>
<asrwt>0</asrwt>
<pdfrwt beam="1">  1        1 0.37563464E+00 0.18229126E+04</pdfrwt>
<pdfrwt beam="2">  1       -1 0.52345498E-01 0.18229126E+04</pdfrwt>
<totfact> 0.51527923E+00</totfact>
</mgrwt>
</event>
<event>
12    1  0.1496989E-007  0.1566707E+04  0.7818608E-02  0.8841267E-01
         -2   -1    0    0    0  501 -0.00000000000E+00  0.00000000000E+00  0.83976258830E+03  0.83976258830E+03  0.00000000000E+00 0.  1.
          2   -1    0    0  501    0  0.00000000000E+00 -0.00000000000E+00 -0.73073317223E+03  0.73073317223E+03  0.00000000000E+00 0. -1.
         23    2    1    2    0    0  0.23565968955E+03 -0.27301611518E+03 -0.34216152129E+03  0.50511028132E+03  0.89378975226E+02 0.  0.
        254    2    1    2    0    0 -0.23565968955E+03  0.27301611518E+03  0.45119093735E+03  0.10653854792E+04  0.89520928779E+03 0.  0.
        -24    2    4    4    0    0 -0.52149547045E+03  0.20392968546E+03  0.50241164329E+03  0.75669649640E+03  0.81408144797E+02 0.  0.
         24    2    4    4    0    0  0.28583578090E+03  0.69086429722E+02 -0.51220705939E+02  0.30868898281E+03  0.78678453088E+02 0.  0.
         13    1    3    3    0    0  0.16429696239E+03 -0.13753853419E+03 -0.16167204854E+03  0.26841794187E+03  0.00000000000E+00 0.  1.
        -13    1    3    3    0    0  0.71362727156E+02 -0.13547758099E+03 -0.18048947275E+03  0.23669233945E+03  0.00000000000E+00 0. -1.
          2    1    6    6  502    0  0.28989235022E+03  0.68089703110E+02 -0.55274583173E+02  0.30286806027E+03  0.00000000000E+00 0. -1.
          3    1    5    5  503    0 -0.37890625616E+03  0.18202808067E+03  0.39514160549E+03  0.57692379176E+03  0.00000000000E+00 0. -1.
         -4    1    5    5    0  503 -0.14258921429E+03  0.21901604793E+02  0.10727003780E+03  0.17977270465E+03  0.00000000000E+00 0.  1.
         -1    1    6    6    0  502 -0.40565693246E+01  0.99672661205E+00  0.40538772338E+01  0.58209225430E+01  0.00000000000E+00 0.  1.
<mgrwt>
<rscale>  0 0.15667066E+04</rscale>
<asrwt>0</asrwt>
<pdfrwt beam="1">  1        2 0.11242049E+00 0.15667066E+04</pdfrwt>
<pdfrwt beam="2">  1       -2 0.12919425E+00 0.15667066E+04</pdfrwt>
<totfact> 0.16446012E+01</totfact>
</mgrwt>
</event>
<event>
12    1  0.1496989E-007  0.1375091E+04  0.7818608E-02  0.8972049E-01
          2   -1    0    0  501    0  0.00000000000E+00  0.00000000000E+00  0.48470401622E+03  0.48470401622E+03  0.00000000000E+00 0. -1.
         -2   -1    0    0    0  501 -0.00000000000E+00 -0.00000000000E+00 -0.97527317197E+03  0.97527317197E+03  0.00000000000E+00 0.  1.
         23    2    1    2    0    0 -0.30574458986E+03 -0.33127789183E+02  0.40804905571E+02  0.32413431687E+03  0.93919169545E+02 0.  0.
        254    2    1    2    0    0  0.30574458986E+03  0.33127789183E+02 -0.53137406132E+03  0.11358428713E+04  0.95561678022E+03 0.  0.
        -24    2    4    4    0    0 -0.99385644466E+01 -0.40151258753E+03 -0.54739135375E+02  0.41307245850E+03  0.79506918098E+02 0.  0.
         24    2    4    4    0    0  0.31568315430E+03  0.43464037671E+03 -0.47663492595E+03  0.72277041282E+03  0.81535918664E+02 0.  0.
         13    1    3    3    0    0 -0.29849235482E+03 -0.43603735827E+02  0.53249306064E+02  0.30632410983E+03  0.00000000000E+00 0. -1.
        -13    1    3    3    0    0 -0.72522350339E+01  0.10475946644E+02 -0.12444400493E+02  0.17810207037E+02  0.00000000000E+00 0.  1.
          4    1    6    6  502    0  0.30161978680E+03  0.43062938499E+03 -0.47406497813E+03  0.70792214719E+03  0.00000000000E+00 0. -1.
          1    1    5    5  503    0 -0.34273087987E+02 -0.34606309017E+03 -0.57391998423E+02  0.35246013735E+03  0.00000000000E+00 0. -1.
         -2    1    5    5    0  503  0.24334523540E+02 -0.55449497363E+02  0.26528630484E+01  0.60612321158E+02  0.00000000000E+00 0.  1.
         -3    1    6    6    0  502  0.14063367508E+02  0.40109917269E+01 -0.25699478217E+01  0.14848265626E+02  0.00000000000E+00 0.  1.
<mgrwt>
<rscale>  0 0.13750910E+04</rscale>
<asrwt>0</asrwt>
<pdfrwt beam="1">  1        2 0.74569849E-01 0.13750910E+04</pdfrwt>
<pdfrwt beam="2">  1       -2 0.15004203E+00 0.13750910E+04</pdfrwt>
<totfact> 0.18620287E+01</totfact>
</mgrwt>
</event>
<event>
12    1  0.1496989E-007  0.1697786E+04  0.7818608E-02  0.8762628E-01
         -2   -1    0    0    0  501 -0.00000000000E+00  0.00000000000E+00  0.37861214267E+03  0.37861214267E+03  0.00000000000E+00 0.  1.
          2   -1    0    0  501    0  0.00000000000E+00 -0.00000000000E+00 -0.19033169539E+04  0.19033169539E+04  0.00000000000E+00 0. -1.
         23    2    1    2    0    0 -0.39685209992E+03 -0.33923540364E+03 -0.91677763215E+03  0.10596273257E+04  0.98775473915E+02 0.  0.
        254    2    1    2    0    0  0.39685209992E+03  0.33923540364E+03 -0.60792717907E+03  0.12223017709E+04  0.92297015972E+03 0.  0.
        -24    2    4    4    0    0 -0.11859936506E+03  0.44519982708E+03 -0.84606728997E+02  0.47579109464E+03  0.83367689914E+02 0.  0.
         24    2    4    4    0    0  0.51545146498E+03 -0.10596442344E+03 -0.52332045007E+03  0.74651067623E+03  0.80592955569E+02 0.  0.
         11    1    3    3    0    0 -0.27477570660E+03 -0.25085842986E+03 -0.56009521214E+03  0.67241228976E+03  0.00000000000E+00 0.  1.
        -11    1    3    3    0    0 -0.12207639332E+03 -0.88376973785E+02 -0.35668242002E+03  0.38721503593E+03  0.00000000000E+00 0. -1.
          4    1    6    6  502    0  0.17902021843E+03 -0.72384687951E+02 -0.16682075653E+03  0.25518022350E+03  0.00000000000E+00 0. -1.
          3    1    5    5  503    0  0.47194650690E+01  0.93118063442E+02  0.11652965150E+00  0.93237656925E+02  0.00000000000E+00 0. -1.
         -4    1    5    5    0  503 -0.12331883013E+03  0.35208176364E+03 -0.84723258649E+02  0.38255343771E+03  0.00000000000E+00 0.  1.
         -3    1    6    6    0  502  0.33643124654E+03 -0.33579735487E+02 -0.35649969354E+03  0.49133045273E+03  0.00000000000E+00 0.  1.
<mgrwt>
<rscale>  0 0.16977855E+04</rscale>
<asrwt>0</asrwt>
<pdfrwt beam="1">  1        2 0.29281799E+00 0.16977855E+04</pdfrwt>
<pdfrwt beam="2">  1       -2 0.58248023E-01 0.16977855E+04</pdfrwt>
<totfact> 0.19840628E+01</totfact>
</mgrwt>
</event>
<event>
12    1  0.1496989E-007  0.1867829E+04  0.7818608E-02  0.8671038E-01
         -1   -1    0    0    0  501 -0.00000000000E+00  0.00000000000E+00  0.60472860913E+03  0.60472860913E+03  0.00000000000E+00 0.  1.
          1   -1    0    0  501    0  0.00000000000E+00 -0.00000000000E+00 -0.14422934837E+04  0.14422934837E+04  0.00000000000E+00 0. -1.
         23    2    1    2    0    0  0.54599691449E+03 -0.45901187223E+03 -0.33937538240E+03  0.79523485602E+03  0.91751275635E+02 0.  0.
        254    2    1    2    0    0 -0.54599691449E+03  0.45901187223E+03 -0.49818949213E+03  0.12517872368E+04  0.89998554799E+03 0.  0.
        -24    2    4    4    0    0 -0.27192858390E+03  0.21436776510E+02 -0.64898101248E+03  0.70832592505E+03  0.78387316614E+02 0.  0.
         24    2    4    4    0    0 -0.27406833059E+03  0.43757509572E+03  0.15079152036E+03  0.54346131172E+03  0.77631826577E+02 0.  0.
         11    1    3    3    0    0  0.48410533119E+03 -0.44045503411E+03 -0.31218636856E+03  0.72513373765E+03  0.00000000000E+00 0.  1.
        -11    1    3    3    0    0  0.61891583295E+02 -0.18556838115E+02 -0.27189013830E+02  0.70101118370E+02  0.00000000000E+00 0. -1.
          2    1    6    6  502    0 -0.17295945484E+02  0.38905911112E+01  0.90850329515E+01  0.19920448115E+02  0.00000000000E+00 0. -1.
          3    1    5    5  503    0 -0.58886359893E+02 -0.13194724804E+02 -0.21971303678E+03  0.22784978095E+03  0.00000000000E+00 0. -1.
         -4    1    5    5    0  503 -0.21304222400E+03  0.34631501314E+02 -0.42926797570E+03  0.48047614410E+03  0.00000000000E+00 0.  1.
         -1    1    6    6    0  502 -0.25677238511E+03  0.43368450461E+03  0.14170648740E+03  0.52354086360E+03  0.00000000000E+00 0.  1.
<mgrwt>
<rscale>  0 0.18678288E+04</rscale>
<asrwt>0</asrwt>
<pdfrwt beam="1">  1        1 0.22189130E+00 0.18678288E+04</pdfrwt>
<pdfrwt beam="2">  1       -1 0.93035171E-01 0.18678288E+04</pdfrwt>
<totfact> 0.75541880E+00</totfact>
</mgrwt>
</event>
<event>
12    1  0.1496989E-007  0.1636563E+04  0.7818608E-02  0.8798396E-01
          2   -1    0    0  501    0  0.00000000000E+00  0.00000000000E+00  0.28750491562E+04  0.28750491562E+04  0.00000000000E+00 0.  1.
         -2   -1    0    0    0  501 -0.00000000000E+00 -0.00000000000E+00 -0.23289488579E+03  0.23289488579E+03  0.00000000000E+00 0. -1.
         23    2    1    2    0    0  0.18431598848E+03  0.34617555969E+03  0.16552245864E+04  0.17034477514E+04  0.90310068653E+02 0.  0.
        254    2    1    2    0    0 -0.18431598848E+03 -0.34617555969E+03  0.98692968406E+03  0.14044962907E+04  0.91911355527E+03 0.  0.
        -24    2    4    4    0    0 -0.11179685130E+03  0.15116686534E+03 -0.82407078901E+02  0.22031200242E+03  0.79978088377E+02 0.  0.
         24    2    4    4    0    0 -0.72519137186E+02 -0.49734242503E+03  0.10693367630E+04  0.11841842883E+04  0.78757875273E+02 0.  0.
         11    1    3    3    0    0  0.11273176082E+03  0.13621058697E+03  0.61975536947E+03  0.64448311994E+03  0.00000000000E+00 0. -1.
        -11    1    3    3    0    0  0.71584227665E+02  0.20996497272E+03  0.10354692169E+04  0.10589646314E+04  0.00000000000E+00 0.  1.
          4    1    6    6  502    0 -0.57238921541E+02 -0.32326140890E+03  0.61000356529E+03  0.69273269180E+03  0.00000000000E+00 0. -1.
          3    1    5    5  503    0 -0.52823875537E+02  0.36002859404E+02 -0.62503003869E+02  0.89404659860E+02  0.00000000000E+00 0. -1.
         -4    1    5    5    0  503 -0.58972975759E+02  0.11516400594E+03 -0.19904075032E+02  0.13090734256E+03  0.00000000000E+00 0.  1.
         -3    1    6    6    0  502 -0.15280215645E+02 -0.17408101613E+03  0.45933319767E+03  0.49145159645E+03  0.00000000000E+00 0.  1.
<mgrwt>
<rscale>  0 0.16365625E+04</rscale>
<asrwt>0</asrwt>
<pdfrwt beam="1">  1        2 0.44231523E+00 0.16365625E+04</pdfrwt>
<pdfrwt beam="2">  1       -2 0.35829984E-01 0.16365625E+04</pdfrwt>
<totfact> 0.14641224E+01</totfact>
</mgrwt>
</event>
<event>
12    1  0.1496989E-007  0.1497698E+04  0.7818608E-02  0.8885985E-01
          2   -1    0    0  501    0  0.00000000000E+00  0.00000000000E+00  0.12635662750E+04  0.12635662750E+04  0.00000000000E+00 0. -1.
         -2   -1    0    0    0  501 -0.00000000000E+00 -0.00000000000E+00 -0.44380354896E+03  0.44380354896E+03  0.00000000000E+00 0.  1.
         23    2    1    2    0    0  0.10553779210E+03  0.45759885574E+03  0.22848796831E+03  0.53006646919E+03  0.90712577724E+02 0.  0.
        254    2    1    2    0    0 -0.10553779210E+03 -0.45759885574E+03  0.59127475772E+03  0.11773033548E+04  0.90327316559E+03 0.  0.
        -24    2    4    4    0    0  0.27401513322E+03  0.75586464061E+02  0.60422916010E+01  0.29570909138E+03  0.81300373020E+02 0.  0.
         24    2    4    4    0    0 -0.37955292532E+03 -0.53318531980E+03  0.58523246612E+03  0.88159426339E+03  0.79777173796E+02 0.  0.
         13    1    3    3    0    0  0.17614143139E+02  0.41585009822E+02  0.54148496965E+02  0.70509792256E+02  0.00000000000E+00 0. -1.
        -13    1    3    3    0    0  0.87923648963E+02  0.41601384592E+03  0.17433947134E+03  0.45955667693E+03  0.00000000000E+00 0.  1.
          4    1    6    6  502    0 -0.27189346799E+02 -0.74468878246E+02  0.91804750070E+02  0.12129710030E+03  0.00000000000E+00 0. -1.
          1    1    5    5  503    0  0.19361668513E+02 -0.15541248099E+02 -0.35021072392E+01  0.25073279705E+02  0.00000000000E+00 0. -1.
         -2    1    5    5    0  503  0.25465346471E+03  0.91127712159E+02  0.95443988403E+01  0.27063581167E+03  0.00000000000E+00 0.  1.
         -3    1    6    6    0  502 -0.35236357852E+03 -0.45871644156E+03  0.49342771605E+03  0.76029716308E+03  0.00000000000E+00 0.  1.
<mgrwt>
<rscale>  0 0.14976985E+04</rscale>
<asrwt>0</asrwt>
<pdfrwt beam="1">  1        2 0.19439481E+00 0.14976985E+04</pdfrwt>
<pdfrwt beam="2">  1       -2 0.68277469E-01 0.14976985E+04</pdfrwt>
<totfact> 0.32936862E+01</totfact>
</mgrwt>
</event>
<event>
12    1  0.1496989E-007  0.1632363E+04  0.7818608E-02  0.8800909E-01
          2   -1    0    0  501    0  0.00000000000E+00  0.00000000000E+00  0.14468059123E+04  0.14468059123E+04  0.00000000000E+00 0.  1.
         -2   -1    0    0    0  501 -0.00000000000E+00 -0.00000000000E+00 -0.46042947399E+03  0.46042947399E+03  0.00000000000E+00 0. -1.
         23    2    1    2    0    0 -0.28373154317E+03  0.14356707251E+03 -0.20242902350E+03  0.38481733158E+03  0.77406564526E+02 0.  0.
        254    2    1    2    0    0  0.28373154317E+03 -0.14356707251E+03  0.11888054619E+04  0.15224180548E+04  0.89631647002E+03 0.  0.
        -24    2    4    4    0    0  0.29002363940E+03 -0.50017374183E+03  0.67963563098E+03  0.89571613006E+03  0.78200456027E+02 0.  0.
         24    2    4    4    0    0 -0.62920962271E+01  0.35660666932E+03  0.50916983087E+03  0.62670192470E+03  0.79331448191E+02 0.  0.
         11    1    3    3    0    0 -0.22739057783E+03  0.13065935513E+03 -0.13167873188E+03  0.29345805560E+03  0.00000000000E+00 0. -1.
        -11    1    3    3    0    0 -0.56340965341E+02  0.12907717380E+02 -0.70750291614E+02  0.91359275977E+02  0.00000000000E+00 0.  1.
          2    1    6    6  502    0  0.23805019881E+02  0.59283326983E+02  0.12091775103E+03  0.13675633201E+03  0.00000000000E+00 0. -1.
          3    1    5    5  503    0  0.28566619291E+02 -0.10489463408E+03  0.10911227125E+03  0.15402734736E+03  0.00000000000E+00 0. -1.
         -4    1    5    5    0  503  0.26145702011E+03 -0.39527910775E+03  0.57052335973E+03  0.74168878270E+03  0.00000000000E+00 0.  1.
         -1    1    6    6    0  502 -0.30097116108E+02  0.29732334234E+03  0.38825207984E+03  0.48994559269E+03  0.00000000000E+00 0.  1.
<mgrwt>
<rscale>  0 0.16323628E+04</rscale>
<asrwt>0</asrwt>
<pdfrwt beam="1">  1        2 0.22258552E+00 0.16323628E+04</pdfrwt>
<pdfrwt beam="2">  1       -2 0.70835304E-01 0.16323628E+04</pdfrwt>
<totfact> 0.23574011E+01</totfact>
</mgrwt>
</event>
<event>
12    1  0.1496989E-007  0.1252011E+04  0.7818608E-02  0.9068512E-01
         -1   -1    0    0    0  501 -0.00000000000E+00  0.00000000000E+00  0.34040997012E+03  0.34040997012E+03  0.00000000000E+00 0.  1.
          1   -1    0    0  501    0  0.00000000000E+00 -0.00000000000E+00 -0.11512078285E+04  0.11512078285E+04  0.00000000000E+00 0. -1.
         23    2    1    2    0    0  0.13958906908E+03  0.17705559353E+03  0.21408357196E+02  0.24504713320E+03  0.93573438121E+02 0.  0.
        254    2    1    2    0    0 -0.13958906908E+03 -0.17705559353E+03 -0.83220621553E+03  0.12465706654E+04  0.90029853228E+03 0.  0.
        -24    2    4    4    0    0 -0.61786187622E+02  0.12564322397E+03  0.14526567149E+03  0.21727237618E+03  0.80631367530E+02 0.  0.
         24    2    4    4    0    0 -0.77802881461E+02 -0.30269881750E+03 -0.97747188702E+03  0.10292982892E+04  0.79522423055E+02 0.  0.
         13    1    3    3    0    0  0.16547746902E+02  0.15869751493E+02 -0.28142757520E+02  0.36300023978E+02  0.00000000000E+00 0. -1.
        -13    1    3    3    0    0  0.12304132218E+03  0.16118584204E+03  0.49551114715E+02  0.20874710922E+03  0.00000000000E+00 0.  1.
          2    1    6    6  502    0 -0.78222882638E+02 -0.17635739223E+03 -0.51757459386E+03  0.55236238953E+03  0.00000000000E+00 0. -1.
          3    1    5    5  503    0  0.12218816527E+02  0.62621814960E+02  0.66552541038E+02  0.92195617601E+02  0.00000000000E+00 0. -1.
         -4    1    5    5    0  503 -0.74005004149E+02  0.63021409012E+02  0.78713130447E+02  0.12507675858E+03  0.00000000000E+00 0.  1.
         -1    1    6    6    0  502  0.42000117766E+00 -0.12634142528E+03 -0.45989729316E+03  0.47693589968E+03  0.00000000000E+00 0.  1.
<mgrwt>
<rscale>  0 0.12520106E+04</rscale>
<asrwt>0</asrwt>
<pdfrwt beam="1">  1        1 0.17710890E+00 0.12520106E+04</pdfrwt>
<pdfrwt beam="2">  1       -1 0.52370764E-01 0.12520106E+04</pdfrwt>
<totfact> 0.42032995E+01</totfact>
</mgrwt>
</event>
<event>
12    1  0.1496989E-007  0.1057634E+04  0.7818608E-02  0.9247498E-01
         -2   -1    0    0    0  501 -0.00000000000E+00  0.00000000000E+00  0.14259732154E+03  0.14259732154E+03  0.00000000000E+00 0.  1.
          2   -1    0    0  501    0  0.00000000000E+00 -0.00000000000E+00 -0.19610987141E+04  0.19610987141E+04  0.00000000000E+00 0. -1.
         23    2    1    2    0    0  0.36925587119E+01 -0.37155810783E+02 -0.50977824820E+03  0.51835198341E+03  0.86143642273E+02 0.  0.
        254    2    1    2    0    0 -0.36925587119E+01  0.37155810783E+02 -0.13087231444E+04  0.15853440522E+04  0.89396046113E+03 0.  0.
        -24    2    4    4    0    0  0.31070495138E+02  0.11113609461E+03  0.98409702367E+02  0.17342920127E+03  0.84122595902E+02 0.  0.
         24    2    4    4    0    0 -0.34763053850E+02 -0.73980283827E+02 -0.14071328468E+04  0.14119148510E+04  0.82456932223E+02 0.  0.
         11    1    3    3    0    0 -0.62322117677E+00 -0.28194232465E+02 -0.50732374658E+03  0.50810696412E+03  0.00000000000E+00 0. -1.
        -11    1    3    3    0    0  0.43157798887E+01 -0.89615783174E+01 -0.24545016212E+01  0.10245019287E+02  0.00000000000E+00 0.  1.
          4    1    6    6  502    0 -0.60563806714E+02 -0.36865460139E+02 -0.85421592568E+03  0.85715336114E+03  0.00000000000E+00 0. -1.
          1    1    5    5  503    0 -0.16453347992E+02  0.45250765782E+02  0.74575182675E+02  0.88768250715E+02  0.00000000000E+00 0. -1.
         -2    1    5    5    0  503  0.47523843130E+02  0.65885328828E+02  0.23834519692E+02  0.84660950559E+02  0.00000000000E+00 0.  1.
         -3    1    6    6    0  502  0.25800752864E+02 -0.37114823688E+02 -0.55291692107E+03  0.55476148983E+03  0.00000000000E+00 0.  1.
<mgrwt>
<rscale>  0 0.10576340E+04</rscale>
<asrwt>0</asrwt>
<pdfrwt beam="1">  1        2 0.30170749E+00 0.10576340E+04</pdfrwt>
<pdfrwt beam="2">  1       -2 0.21938050E-01 0.10576340E+04</pdfrwt>
<totfact> 0.12712319E+02</totfact>
</mgrwt>
</event>
<event>
12    1  0.1617308E-007  0.1924962E+04  0.7818608E-02  0.8642530E-01
         -1   -1    0    0    0  501 -0.00000000000E+00  0.00000000000E+00  0.10473060026E+04  0.10473060026E+04  0.00000000000E+00 0.  1.
          1   -1    0    0  501    0  0.00000000000E+00 -0.00000000000E+00 -0.88452640388E+03  0.88452640388E+03  0.00000000000E+00 0. -1.
         23    2    1    2    0    0 -0.10016370515E+03 -0.56805177770E+03 -0.27041934868E+03  0.64316630985E+03  0.88434653860E+02 0.  0.
        254    2    1    2    0    0  0.10016370515E+03  0.56805177770E+03  0.43319894740E+03  0.12886660966E+04  0.10678405268E+04 0.  0.
        -24    2    4    4    0    0  0.45069835878E+03 -0.71690448127E+02  0.67277555944E+02  0.46861287693E+03  0.82481682355E+02 0.  0.
         24    2    4    4    0    0 -0.35053465363E+03  0.63974222583E+03  0.36592139146E+03  0.82005321971E+03  0.80275522509E+02 0.  0.
         13    1    3    3    0    0 -0.62753367490E+02 -0.34559612726E+03 -0.21154117410E+03  0.41002967777E+03  0.00000000000E+00 0. -1.
        -13    1    3    3    0    0 -0.37410337660E+02 -0.22245565044E+03 -0.58878174580E+02  0.23313663208E+03  0.00000000000E+00 0.  1.
          4    1    6    6  502    0 -0.63466582788E+01  0.36566048873E+01  0.13866271129E+02  0.15681973907E+02  0.00000000000E+00 0. -1.
          3    1    5    5  503    0  0.65295699775E+02  0.10154789949E+02  0.30874298194E+02  0.72937442079E+02  0.00000000000E+00 0. -1.
         -4    1    5    5    0  503  0.38540265901E+03 -0.81845238076E+02  0.36403257750E+02  0.39567543485E+03  0.00000000000E+00 0.  1.
         -1    1    6    6    0  502 -0.34418799536E+03  0.63608562094E+03  0.35205512033E+03  0.80437124580E+03  0.00000000000E+00 0.  1.
<mgrwt>
<rscale>  0 0.19249621E+04</rscale>
<asrwt>0</asrwt>
<pdfrwt beam="1">  1        1 0.13608099E+00 0.19249621E+04</pdfrwt>
<pdfrwt beam="2">  1       -1 0.16112400E+00 0.19249621E+04</pdfrwt>
<totfact> 0.50138744E+00</totfact>
</mgrwt>
</event>
<event>
12    1  0.1496989E-007  0.1274619E+04  0.7818608E-02  0.9049938E-01
          1   -1    0    0  501    0  0.00000000000E+00  0.00000000000E+00  0.92924817771E+03  0.92924817771E+03  0.00000000000E+00 0. -1.
         -1   -1    0    0    0  501 -0.00000000000E+00 -0.00000000000E+00 -0.43708822715E+03  0.43708822715E+03  0.00000000000E+00 0.  1.
         23    2    1    2    0    0  0.14154546590E+02 -0.29091307436E+03  0.23391817417E+03  0.38459333790E+03  0.91452475803E+02 0.  0.
        254    2    1    2    0    0 -0.14154546590E+02  0.29091307436E+03  0.25824177639E+03  0.98174306696E+03  0.90127679790E+03 0.  0.
        -24    2    4    4    0    0 -0.14652467543E+03  0.13853235638E+03 -0.30732867507E+03  0.37591276532E+03  0.78732447792E+02 0.  0.
         24    2    4    4    0    0  0.13237012884E+03  0.15238071798E+03  0.56557045145E+03  0.60583030164E+03  0.80116693722E+02 0.  0.
         13    1    3    3    0    0  0.44960226270E+02 -0.24505955347E+03  0.17972088151E+03  0.30720547186E+03  0.00000000000E+00 0. -1.
        -13    1    3    3    0    0 -0.30805679680E+02 -0.45853520893E+02  0.54197292658E+02  0.77387866040E+02  0.00000000000E+00 0.  1.
          4    1    6    6  502    0  0.13146807635E+03  0.15578517872E+03  0.49713742550E+03  0.53730670650E+03  0.00000000000E+00 0. -1.
          1    1    5    5  503    0 -0.15637847952E+03  0.13206740092E+03 -0.29065628304E+03  0.35549557256E+03  0.00000000000E+00 0. -1.
         -2    1    5    5    0  503  0.98538040849E+01  0.64649554640E+01 -0.16672392031E+02  0.20417192758E+02  0.00000000000E+00 0.  1.
         -3    1    6    6    0  502  0.90205249512E+00 -0.34044607451E+01  0.68433025948E+02  0.68523595148E+02  0.00000000000E+00 0.  1.
<mgrwt>
<rscale>  0 0.12746191E+04</rscale>
<asrwt>0</asrwt>
<pdfrwt beam="1">  1        1 0.14296126E+00 0.12746191E+04</pdfrwt>
<pdfrwt beam="2">  1       -1 0.67244343E-01 0.12746191E+04</pdfrwt>
<totfact> 0.37987403E+01</totfact>
</mgrwt>
</event>
<event>
12    1  0.1496989E-007  0.2406494E+04  0.7818608E-02  0.8437076E-01
         -2   -1    0    0    0  501 -0.00000000000E+00  0.00000000000E+00  0.12958893191E+04  0.12958893191E+04  0.00000000000E+00 0.  1.
          2   -1    0    0  501    0  0.00000000000E+00 -0.00000000000E+00 -0.11172271626E+04  0.11172271626E+04  0.00000000000E+00 0. -1.
         23    2    1    2    0    0  0.12389419609E+03 -0.10128722919E+04  0.14715225075E+03  0.10350207873E+04  0.91401277839E+02 0.  0.
        254    2    1    2    0    0 -0.12389419609E+03  0.10128722919E+04  0.31509905694E+02  0.13780956944E+04  0.92568613320E+03 0.  0.
        -24    2    4    4    0    0  0.36609407323E+03  0.67814520643E+03  0.73739333177E+02  0.77834021499E+03  0.80437612784E+02 0.  0.
         24    2    4    4    0    0 -0.48998826933E+03  0.33472708552E+03 -0.42229427483E+02  0.59975547943E+03  0.76109031658E+02 0.  0.
         11    1    3    3    0    0  0.91739745436E+02 -0.67548063250E+03  0.55561054421E+02  0.68394246581E+03  0.00000000000E+00 0. -1.
        -11    1    3    3    0    0  0.32154450657E+02 -0.33739165945E+03  0.91591196331E+02  0.35107832147E+03  0.00000000000E+00 0.  1.
          4    1    6    6  502    0 -0.15167319019E+02 -0.92814333668E-01  0.69402972907E+01  0.16680045180E+02  0.00000000000E+00 0. -1.
          3    1    5    5  503    0  0.23196684061E+03  0.36008792165E+03  0.18234085080E+02  0.42872416344E+03  0.00000000000E+00 0. -1.
         -4    1    5    5    0  503  0.13412723263E+03  0.31805728477E+03  0.55505248097E+02  0.34961605154E+03  0.00000000000E+00 0.  1.
         -3    1    6    6    0  502 -0.47482095031E+03  0.33481989985E+03 -0.49169724773E+02  0.58307543425E+03  0.00000000000E+00 0.  1.
<mgrwt>
<rscale>  0 0.24064935E+04</rscale>
<asrwt>0</asrwt>
<pdfrwt beam="1">  1        2 0.17188110E+00 0.24064935E+04</pdfrwt>
<pdfrwt beam="2">  1       -2 0.19936759E+00 0.24064935E+04</pdfrwt>
<totfact> 0.25655111E+00</totfact>
</mgrwt>
</event>
<event>
12    1  0.1496989E-007  0.2715403E+04  0.7818608E-02  0.8330025E-01
          2   -1    0    0  501    0  0.00000000000E+00  0.00000000000E+00  0.47329646810E+04  0.47329646810E+04  0.00000000000E+00 0. -1.
         -2   -1    0    0    0  501 -0.00000000000E+00 -0.00000000000E+00 -0.38947111736E+03  0.38947111736E+03  0.00000000000E+00 0.  1.
         23    2    1    2    0    0  0.36502244994E+03 -0.11210859641E+04  0.25491471820E+04  0.28101069268E+04  0.92056812378E+02 0.  0.
        254    2    1    2    0    0 -0.36502244994E+03  0.11210859641E+04  0.17943463817E+04  0.23123288716E+04  0.85855153896E+03 0.  0.
        -24    2    4    4    0    0  0.42443223540E+02 -0.12005190337E+03  0.17889434301E+03  0.23318987013E+03  0.78488488619E+02 0.  0.
         24    2    4    4    0    0 -0.40746567348E+03  0.12411378675E+04  0.16154520387E+04  0.20791390015E+04  0.81744828471E+02 0.  0.
         13    1    3    3    0    0  0.63436270400E+02 -0.17336450268E+03  0.32607833440E+03  0.37470854188E+03  0.00000000000E+00 0.  1.
        -13    1    3    3    0    0  0.30158617954E+03 -0.94772146144E+03  0.22230688476E+04  0.24353983849E+04  0.00000000000E+00 0. -1.
          2    1    6    6  502    0 -0.33682383897E+02  0.69034695299E+02  0.71172481802E+02  0.10471778410E+03  0.00000000000E+00 0. -1.
          1    1    5    5  503    0  0.13504758096E+02 -0.50254120330E+02  0.13753882313E+03  0.14705367377E+03  0.00000000000E+00 0. -1.
         -2    1    5    5    0  503  0.28938465443E+02 -0.69797783036E+02  0.41355519873E+02  0.86136196358E+02  0.00000000000E+00 0.  1.
         -1    1    6    6    0  502 -0.37378328958E+03  0.11721031722E+04  0.15442795569E+04  0.19744212174E+04  0.00000000000E+00 0.  1.
<mgrwt>
<rscale>  0 0.27154028E+04</rscale>
<asrwt>0</asrwt>
<pdfrwt beam="1">  1        2 0.72814837E+00 0.27154028E+04</pdfrwt>
<pdfrwt beam="2">  1       -2 0.59918637E-01 0.27154028E+04</pdfrwt>
<totfact> 0.16139077E-01</totfact>
</mgrwt>
</event>
<event>
12    1  0.1496989E-007  0.2280671E+04  0.7818608E-02  0.8485582E-01
          2   -1    0    0  501    0  0.00000000000E+00  0.00000000000E+00  0.16417325869E+04  0.16417325869E+04  0.00000000000E+00 0. -1.
         -2   -1    0    0    0  501 -0.00000000000E+00 -0.00000000000E+00 -0.79206846224E+03  0.79206846224E+03  0.00000000000E+00 0.  1.
         23    2    1    2    0    0 -0.25589640407E+03  0.83605939161E+03 -0.66933015477E+02  0.88156894781E+03  0.90584244074E+02 0.  0.
        254    2    1    2    0    0  0.25589640407E+03 -0.83605939161E+03  0.91659714017E+03  0.15522321014E+04  0.89710417634E+03 0.  0.
        -24    2    4    4    0    0 -0.26760555044E+03 -0.28010474771E+03  0.58096525839E+02  0.40055091720E+03  0.83632712753E+02 0.  0.
         24    2    4    4    0    0  0.52350195450E+03 -0.55595464390E+03  0.85850061433E+03  0.11516811842E+04  0.78780598462E+02 0.  0.
         13    1    3    3    0    0 -0.23157953216E+03  0.78014775065E+03 -0.84366587426E+02  0.81815482253E+03  0.00000000000E+00 0. -1.
        -13    1    3    3    0    0 -0.24316871908E+02  0.55911640959E+02  0.17433571949E+02  0.63414125280E+02  0.00000000000E+00 0.  1.
          4    1    6    6  502    0  0.13552542639E+03 -0.19107363631E+03  0.23793329176E+03  0.33389897727E+03  0.00000000000E+00 0. -1.
          3    1    5    5  503    0 -0.21247993184E+02 -0.27600911805E+01 -0.95739207215E+01  0.23468175806E+02  0.00000000000E+00 0. -1.
         -4    1    5    5    0  503 -0.24635755725E+03 -0.27734465653E+03  0.67670446560E+02  0.37708274140E+03  0.00000000000E+00 0.  1.
         -3    1    6    6    0  502  0.38797652812E+03 -0.36488100759E+03  0.62056732257E+03  0.81778220689E+03  0.00000000000E+00 0.  1.
<mgrwt>
<rscale>  0 0.22806706E+04</rscale>
<asrwt>0</asrwt>
<pdfrwt beam="1">  1        2 0.25257424E+00 0.22806706E+04</pdfrwt>
<pdfrwt beam="2">  1       -2 0.12185669E+00 0.22806706E+04</pdfrwt>
<totfact> 0.49051968E+00</totfact>
</mgrwt>
</event>
<event>
12    1  0.1496989E-007  0.1429693E+04  0.7818608E-02  0.8932601E-01
          1   -1    0    0  501    0  0.00000000000E+00  0.00000000000E+00  0.21682192272E+04  0.21682192272E+04  0.00000000000E+00 0. -1.
         -1   -1    0    0    0  501 -0.00000000000E+00 -0.00000000000E+00 -0.23567990188E+03  0.23567990188E+03  0.00000000000E+00 0.  1.
         23    2    1    2    0    0  0.40186341933E+01 -0.11894461626E+03  0.12882771536E+04  0.12954583785E+04  0.66260203840E+02 0.  0.
        254    2    1    2    0    0 -0.40186341933E+01  0.11894461626E+03  0.64426217163E+03  0.11084407506E+04  0.89409349654E+03 0.  0.
        -24    2    4    4    0    0  0.19072572903E+03 -0.25766130965E+03 -0.23599608581E+01  0.33097525694E+03  0.82300650587E+02 0.  0.
         24    2    4    4    0    0 -0.19474436323E+03  0.37660592591E+03  0.64662213249E+03  0.77746549362E+03  0.81086503859E+02 0.  0.
         13    1    3    3    0    0 -0.36703366893E+01 -0.11824291836E+03  0.12714822066E+04  0.12769737119E+04  0.00000000000E+00 0. -1.
        -13    1    3    3    0    0  0.76889708826E+01 -0.70169789922E+00  0.16794946993E+02  0.18484666556E+02  0.00000000000E+00 0.  1.
          2    1    6    6  502    0 -0.90169259139E+02  0.25481316826E+03  0.38196322517E+03  0.46792750656E+03  0.00000000000E+00 0. -1.
          1    1    5    5  503    0  0.19303206678E+03 -0.25847870102E+03 -0.10198131095E+02  0.32276403078E+03  0.00000000000E+00 0. -1.
         -2    1    5    5    0  503 -0.23063377435E+01  0.81739137315E+00  0.78381702374E+01  0.82112261638E+01  0.00000000000E+00 0.  1.
         -3    1    6    6    0  502 -0.10457510409E+03  0.12179275764E+03  0.26465890732E+03  0.30953798706E+03  0.00000000000E+00 0.  1.
<mgrwt>
<rscale>  0 0.14296932E+04</rscale>
<asrwt>0</asrwt>
<pdfrwt beam="1">  1        1 0.33357218E+00 0.14296932E+04</pdfrwt>
<pdfrwt beam="2">  1       -1 0.36258448E-01 0.14296932E+04</pdfrwt>
<totfact> 0.16245374E+01</totfact>
</mgrwt>
</event>
<event>
12    1  0.1496989E-007  0.2311564E+04  0.7818608E-02  0.8473376E-01
         -2   -1    0    0    0  501 -0.00000000000E+00  0.00000000000E+00  0.62093525494E+03  0.62093525494E+03  0.00000000000E+00 0. -1.
          2   -1    0    0  501    0  0.00000000000E+00 -0.00000000000E+00 -0.21513224677E+04  0.21513224677E+04  0.00000000000E+00 0.  1.
         23    2    1    2    0    0 -0.11466538258E+03  0.53219690393E+03  0.30082494891E+03  0.62764824296E+03  0.84053390651E+02 0.  0.
        254    2    1    2    0    0  0.11466538258E+03 -0.53219690393E+03 -0.18312121616E+04  0.21446094796E+04  0.97448968428E+03 0.  0.
        -24    2    4    4    0    0 -0.34882438586E+03 -0.30244184890E+03 -0.13650869856E+04  0.14434390009E+04  0.83091196233E+02 0.  0.
         24    2    4    4    0    0  0.46348976844E+03 -0.22975505503E+03 -0.46612517606E+03  0.70117047879E+03  0.82202249380E+02 0.  0.
         11    1    3    3    0    0 -0.12218275332E+03  0.52778634770E+03  0.29283375902E+03  0.61582356601E+03  0.00000000000E+00 0. -1.
        -11    1    3    3    0    0  0.75173707363E+01  0.44105562290E+01  0.79911898851E+01  0.11824676943E+02  0.00000000000E+00 0.  1.
          2    1    6    6  502    0  0.28489725730E+03 -0.10263176700E+03 -0.24174597405E+03  0.38748011921E+03  0.00000000000E+00 0. -1.
          1    1    5    5  503    0 -0.33412432054E+03 -0.29000430956E+03 -0.13436893920E+04  0.14146528702E+04  0.00000000000E+00 0. -1.
         -2    1    5    5    0  503 -0.14700065314E+02 -0.12437539341E+02 -0.21397593608E+02  0.28786130642E+02  0.00000000000E+00 0.  1.
         -1    1    6    6    0  502  0.17859251114E+03 -0.12712328803E+03 -0.22437920201E+03  0.31369035957E+03  0.00000000000E+00 0.  1.
<mgrwt>
<rscale>  0 0.23115639E+04</rscale>
<asrwt>0</asrwt>
<pdfrwt beam="1">  1        2 0.33097270E+00 0.23115639E+04</pdfrwt>
<pdfrwt beam="2">  1       -2 0.95528497E-01 0.23115639E+04</pdfrwt>
<totfact> 0.45821251E+00</totfact>
</mgrwt>
</event>
<event>
12    1  0.1496989E-007  0.1339073E+04  0.7818608E-02  0.8999142E-01
          2   -1    0    0  501    0  0.00000000000E+00  0.00000000000E+00  0.80854714808E+03  0.80854714808E+03  0.00000000000E+00 0. -1.
         -2   -1    0    0    0  501 -0.00000000000E+00 -0.00000000000E+00 -0.55442508377E+03  0.55442508377E+03  0.00000000000E+00 0.  1.
         23    2    1    2    0    0 -0.18123552395E+03  0.20599937579E+03  0.29765084196E+03  0.41591250176E+03  0.95420791420E+02 0.  0.
        254    2    1    2    0    0  0.18123552395E+03 -0.20599937579E+03 -0.43528777653E+02  0.94705973010E+03  0.90539787934E+03 0.  0.
        -24    2    4    4    0    0  0.63497323547E+02 -0.52954258633E+03  0.12785754834E+03  0.55551465968E+03  0.88327366242E+02 0.  0.
         24    2    4    4    0    0  0.11773820040E+03  0.32354321054E+03 -0.17138632599E+03  0.39154507041E+03  0.73428717201E+02 0.  0.
         13    1    3    3    0    0 -0.16224669899E+02 -0.90579167179E+01  0.12013460664E+02  0.22127110198E+02  0.00000000000E+00 0.  1.
        -13    1    3    3    0    0 -0.16501085405E+03  0.21505729251E+03  0.28563738129E+03  0.39378539156E+03  0.00000000000E+00 0. -1.
          4    1    6    6  502    0  0.68798467747E+02  0.27226839271E+03 -0.12989178204E+03  0.30941102417E+03  0.00000000000E+00 0. -1.
          3    1    5    5  503    0  0.69021492023E+02 -0.41336425858E+03  0.13123996230E+03  0.43915589981E+03  0.00000000000E+00 0. -1.
         -4    1    5    5    0  503 -0.55241684754E+01 -0.11617832775E+03 -0.33824139685E+01  0.11635875987E+03  0.00000000000E+00 0.  1.
         -3    1    6    6    0  502  0.48939732653E+02  0.51274817825E+02 -0.41494543944E+02  0.82134046243E+02  0.00000000000E+00 0.  1.
<mgrwt>
<rscale>  0 0.13390725E+04</rscale>
<asrwt>0</asrwt>
<pdfrwt beam="1">  1        2 0.12439187E+00 0.13390725E+04</pdfrwt>
<pdfrwt beam="2">  1       -2 0.85296167E-01 0.13390725E+04</pdfrwt>
<totfact> 0.39698544E+01</totfact>
</mgrwt>
</event>
<event>
12    1  0.1496989E-007  0.2365327E+04  0.7818608E-02  0.8452600E-01
          1   -1    0    0  501    0  0.00000000000E+00  0.00000000000E+00  0.24617590609E+04  0.24617590609E+04  0.00000000000E+00 0. -1.
         -1   -1    0    0    0  501 -0.00000000000E+00 -0.00000000000E+00 -0.56816826886E+03  0.56816826886E+03  0.00000000000E+00 0.  1.
         23    2    1    2    0    0 -0.13353175279E+03  0.27478033588E+03 -0.41986226579E+03  0.52843090653E+03  0.98081286480E+02 0.  0.
        254    2    1    2    0    0  0.13353175279E+03 -0.27478033588E+03  0.23134530579E+04  0.25014964232E+04  0.90115722416E+03 0.  0.
        -24    2    4    4    0    0 -0.30672674618E+03 -0.33830422657E+03  0.82879479377E+03  0.94956121839E+03  0.78959804749E+02 0.  0.
         24    2    4    4    0    0  0.44025849897E+03  0.63523890695E+02  0.14846582641E+04  0.15519352049E+04  0.80186584589E+02 0.  0.
         11    1    3    3    0    0  0.72224069738E+01  0.55905898757E+02 -0.11150253726E+03  0.12494178041E+03  0.00000000000E+00 0. -1.
        -11    1    3    3    0    0 -0.14075415977E+03  0.21887443712E+03 -0.30835972853E+03  0.40348912612E+03  0.00000000000E+00 0.  1.
          2    1    6    6  502    0  0.35645270686E+03  0.51792981641E+02  0.10786321667E+04  0.11371844161E+04  0.00000000000E+00 0. -1.
          3    1    5    5  503    0 -0.30374830350E+03 -0.30661945901E+03  0.77284511329E+03  0.88519381700E+03  0.00000000000E+00 0. -1.
         -4    1    5    5    0  503 -0.29784426732E+01 -0.31684767567E+02  0.55949680477E+02  0.64367401392E+02  0.00000000000E+00 0.  1.
         -1    1    6    6    0  502  0.83805792115E+02  0.11730909054E+02  0.40602609736E+03  0.41475078873E+03  0.00000000000E+00 0.  1.
<mgrwt>
<rscale>  0 0.23653274E+04</rscale>
<asrwt>0</asrwt>
<pdfrwt beam="1">  1        1 0.37873216E+00 0.23653274E+04</pdfrwt>
<pdfrwt beam="2">  1       -1 0.87410504E-01 0.23653274E+04</pdfrwt>
<totfact> 0.16668367E+00</totfact>
</mgrwt>
</event>
<event>
12    1  0.1496989E-007  0.1601649E+04  0.7818608E-02  0.8819535E-01
         -2   -1    0    0    0  501 -0.00000000000E+00  0.00000000000E+00  0.23249484985E+04  0.23249484985E+04  0.00000000000E+00 0.  1.
          2   -1    0    0  501    0  0.00000000000E+00 -0.00000000000E+00 -0.27584268069E+03  0.27584268069E+03  0.00000000000E+00 0. -1.
         23    2    1    2    0    0  0.20938901470E+03 -0.17317735906E+03 -0.45357004335E+02  0.29034304880E+03  0.91693352950E+02 0.  0.
        254    2    1    2    0    0 -0.20938901470E+03  0.17317735906E+03  0.20944628221E+04  0.23104481304E+04  0.93678273508E+03 0.  0.
        -24    2    4    4    0    0 -0.89280803960E+02 -0.35370156292E+03  0.49217290081E+03  0.61759142548E+03  0.78161032274E+02 0.  0.
         24    2    4    4    0    0 -0.12010821074E+03  0.52687892198E+03  0.16022899213E+04  0.16928567049E+04  0.80021563760E+02 0.  0.
         11    1    3    3    0    0  0.93159659729E+02 -0.52853625939E+02 -0.59372643560E+02  0.12246362227E+03  0.00000000000E+00 0.  1.
        -11    1    3    3    0    0  0.11622935497E+03 -0.12032373312E+03  0.14015639225E+02  0.16787942653E+03  0.00000000000E+00 0. -1.
          4    1    6    6  502    0  0.11890719982E+02  0.35349031190E+02  0.10388434360E+03  0.11037617529E+03  0.00000000000E+00 0. -1.
          3    1    5    5  503    0 -0.90369939775E+01  0.21490765029E+00  0.57567932134E+01  0.10717001145E+02  0.00000000000E+00 0. -1.
         -4    1    5    5    0  503 -0.80243809983E+02 -0.35391647057E+03  0.48641610760E+03  0.60687442433E+03  0.00000000000E+00 0.  1.
         -3    1    6    6    0  502 -0.13199893072E+03  0.49152989079E+03  0.14984055777E+04  0.15824805296E+04  0.00000000000E+00 0.  1.
<mgrwt>
<rscale>  0 0.16016492E+04</rscale>
<asrwt>0</asrwt>
<pdfrwt beam="1">  1        2 0.42437337E-01 0.16016492E+04</pdfrwt>
<pdfrwt beam="2">  1       -2 0.35768437E+00 0.16016492E+04</pdfrwt>
<totfact> 0.16181046E+00</totfact>
</mgrwt>
</event>
<event>
12    1  0.1496989E-007  0.1370836E+04  0.7818608E-02  0.8975204E-01
          1   -1    0    0  501    0  0.00000000000E+00  0.00000000000E+00  0.74267278381E+03  0.74267278381E+03  0.00000000000E+00 0. -1.
         -1   -1    0    0    0  501 -0.00000000000E+00 -0.00000000000E+00 -0.63257715011E+03  0.63257715011E+03  0.00000000000E+00 0.  1.
         23    2    1    2    0    0 -0.32352591392E+03 -0.20784258164E+03 -0.16955581550E+02  0.39494266382E+03  0.88457109609E+02 0.  0.
        254    2    1    2    0    0  0.32352591392E+03  0.20784258164E+03  0.12705121525E+03  0.98030727010E+03  0.89274451934E+03 0.  0.
        -24    2    4    4    0    0  0.46825615497E+03  0.11731232352E+03 -0.25696559207E+03  0.55266730780E+03  0.79898871585E+02 0.  0.
         24    2    4    4    0    0 -0.14473024105E+03  0.90530258120E+02  0.38401680732E+03  0.42763996231E+03  0.79148333831E+02 0.  0.
         13    1    3    3    0    0 -0.30723428499E+03 -0.17145559711E+03 -0.56812041413E+00  0.35183838679E+03  0.00000000000E+00 0. -1.
        -13    1    3    3    0    0 -0.16291628925E+02 -0.36386984528E+02 -0.16387461136E+02  0.43104277034E+02  0.00000000000E+00 0.  1.
          2    1    6    6  502    0 -0.12666030892E+03  0.44778807242E+02  0.31881476750E+03  0.34596362730E+03  0.00000000000E+00 0. -1.
          1    1    5    5  503    0  0.40162714446E+03  0.12046884307E+03 -0.24261640470E+03  0.48443763804E+03  0.00000000000E+00 0. -1.
         -2    1    5    5    0  503  0.66629010508E+02 -0.31565195539E+01 -0.14349187378E+02  0.68229669759E+02  0.00000000000E+00 0.  1.
         -1    1    6    6    0  502 -0.18069932131E+02  0.45751450878E+02  0.65202039818E+02  0.81676335012E+02  0.00000000000E+00 0.  1.
<mgrwt>
<rscale>  0 0.13708360E+04</rscale>
<asrwt>0</asrwt>
<pdfrwt beam="1">  1        1 0.11425735E+00 0.13708360E+04</pdfrwt>
<pdfrwt beam="2">  1       -1 0.97319562E-01 0.13708360E+04</pdfrwt>
<totfact> 0.24656380E+01</totfact>
</mgrwt>
</event>
<event>
12    1  0.1496989E-007  0.1726376E+04  0.7818608E-02  0.8746462E-01
          2   -1    0    0  501    0  0.00000000000E+00  0.00000000000E+00  0.20792495014E+04  0.20792495014E+04  0.00000000000E+00 0.  1.
         -2   -1    0    0    0  501 -0.00000000000E+00 -0.00000000000E+00 -0.35834749558E+03  0.35834749558E+03  0.00000000000E+00 0. -1.
         23    2    1    2    0    0 -0.28001564062E+03  0.11681468434E+03 -0.14493899149E+03  0.35029740466E+03  0.98216755115E+02 0.  0.
        254    2    1    2    0    0  0.28001564062E+03 -0.11681468434E+03  0.18658409973E+04  0.20872995923E+04  0.88510029454E+03 0.  0.
        -24    2    4    4    0    0  0.14412904398E+03 -0.28213763849E+03  0.15595029310E+03  0.36218139836E+03  0.80498714460E+02 0.  0.
         24    2    4    4    0    0  0.13588659664E+03  0.16532295415E+03  0.17098907042E+04  0.17251181940E+04  0.80682813836E+02 0.  0.
         13    1    3    3    0    0 -0.24710388012E+03  0.11351543328E+03 -0.15826982917E+03  0.31463537625E+03  0.00000000000E+00 0. -1.
        -13    1    3    3    0    0 -0.32911760505E+02  0.32992510629E+01  0.13330837679E+02  0.35662028410E+02  0.00000000000E+00 0.  1.
          2    1    6    6  502    0  0.47159003337E+02  0.95752518910E+01  0.29133701570E+03  0.29528446244E+03  0.00000000000E+00 0. -1.
          1    1    5    5  503    0  0.50394278158E+02 -0.56293994295E+02  0.69983368813E+02  0.10298674174E+03  0.00000000000E+00 0. -1.
         -2    1    5    5    0  503  0.93734765821E+02 -0.22584364420E+03  0.85966924285E+02  0.25919465662E+03  0.00000000000E+00 0.  1.
         -1    1    6    6    0  502  0.88727593306E+02  0.15574770226E+03  0.14185536885E+04  0.14298337315E+04  0.00000000000E+00 0.  1.
<mgrwt>
<rscale>  0 0.17263764E+04</rscale>
<asrwt>0</asrwt>
<pdfrwt beam="1">  1        2 0.31988453E+00 0.17263764E+04</pdfrwt>
<pdfrwt beam="2">  1       -2 0.55130385E-01 0.17263764E+04</pdfrwt>
<totfact> 0.17732296E+01</totfact>
</mgrwt>
</event>
<event>
12    1  0.1496989E-007  0.1164338E+04  0.7818608E-02  0.9144657E-01
          1   -1    0    0  501    0  0.00000000000E+00  0.00000000000E+00  0.20723527088E+04  0.20723527088E+04  0.00000000000E+00 0. -1.
         -1   -1    0    0    0  501 -0.00000000000E+00 -0.00000000000E+00 -0.16354390281E+03  0.16354390281E+03  0.00000000000E+00 0.  1.
         23    2    1    2    0    0  0.22005270801E+02  0.18744342767E+03  0.61061754672E+03  0.64536598047E+03  0.89577842491E+02 0.  0.
        254    2    1    2    0    0 -0.22005270801E+02 -0.18744342767E+03  0.12981912593E+04  0.15905306312E+04  0.89937082032E+03 0.  0.
        -24    2    4    4    0    0  0.27353985498E+03 -0.37500106078E+03  0.37972606582E+03  0.60461145192E+03  0.76897821075E+02 0.  0.
         24    2    4    4    0    0 -0.29554512578E+03  0.18755763311E+03  0.91846519350E+03  0.98591917926E+03  0.77029405140E+02 0.  0.
         11    1    3    3    0    0 -0.70479127278E+01  0.18144821720E+02  0.12648622424E+02  0.23214118082E+02  0.00000000000E+00 0.  1.
        -11    1    3    3    0    0  0.29053183529E+02  0.16929860595E+03  0.59796892429E+03  0.62215186239E+03  0.00000000000E+00 0. -1.
          2    1    6    6  502    0 -0.12307329276E+03  0.12155737722E+03  0.47633274462E+03  0.50677027828E+03  0.00000000000E+00 0. -1.
          1    1    5    5  503    0  0.20839346276E+02 -0.59676651897E+02  0.29001039909E+02  0.69545966458E+02  0.00000000000E+00 0. -1.
         -2    1    5    5    0  503  0.25270050870E+03 -0.31532440889E+03  0.35072502591E+03  0.53506548547E+03  0.00000000000E+00 0.  1.
         -1    1    6    6    0  502 -0.17247183302E+03  0.66000255888E+02  0.44213244888E+03  0.47914890098E+03  0.00000000000E+00 0.  1.
<mgrwt>
<rscale>  0 0.11643378E+04</rscale>
<asrwt>0</asrwt>
<pdfrwt beam="1">  1        1 0.31882348E+00 0.11643378E+04</pdfrwt>
<pdfrwt beam="2">  1       -1 0.25160602E-01 0.11643378E+04</pdfrwt>
<totfact> 0.36681326E+01</totfact>
</mgrwt>
</event>
<event>
12    1  0.1496989E-007  0.1876224E+04  0.7818608E-02  0.8666783E-01
          1   -1    0    0  501    0  0.00000000000E+00  0.00000000000E+00  0.26277292354E+04  0.26277292354E+04  0.00000000000E+00 0. -1.
         -1   -1    0    0    0  501 -0.00000000000E+00 -0.00000000000E+00 -0.33491045530E+03  0.33491045530E+03  0.00000000000E+00 0.  1.
         23    2    1    2    0    0  0.39013713110E+03  0.49169170818E+03  0.32638707082E+03  0.71333589921E+03  0.91388555873E+02 0.  0.
        254    2    1    2    0    0 -0.39013713110E+03 -0.49169170818E+03  0.19664317093E+04  0.22493037915E+04  0.89361410141E+03 0.  0.
        -24    2    4    4    0    0 -0.20610044817E+03 -0.28544461661E+03  0.11997426468E+03  0.38068206160E+03  0.81049268672E+02 0.  0.
         24    2    4    4    0    0 -0.18403668293E+03 -0.20624709157E+03  0.18464574446E+04  0.18686217299E+04  0.77037077322E+02 0.  0.
         11    1    3    3    0    0  0.31977557274E+03  0.43748999295E+03  0.25266157620E+03  0.59790616567E+03  0.00000000000E+00 0.  1.
        -11    1    3    3    0    0  0.70361558362E+02  0.54201715229E+02  0.73725494620E+02  0.11542973354E+03  0.00000000000E+00 0. -1.
          2    1    6    6  502    0 -0.69554196771E+02 -0.33894973107E+02  0.39687495099E+03  0.40434685879E+03  0.00000000000E+00 0. -1.
          1    1    5    5  503    0 -0.22005192336E+02 -0.77346342299E+02  0.68955207717E+01  0.80710800786E+02  0.00000000000E+00 0. -1.
         -2    1    5    5    0  503 -0.18409525583E+03 -0.20809827431E+03  0.11307874391E+03  0.29997126081E+03  0.00000000000E+00 0.  1.
         -1    1    6    6    0  502 -0.11448248616E+03 -0.17235211846E+03  0.14495824936E+04  0.14642748711E+04  0.00000000000E+00 0.  1.
<mgrwt>
<rscale>  0 0.18762239E+04</rscale>
<asrwt>0</asrwt>
<pdfrwt beam="1">  1        1 0.40426602E+00 0.18762239E+04</pdfrwt>
<pdfrwt beam="2">  1       -1 0.51524687E-01 0.18762239E+04</pdfrwt>
<totfact> 0.39248015E+00</totfact>
</mgrwt>
</event>
<event>
12    1  0.1496989E-007  0.2576782E+04  0.7818608E-02  0.8376131E-01
          1   -1    0    0  501    0  0.00000000000E+00  0.00000000000E+00  0.11690114739E+04  0.11690114739E+04  0.00000000000E+00 0. -1.
         -1   -1    0    0    0  501 -0.00000000000E+00 -0.00000000000E+00 -0.14199610966E+04  0.14199610966E+04  0.00000000000E+00 0.  1.
         23    2    1    2    0    0 -0.84950741994E+03 -0.53405155980E+03  0.41267350550E+03  0.10888429235E+04  0.91681868140E+02 0.  0.
        254    2    1    2    0    0  0.84950741994E+03  0.53405155980E+03 -0.66362312819E+03  0.15001296469E+04  0.89616927878E+03 0.  0.
        -24    2    4    4    0    0  0.62323782989E+03 -0.53228142394E+02 -0.75859305163E+02  0.63557452899E+03  0.83316984916E+02 0.  0.
         24    2    4    4    0    0  0.22626959005E+03  0.58727970219E+03 -0.58776382302E+03  0.86455511792E+03  0.76771506921E+02 0.  0.
         13    1    3    3    0    0 -0.73892866238E+03 -0.46639496780E+03  0.39145031330E+03  0.95748273188E+03  0.00000000000E+00 0. -1.
        -13    1    3    3    0    0 -0.11057875756E+03 -0.67656592002E+02  0.21223192199E+02  0.13136019166E+03  0.00000000000E+00 0.  1.
          2    1    6    6  502    0  0.20599833002E+03  0.45460420644E+03 -0.44607833294E+03  0.66939239285E+03  0.00000000000E+00 0. -1.
          3    1    5    5  503    0  0.51228842782E+03 -0.71785474186E+02 -0.46894767503E+02  0.51941477338E+03  0.00000000000E+00 0. -1.
         -4    1    5    5    0  503  0.11094940207E+03  0.18557331792E+02 -0.28964537660E+02  0.11615975561E+03  0.00000000000E+00 0.  1.
         -3    1    6    6    0  502  0.20271260024E+02  0.13267549575E+03 -0.14168549008E+03  0.19516272507E+03  0.00000000000E+00 0.  1.
<mgrwt>
<rscale>  0 0.25767816E+04</rscale>
<asrwt>0</asrwt>
<pdfrwt beam="1">  1        1 0.17984792E+00 0.25767816E+04</pdfrwt>
<pdfrwt beam="2">  1       -1 0.21845555E+00 0.25767816E+04</pdfrwt>
<totfact> 0.11201277E+00</totfact>
</mgrwt>
</event>
<event>
12    1  0.1496989E-007  0.1117076E+04  0.7818608E-02  0.9188707E-01
          1   -1    0    0  501    0  0.00000000000E+00  0.00000000000E+00  0.12985388614E+04  0.12985388614E+04  0.00000000000E+00 0. -1.
         -1   -1    0    0    0  501 -0.00000000000E+00 -0.00000000000E+00 -0.24024272763E+03  0.24024272763E+03  0.00000000000E+00 0.  1.
         23    2    1    2    0    0  0.14643417225E+03  0.61513250264E+02  0.31771466546E+03  0.36564504406E+03  0.86757379152E+02 0.  0.
        254    2    1    2    0    0 -0.14643417225E+03 -0.61513250264E+02  0.74058146827E+03  0.11731365449E+04  0.89585802176E+03 0.  0.
        -24    2    4    4    0    0 -0.24477871679E+03 -0.41450943453E+03  0.59667205515E+03  0.77073496899E+03  0.79247457491E+02 0.  0.
         24    2    4    4    0    0  0.98344544546E+02  0.35299618427E+03  0.14390941312E+03  0.40240157594E+03  0.83301582139E+02 0.  0.
         11    1    3    3    0    0  0.13169263359E+03  0.70609901198E+02  0.21712874444E+03  0.26357845046E+03  0.00000000000E+00 0.  1.
        -11    1    3    3    0    0  0.14741538662E+02 -0.90966509342E+01  0.10058592102E+03  0.10206659360E+03  0.00000000000E+00 0. -1.
          4    1    6    6  502    0  0.11004188927E+03  0.26989297589E+03  0.10389581924E+03  0.30942814527E+03  0.00000000000E+00 0. -1.
          3    1    5    5  503    0 -0.22715163693E+03 -0.33348669245E+03  0.51617795970E+03  0.65517244011E+03  0.00000000000E+00 0. -1.
         -4    1    5    5    0  503 -0.17627079861E+02 -0.81022742080E+02  0.80494095453E+02  0.11556252888E+03  0.00000000000E+00 0.  1.
         -3    1    6    6    0  502 -0.11697344721E+02  0.83103208380E+02  0.40013593883E+02  0.92973430677E+02  0.00000000000E+00 0.  1.
<mgrwt>
<rscale>  0 0.11170757E+04</rscale>
<asrwt>0</asrwt>
<pdfrwt beam="1">  1        1 0.19977521E+00 0.11170757E+04</pdfrwt>
<pdfrwt beam="2">  1       -1 0.36960420E-01 0.11170757E+04</pdfrwt>
<totfact> 0.63442487E+01</totfact>
</mgrwt>
</event>
<event>
12    1  0.1496989E-007  0.2358548E+04  0.7818608E-02  0.8455188E-01
          2   -1    0    0  501    0  0.00000000000E+00  0.00000000000E+00  0.24643959686E+04  0.24643959686E+04  0.00000000000E+00 0.  1.
         -2   -1    0    0    0  501 -0.00000000000E+00 -0.00000000000E+00 -0.56431158907E+03  0.56431158907E+03  0.00000000000E+00 0. -1.
         23    2    1    2    0    0  0.38342380079E+03 -0.86471679802E+03  0.53089748209E+03  0.10885034908E+04  0.90767622455E+02 0.  0.
        254    2    1    2    0    0 -0.38342380079E+03  0.86471679802E+03  0.13691868974E+04  0.19402040668E+04  0.99748188403E+03 0.  0.
        -24    2    4    4    0    0 -0.15623687502E+03  0.13374679175E+03  0.11047356482E+04  0.11264671316E+04  0.78671346606E+02 0.  0.
         24    2    4    4    0    0 -0.22718692577E+03  0.73097000628E+03  0.26445124919E+03  0.81373693516E+03  0.79386945600E+02 0.  0.
         13    1    3    3    0    0  0.36294433806E+03 -0.85170922059E+03  0.51391296011E+03  0.10588879636E+04  0.00000000000E+00 0. -1.
        -13    1    3    3    0    0  0.20479462735E+02 -0.13007577427E+02  0.16984521972E+02  0.29615527195E+02  0.00000000000E+00 0.  1.
          4    1    6    6  502    0 -0.57541669921E+02  0.27125054076E+03  0.65847257606E+02  0.28499782626E+03  0.00000000000E+00 0. -1.
          1    1    5    5  503    0 -0.54236495182E+02  0.46555894605E+02  0.21254632722E+03  0.22424314916E+03  0.00000000000E+00 0. -1.
         -2    1    5    5    0  503 -0.10200037984E+03  0.87190897141E+02  0.89218932102E+03  0.90222398249E+03  0.00000000000E+00 0.  1.
         -3    1    6    6    0  502 -0.16964525585E+03  0.45971946551E+03  0.19860399158E+03  0.52873910890E+03  0.00000000000E+00 0.  1.
<mgrwt>
<rscale>  0 0.23585480E+04</rscale>
<asrwt>0</asrwt>
<pdfrwt beam="1">  1        2 0.37913784E+00 0.23585480E+04</pdfrwt>
<pdfrwt beam="2">  1       -2 0.86817169E-01 0.23585480E+04</pdfrwt>
<totfact> 0.37808911E+00</totfact>
</mgrwt>
</event>
<event>
12    1  0.1496989E-007  0.1399936E+04  0.7818608E-02  0.8953865E-01
         -2   -1    0    0    0  501 -0.00000000000E+00  0.00000000000E+00  0.32394243207E+03  0.32394243207E+03  0.00000000000E+00 0.  1.
          2   -1    0    0  501    0  0.00000000000E+00 -0.00000000000E+00 -0.15124755990E+04  0.15124755990E+04  0.00000000000E+00 0. -1.
         23    2    1    2    0    0 -0.26214057381E+03 -0.43342668900E+02 -0.75445427412E+03  0.80536479598E+03  0.93887887806E+02 0.  0.
        254    2    1    2    0    0  0.26214057381E+03  0.43342668900E+02 -0.43407889283E+03  0.10310532351E+04  0.89668836341E+03 0.  0.
        -24    2    4    4    0    0 -0.15544778184E+03 -0.28444682478E+03  0.10569037960E+02  0.33397737846E+03  0.79719356177E+02 0.  0.
         24    2    4    4    0    0  0.41758835565E+03  0.32778949368E+03 -0.44464793079E+03  0.69707585666E+03  0.79855999385E+02 0.  0.
         11    1    3    3    0    0 -0.97043263306E+02 -0.19979167958E+02 -0.42154703081E+03  0.43303401863E+03  0.00000000000E+00 0.  1.
        -11    1    3    3    0    0 -0.16509731051E+03 -0.23363500942E+02 -0.33290724331E+03  0.37233077735E+03  0.00000000000E+00 0. -1.
          2    1    6    6  502    0  0.35664282479E+03  0.24244597384E+03 -0.34290216997E+03  0.55095921163E+03  0.00000000000E+00 0. -1.
          1    1    5    5  503    0 -0.89403697834E+02 -0.20870706929E+03 -0.22557354865E+02  0.22816769319E+03  0.00000000000E+00 0. -1.
         -2    1    5    5    0  503 -0.66044084008E+02 -0.75739755498E+02  0.33126392826E+02  0.10580968527E+03  0.00000000000E+00 0.  1.
         -1    1    6    6    0  502  0.60945530862E+02  0.85343519840E+02 -0.10174576083E+03  0.14611664504E+03  0.00000000000E+00 0.  1.
<mgrwt>
<rscale>  0 0.13999357E+04</rscale>
<asrwt>0</asrwt>
<pdfrwt beam="1">  1        2 0.23268855E+00 0.13999357E+04</pdfrwt>
<pdfrwt beam="2">  1       -2 0.49837297E-01 0.13999357E+04</pdfrwt>
<totfact> 0.46298757E+01</totfact>
</mgrwt>
</event>
<event>
12    1  0.1496989E-007  0.1205529E+04  0.7818608E-02  0.9108031E-01
         -2   -1    0    0    0  501 -0.00000000000E+00  0.00000000000E+00  0.14128140284E+03  0.14128140284E+03  0.00000000000E+00 0. -1.
          2   -1    0    0  501    0  0.00000000000E+00 -0.00000000000E+00 -0.25716411804E+04  0.25716411804E+04  0.00000000000E+00 0.  1.
         23    2    1    2    0    0  0.23015266474E+03 -0.12078393602E+02 -0.28587611586E+03  0.37861666731E+03  0.92245815436E+02 0.  0.
        254    2    1    2    0    0 -0.23015266474E+03  0.12078393602E+02 -0.21444836617E+04  0.23343059159E+04  0.89278093461E+03 0.  0.
        -24    2    4    4    0    0  0.59016779069E+02  0.26844986377E+03 -0.17618598446E+04  0.17849403985E+04  0.79459452864E+02 0.  0.
         24    2    4    4    0    0 -0.28916944381E+03 -0.25637147017E+03 -0.38262381710E+03  0.54936551743E+03  0.77821516150E+02 0.  0.
         13    1    3    3    0    0  0.21893141253E+03  0.14099077044E+02 -0.25937266122E+03  0.33971153168E+03  0.00000000000E+00 0. -1.
        -13    1    3    3    0    0  0.11221252206E+02 -0.26177470646E+02 -0.26503454645E+02  0.38905135633E+02  0.00000000000E+00 0.  1.
          2    1    6    6  502    0 -0.56373164055E+01 -0.16867454354E+02 -0.22647682885E+01  0.17928176930E+02  0.00000000000E+00 0. -1.
          1    1    5    5  503    0 -0.91211394316E-01  0.10937568646E+03 -0.50743870388E+03  0.51909256140E+03  0.00000000000E+00 0. -1.
         -2    1    5    5    0  503  0.59107990464E+02  0.15907417731E+03 -0.12544211407E+04  0.12658478371E+04  0.00000000000E+00 0.  1.
         -1    1    6    6    0  502 -0.28353212740E+03 -0.23950401582E+03 -0.38035904881E+03  0.53143734050E+03  0.00000000000E+00 0.  1.
<mgrwt>
<rscale>  0 0.12055291E+04</rscale>
<asrwt>0</asrwt>
<pdfrwt beam="1">  1        2 0.39563713E+00 0.12055291E+04</pdfrwt>
<pdfrwt beam="2">  1       -2 0.21735599E-01 0.12055291E+04</pdfrwt>
<totfact> 0.57961107E+01</totfact>
</mgrwt>
</event>
<event>
12    1  0.1496989E-007  0.2364313E+04  0.7818608E-02  0.8452987E-01
         -1   -1    0    0    0  501 -0.00000000000E+00  0.00000000000E+00  0.67677702285E+03  0.67677702285E+03  0.00000000000E+00 0.  1.
          1   -1    0    0  501    0  0.00000000000E+00 -0.00000000000E+00 -0.20649245174E+04  0.20649245174E+04  0.00000000000E+00 0. -1.
         23    2    1    2    0    0  0.62415615571E+03  0.19792782736E+03  0.29483392099E+03  0.72363290387E+03  0.89281616477E+02 0.  0.
        254    2    1    2    0    0 -0.62415615571E+03 -0.19792782736E+03 -0.16829814155E+04  0.20180686364E+04  0.90079311970E+03 0.  0.
        -24    2    4    4    0    0 -0.84631654109E+03 -0.11831113545E+03 -0.13863037055E+04  0.16305413243E+04  0.81103846192E+02 0.  0.
         24    2    4    4    0    0  0.22216038538E+03 -0.79616691917E+02 -0.29667771001E+03  0.38752731205E+03  0.80409573442E+02 0.  0.
         13    1    3    3    0    0  0.11381900920E+03  0.48145671122E+02  0.20789805551E+02  0.12531954564E+03  0.00000000000E+00 0. -1.
        -13    1    3    3    0    0  0.51033714651E+03  0.14978215624E+03  0.27404411544E+03  0.59831335823E+03  0.00000000000E+00 0.  1.
          4    1    6    6  502    0  0.10002955444E+03 -0.70835411661E+02 -0.11257285835E+03  0.16642180069E+03  0.00000000000E+00 0. -1.
          1    1    5    5  503    0 -0.67235361073E+03 -0.77270705029E+02 -0.10397377940E+04  0.12405985733E+04  0.00000000000E+00 0. -1.
         -2    1    5    5    0  503 -0.17396293037E+03 -0.41040430419E+02 -0.34656591152E+03  0.38994275105E+03  0.00000000000E+00 0.  1.
         -3    1    6    6    0  502  0.12213083094E+03 -0.87812802561E+01 -0.18410485166E+03  0.22110551136E+03  0.00000000000E+00 0.  1.
<mgrwt>
<rscale>  0 0.23643126E+04</rscale>
<asrwt>0</asrwt>
<pdfrwt beam="1">  1        1 0.31768069E+00 0.23643126E+04</pdfrwt>
<pdfrwt beam="2">  1       -1 0.10411954E+00 0.23643126E+04</pdfrwt>
<totfact> 0.21007173E+00</totfact>
</mgrwt>
</event>
<event>
12    1  0.1496989E-007  0.1431217E+04  0.7818608E-02  0.8931527E-01
         -1   -1    0    0    0  501 -0.00000000000E+00  0.00000000000E+00  0.10549921438E+04  0.10549921438E+04  0.00000000000E+00 0.  1.
          1   -1    0    0  501    0  0.00000000000E+00 -0.00000000000E+00 -0.48540234452E+03  0.48540234452E+03  0.00000000000E+00 0. -1.
         23    2    1    2    0    0  0.30586631060E+03  0.52453096431E+02  0.47276332315E+03  0.57273742971E+03  0.90650297258E+02 0.  0.
        254    2    1    2    0    0 -0.30586631060E+03 -0.52453096431E+02  0.96826476120E+02  0.96765705860E+03  0.91141609010E+03 0.  0.
        -24    2    4    4    0    0  0.93462371182E+02 -0.39208368457E+03  0.14476666777E+03  0.43540058384E+03  0.78431178571E+02 0.  0.
         24    2    4    4    0    0 -0.39932868178E+03  0.33963058814E+03 -0.47940191647E+02  0.53225647477E+03  0.78653419894E+02 0.  0.
         11    1    3    3    0    0  0.59367582802E+02 -0.35416951442E+01  0.15937101126E+03  0.17010635709E+03  0.00000000000E+00 0. -1.
        -11    1    3    3    0    0  0.24649872780E+03  0.55994791575E+02  0.31339231189E+03  0.40263107262E+03  0.00000000000E+00 0.  1.
          4    1    6    6  502    0 -0.73176565493E+02  0.31800093730E+02 -0.23208688082E+02  0.83094517876E+02  0.00000000000E+00 0. -1.
          1    1    5    5  503    0  0.53504766510E+02 -0.22797899931E+03  0.12472118746E+03  0.26531596026E+03  0.00000000000E+00 0. -1.
         -2    1    5    5    0  503  0.39957604672E+02 -0.16410468526E+03  0.20045480304E+02  0.17008462358E+03  0.00000000000E+00 0.  1.
         -3    1    6    6    0  502 -0.32615211629E+03  0.30783049441E+03 -0.24731503565E+02  0.44916195689E+03  0.00000000000E+00 0.  1.
<mgrwt>
<rscale>  0 0.14312172E+04</rscale>
<asrwt>0</asrwt>
<pdfrwt beam="1">  1        1 0.74677284E-01 0.14312172E+04</pdfrwt>
<pdfrwt beam="2">  1       -1 0.16230648E+00 0.14312172E+04</pdfrwt>
<totfact> 0.12607783E+01</totfact>
</mgrwt>
</event>
<event>
12    1  0.1496989E-007  0.1446782E+04  0.7818608E-02  0.8920634E-01
          2   -1    0    0  501    0  0.00000000000E+00  0.00000000000E+00  0.28181219225E+04  0.28181219225E+04  0.00000000000E+00 0. -1.
         -2   -1    0    0    0  501 -0.00000000000E+00 -0.00000000000E+00 -0.18568911728E+03  0.18568911728E+03  0.00000000000E+00 0.  1.
         23    2    1    2    0    0  0.43155561231E+03 -0.47348516751E+02  0.88804282409E+03  0.99256708541E+03  0.89929044548E+02 0.  0.
        254    2    1    2    0    0 -0.43155561231E+03  0.47348516751E+02  0.17443899811E+04  0.20112439543E+04  0.90206635519E+03 0.  0.
        -24    2    4    4    0    0 -0.15564116313E+03 -0.25262209427E+03  0.14963980193E+04  0.15277502221E+04  0.82289822368E+02 0.  0.
         24    2    4    4    0    0 -0.27591444918E+03  0.29997061102E+03  0.24799196181E+03  0.48349373223E+03  0.78453968930E+02 0.  0.
         13    1    3    3    0    0 -0.39180357317E+01  0.12942246179E+01  0.17319987690E+02  0.17804718334E+02  0.00000000000E+00 0.  1.
        -13    1    3    3    0    0  0.43547364805E+03 -0.48642741369E+02  0.87072283640E+03  0.97476236707E+03  0.00000000000E+00 0. -1.
          2    1    6    6  502    0 -0.24225944892E+03  0.26706840216E+03  0.24578174822E+03  0.43637580109E+03  0.00000000000E+00 0. -1.
          1    1    5    5  503    0 -0.12162359233E+03 -0.18421476601E+03  0.12636094202E+04  0.12827455496E+04  0.00000000000E+00 0. -1.
         -2    1    5    5    0  503 -0.34017570797E+02 -0.68407328263E+02  0.23278859908E+03  0.24500467250E+03  0.00000000000E+00 0.  1.
         -1    1    6    6    0  502 -0.33655000265E+02  0.32902208864E+02  0.22102135944E+01  0.47117931142E+02  0.00000000000E+00 0.  1.
<mgrwt>
<rscale>  0 0.14467820E+04</rscale>
<asrwt>0</asrwt>
<pdfrwt beam="1">  1        2 0.43355719E+00 0.14467820E+04</pdfrwt>
<pdfrwt beam="2">  1       -2 0.28567558E-01 0.14467820E+04</pdfrwt>
<totfact> 0.24716326E+01</totfact>
</mgrwt>
</event>
<event>
12    1  0.1496989E-007  0.1540400E+04  0.7818608E-02  0.8858023E-01
         -2   -1    0    0    0  501 -0.00000000000E+00  0.00000000000E+00  0.50078582422E+03  0.50078582422E+03  0.00000000000E+00 0.  1.
          2   -1    0    0  501    0  0.00000000000E+00 -0.00000000000E+00 -0.11845544201E+04  0.11845544201E+04  0.00000000000E+00 0. -1.
         23    2    1    2    0    0 -0.39230972490E+03  0.10977639112E+03  0.11206148111E+03  0.43209251367E+03  0.90489715032E+02 0.  0.
        254    2    1    2    0    0  0.39230972490E+03 -0.10977639112E+03 -0.79583007703E+03  0.12532477307E+04  0.87825200636E+03 0.  0.
        -24    2    4    4    0    0  0.42484570513E+03 -0.62208780654E+02  0.14063890390E+02  0.43734135121E+03  0.81889308850E+02 0.  0.
         24    2    4    4    0    0 -0.32535980230E+02 -0.47567610468E+02 -0.80989396742E+03  0.81590637949E+03  0.80335011348E+02 0.  0.
         11    1    3    3    0    0 -0.31285325729E+03  0.48654068732E+02  0.76490158339E+02  0.32572246365E+03  0.00000000000E+00 0.  1.
        -11    1    3    3    0    0 -0.79456467608E+02  0.61122322390E+02  0.35571322767E+02  0.10637005003E+03  0.00000000000E+00 0. -1.
          2    1    6    6  502    0 -0.57384132921E+02 -0.38530749435E+02 -0.47950988736E+03  0.48446598378E+03  0.00000000000E+00 0. -1.
          3    1    5    5  503    0  0.40949423166E+03 -0.58747726975E+02  0.30218134807E+02  0.41478905104E+03  0.00000000000E+00 0. -1.
         -4    1    5    5    0  503  0.15351473467E+02 -0.34610536787E+01 -0.16154244417E+02  0.22552300167E+02  0.00000000000E+00 0.  1.
         -1    1    6    6    0  502  0.24848152691E+02 -0.90368610329E+01 -0.33038408006E+03  0.33144039571E+03  0.00000000000E+00 0.  1.
<mgrwt>
<rscale>  0 0.15404000E+04</rscale>
<asrwt>0</asrwt>
<pdfrwt beam="1">  1        2 0.18223914E+00 0.15404000E+04</pdfrwt>
<pdfrwt beam="2">  1       -2 0.77043974E-01 0.15404000E+04</pdfrwt>
<totfact> 0.28036765E+01</totfact>
</mgrwt>
</event>
<event>
12    1  0.1496989E-007  0.1895129E+04  0.7818608E-02  0.8657285E-01
         -1   -1    0    0    0  501 -0.00000000000E+00  0.00000000000E+00  0.48858311124E+03  0.48858311124E+03  0.00000000000E+00 0.  1.
          1   -1    0    0  501    0  0.00000000000E+00 -0.00000000000E+00 -0.18377192849E+04  0.18377192849E+04  0.00000000000E+00 0. -1.
         23    2    1    2    0    0 -0.15734568057E+03  0.46877836712E+03 -0.11914214834E+04  0.12935605872E+04  0.96452169490E+02 0.  0.
        254    2    1    2    0    0  0.15734568057E+03 -0.46877836712E+03 -0.15771469027E+03  0.10327418089E+04  0.89284427519E+03 0.  0.
        -24    2    4    4    0    0  0.48126506260E+03 -0.41134477027E+03  0.43318686292E+02  0.63928303900E+03  0.77367401733E+02 0.  0.
         24    2    4    4    0    0 -0.32391938203E+03 -0.57433596853E+02 -0.20103337656E+03  0.39345876995E+03  0.78568448194E+02 0.  0.
         11    1    3    3    0    0 -0.91668780454E+02  0.14327505287E+03 -0.45427334705E+03  0.48507234504E+03  0.00000000000E+00 0.  1.
        -11    1    3    3    0    0 -0.65676900117E+02  0.32550331426E+03 -0.73714813636E+03  0.80848824217E+03  0.00000000000E+00 0. -1.
          2    1    6    6  502    0 -0.22154637080E+03 -0.28309933879E+02 -0.17537941972E+03  0.28397568141E+03  0.00000000000E+00 0. -1.
          3    1    5    5  503    0  0.31896715571E+03 -0.31885232922E+03  0.31651564555E+02  0.45211577700E+03  0.00000000000E+00 0. -1.
         -4    1    5    5    0  503  0.16229790690E+03 -0.92492441051E+02  0.11667121737E+02  0.18716726200E+03  0.00000000000E+00 0.  1.
         -1    1    6    6    0  502 -0.10237301123E+03 -0.29123662974E+02 -0.25653956844E+02  0.10948308854E+03  0.00000000000E+00 0.  1.
<mgrwt>
<rscale>  0 0.18951291E+04</rscale>
<asrwt>0</asrwt>
<pdfrwt beam="1">  1        1 0.28272605E+00 0.18951291E+04</pdfrwt>
<pdfrwt beam="2">  1       -1 0.75166631E-01 0.18951291E+04</pdfrwt>
<totfact> 0.63966746E+00</totfact>
</mgrwt>
</event>
<event>
12    1  0.1496989E-007  0.2348899E+04  0.7818608E-02  0.8458887E-01
         -2   -1    0    0    0  501 -0.00000000000E+00  0.00000000000E+00  0.55635801325E+03  0.55635801325E+03  0.00000000000E+00 0. -1.
          2   -1    0    0  501    0  0.00000000000E+00 -0.00000000000E+00 -0.24792150040E+04  0.24792150040E+04  0.00000000000E+00 0.  1.
         23    2    1    2    0    0 -0.51078959944E+03  0.47792245372E+03  0.22359538920E+02  0.70569911893E+03  0.90528508266E+02 0.  0.
        254    2    1    2    0    0  0.51078959944E+03 -0.47792245372E+03 -0.19452165296E+04  0.23298738983E+04  0.10747693464E+04 0.  0.
        -24    2    4    4    0    0  0.71959190316E+03 -0.28161925915E+01 -0.13791513326E+04  0.15576952968E+04  0.80844303304E+02 0.  0.
         24    2    4    4    0    0 -0.20880230373E+03 -0.47510626113E+03 -0.56606519704E+03  0.77217860150E+03  0.80657447895E+02 0.  0.
         13    1    3    3    0    0 -0.78489561761E+02  0.92320710754E+02 -0.27545136096E+02  0.12426769275E+03  0.00000000000E+00 0.  1.
        -13    1    3    3    0    0 -0.43230003768E+03  0.38560174297E+03  0.49904675016E+02  0.58143142618E+03  0.00000000000E+00 0. -1.
          4    1    6    6  502    0 -0.19383591194E+03 -0.35912044930E+03 -0.43208600383E+03  0.59433843269E+03  0.00000000000E+00 0. -1.
          3    1    5    5  503    0  0.38033098763E+03  0.34293153768E+02 -0.68802135456E+03  0.78689329955E+03  0.00000000000E+00 0. -1.
         -4    1    5    5    0  503  0.33926091553E+03 -0.37109346360E+02 -0.69112997804E+03  0.77080199723E+03  0.00000000000E+00 0.  1.
         -3    1    6    6    0  502 -0.14966391791E+02 -0.11598581183E+03 -0.13397919321E+03  0.17784016881E+03  0.00000000000E+00 0.  1.
<mgrwt>
<rscale>  0 0.23488986E+04</rscale>
<asrwt>0</asrwt>
<pdfrwt beam="1">  1        2 0.38141769E+00 0.23488986E+04</pdfrwt>
<pdfrwt beam="2">  1       -2 0.85593540E-01 0.23488986E+04</pdfrwt>
<totfact> 0.38324217E+00</totfact>
</mgrwt>
</event>
<event>
12    1  0.1496989E-007  0.1592026E+04  0.7818608E-02  0.8825462E-01
          1   -1    0    0  501    0  0.00000000000E+00  0.00000000000E+00  0.22491643179E+04  0.22491643179E+04  0.00000000000E+00 0. -1.
         -1   -1    0    0    0  501 -0.00000000000E+00 -0.00000000000E+00 -0.28172087052E+03  0.28172087052E+03  0.00000000000E+00 0.  1.
         23    2    1    2    0    0  0.18379585401E+03  0.13502149716E+03 -0.97860086834E+02  0.26492552663E+03  0.92721181060E+02 0.  0.
        254    2    1    2    0    0 -0.18379585401E+03 -0.13502149716E+03  0.20653035343E+04  0.22659596618E+04  0.90392631328E+03 0.  0.
        -24    2    4    4    0    0 -0.52639315159E+03  0.40140363622E+02  0.10650684235E+04  0.11913852705E+04  0.79543178477E+02 0.  0.
         24    2    4    4    0    0  0.34259729758E+03 -0.17516186078E+03  0.10002351108E+04  0.10745743913E+04  0.78646423408E+02 0.  0.
         13    1    3    3    0    0  0.18385003492E+03  0.14608424643E+03 -0.96090781621E+02  0.25372205404E+03  0.00000000000E+00 0.  1.
        -13    1    3    3    0    0 -0.54180914943E-01 -0.11062749269E+02 -0.17693052136E+01  0.11203472582E+02  0.00000000000E+00 0. -1.
          4    1    6    6  502    0  0.12319864367E+03 -0.22246717903E+02  0.30704414354E+03  0.33158547668E+03  0.00000000000E+00 0. -1.
          1    1    5    5  503    0 -0.22318795554E+03 -0.73830023858E+01  0.38091623448E+03  0.44154790217E+03  0.00000000000E+00 0. -1.
         -2    1    5    5    0  503 -0.30320519605E+03  0.47523366008E+02  0.68415218903E+03  0.74983736835E+03  0.00000000000E+00 0.  1.
         -3    1    6    6    0  502  0.21939865391E+03 -0.15291514288E+03  0.69319096721E+03  0.74298891464E+03  0.00000000000E+00 0.  1.
<mgrwt>
<rscale>  0 0.15920258E+04</rscale>
<asrwt>0</asrwt>
<pdfrwt beam="1">  1        1 0.34602527E+00 0.15920258E+04</pdfrwt>
<pdfrwt beam="2">  1       -1 0.43341674E-01 0.15920258E+04</pdfrwt>
<totfact> 0.10180582E+01</totfact>
</mgrwt>
</event>
<event>
12    1  0.1496989E-007  0.1733193E+04  0.7818608E-02  0.8742657E-01
          2   -1    0    0  501    0  0.00000000000E+00  0.00000000000E+00  0.38602570385E+04  0.38602570385E+04  0.00000000000E+00 0.  1.
         -2   -1    0    0    0  501 -0.00000000000E+00 -0.00000000000E+00 -0.19454381467E+03  0.19454381467E+03  0.00000000000E+00 0. -1.
         23    2    1    2    0    0  0.82487330212E+02  0.36077323042E+03  0.15223986476E+03  0.41048616999E+03  0.91435419253E+02 0.  0.
        254    2    1    2    0    0 -0.82487330212E+02 -0.36077323042E+03  0.35134733591E+04  0.36443146832E+04  0.89418844869E+03 0.  0.
        -24    2    4    4    0    0 -0.32354856663E+03  0.51037610680E+01  0.26680536202E+04  0.26888056133E+04  0.80347883564E+02 0.  0.
         24    2    4    4    0    0  0.24106123642E+03 -0.36587699149E+03  0.84541973888E+03  0.95550906992E+03  0.79287799841E+02 0.  0.
         11    1    3    3    0    0 -0.82162293715E+01  0.47108498692E+02  0.47949894247E+02  0.67719343118E+02  0.00000000000E+00 0.  1.
        -11    1    3    3    0    0  0.90703559584E+02  0.31366473173E+03  0.10428997052E+03  0.34276682687E+03  0.00000000000E+00 0. -1.
          2    1    6    6  502    0  0.12106944009E+03 -0.16777382401E+03  0.31678567202E+03  0.37836361789E+03  0.00000000000E+00 0. -1.
          3    1    5    5  503    0 -0.22412014157E+03 -0.32645291674E+02  0.18875732119E+04  0.19011123542E+04  0.00000000000E+00 0. -1.
         -4    1    5    5    0  503 -0.99428425067E+02  0.37749052742E+02  0.78048040827E+03  0.78769325907E+03  0.00000000000E+00 0.  1.
         -3    1    6    6    0  502  0.11999179633E+03 -0.19810316748E+03  0.52863406686E+03  0.57714545203E+03  0.00000000000E+00 0.  1.
<mgrwt>
<rscale>  0 0.17331926E+04</rscale>
<asrwt>0</asrwt>
<pdfrwt beam="1">  1        2 0.59388564E+00 0.17331926E+04</pdfrwt>
<pdfrwt beam="2">  1       -2 0.29929821E-01 0.17331926E+04</pdfrwt>
<totfact> 0.43771006E+00</totfact>
</mgrwt>
</event>
<event>
12    1  0.1496989E-007  0.2607281E+04  0.7818608E-02  0.8365732E-01
         -1   -1    0    0    0  501 -0.00000000000E+00  0.00000000000E+00  0.14016364281E+04  0.14016364281E+04  0.00000000000E+00 0.  1.
          1   -1    0    0  501    0  0.00000000000E+00 -0.00000000000E+00 -0.12124959379E+04  0.12124959379E+04  0.00000000000E+00 0. -1.
         23    2    1    2    0    0  0.58800691428E+03 -0.72167271409E+03 -0.59259798808E+03  0.11072192253E+04  0.90545016349E+02 0.  0.
        254    2    1    2    0    0 -0.58800691428E+03  0.72167271409E+03  0.78173847825E+03  0.15069131406E+04  0.89056640826E+03 0.  0.
        -24    2    4    4    0    0 -0.16757205095E+03  0.97101366927E+02 -0.18463323739E+03  0.27920784762E+03  0.79740341767E+02 0.  0.
         24    2    4    4    0    0 -0.42043486333E+03  0.62457134716E+03  0.96637171565E+03  0.12277052930E+04  0.80815541088E+02 0.  0.
         13    1    3    3    0    0  0.19860560154E+03 -0.30533473409E+03 -0.25589734232E+03  0.44514821645E+03  0.00000000000E+00 0.  1.
        -13    1    3    3    0    0  0.38940131275E+03 -0.41633798000E+03 -0.33670064576E+03  0.66207100889E+03  0.00000000000E+00 0. -1.
          2    1    6    6  502    0 -0.22093291207E+03  0.26893326281E+03  0.48236674910E+03  0.59482277370E+03  0.00000000000E+00 0. -1.
          3    1    5    5  503    0 -0.12489029164E+03  0.28151439987E+02 -0.12061228281E+03  0.17589033880E+03  0.00000000000E+00 0. -1.
         -4    1    5    5    0  503 -0.42681759303E+02  0.68949926940E+02 -0.64020954587E+02  0.10331750882E+03  0.00000000000E+00 0.  1.
         -1    1    6    6    0  502 -0.19950195126E+03  0.35563808435E+03  0.48400496655E+03  0.63288251931E+03  0.00000000000E+00 0.  1.
<mgrwt>
<rscale>  0 0.26072809E+04</rscale>
<asrwt>0</asrwt>
<pdfrwt beam="1">  1        1 0.18653784E+00 0.26072809E+04</pdfrwt>
<pdfrwt beam="2">  1       -1 0.21563637E+00 0.26072809E+04</pdfrwt>
<totfact> 0.10843741E+00</totfact>
</mgrwt>
</event>
<event>
12    1  0.1496989E-007  0.1770594E+04  0.7818608E-02  0.8722095E-01
         -1   -1    0    0    0  501 -0.00000000000E+00  0.00000000000E+00  0.43491803390E+03  0.43491803390E+03  0.00000000000E+00 0.  1.
          1   -1    0    0  501    0  0.00000000000E+00 -0.00000000000E+00 -0.18020661111E+04  0.18020661111E+04  0.00000000000E+00 0. -1.
         23    2    1    2    0    0  0.77825616836E+02 -0.11411419008E+02 -0.13280848963E+04  0.13334643040E+04  0.90169347407E+02 0.  0.
        254    2    1    2    0    0 -0.77825616836E+02  0.11411419008E+02 -0.39063180909E+02  0.90351984098E+03  0.89924141576E+03 0.  0.
        -24    2    4    4    0    0 -0.34361953216E+03 -0.31535707031E+03 -0.11288114591E+02  0.47331663714E+03  0.79854572698E+02 0.  0.
         24    2    4    4    0    0  0.26579391532E+03  0.32676848932E+03 -0.27775066318E+02  0.43020320385E+03  0.82941492964E+02 0.  0.
         13    1    3    3    0    0  0.49208445323E+02 -0.23859757529E+02 -0.30243188422E+03  0.30733662931E+03  0.00000000000E+00 0.  1.
        -13    1    3    3    0    0  0.28617171513E+02  0.12448338521E+02 -0.10256530121E+04  0.10261276747E+04  0.00000000000E+00 0. -1.
          2    1    6    6  502    0  0.69191548445E+02  0.13481788998E+03 -0.34249465143E+02  0.15535880952E+03  0.00000000000E+00 0. -1.
          1    1    5    5  503    0 -0.12680975433E+03 -0.15211280974E+03  0.24597048427E+02  0.19955960381E+03  0.00000000000E+00 0. -1.
         -2    1    5    5    0  503 -0.21680977783E+03 -0.16324426057E+03 -0.35885163018E+02  0.27375703333E+03  0.00000000000E+00 0.  1.
         -1    1    6    6    0  502  0.19660236688E+03  0.19195059934E+03  0.64743988253E+01  0.27484439432E+03  0.00000000000E+00 0.  1.
<mgrwt>
<rscale>  0 0.17705943E+04</rscale>
<asrwt>0</asrwt>
<pdfrwt beam="1">  1        1 0.27724093E+00 0.17705943E+04</pdfrwt>
<pdfrwt beam="2">  1       -1 0.66910468E-01 0.17705943E+04</pdfrwt>
<totfact> 0.86924324E+00</totfact>
</mgrwt>
</event>
<event>
12    1  0.1496989E-007  0.1281033E+04  0.7818608E-02  0.9044743E-01
          1   -1    0    0  501    0  0.00000000000E+00  0.00000000000E+00  0.45035358438E+03  0.45035358438E+03  0.00000000000E+00 0. -1.
         -1   -1    0    0    0  501 -0.00000000000E+00 -0.00000000000E+00 -0.91097656326E+03  0.91097656326E+03  0.00000000000E+00 0.  1.
         23    2    1    2    0    0 -0.24115869797E+02  0.25797768451E+03  0.71617840088E+02  0.28392265007E+03  0.91372289688E+02 0.  0.
        254    2    1    2    0    0  0.24115869797E+02 -0.25797768451E+03 -0.53224081897E+03  0.10774074976E+04  0.90021806556E+03 0.  0.
        -24    2    4    4    0    0 -0.16992768886E+03 -0.45141353095E+03 -0.60967021838E+03  0.78152547448E+03  0.80216561414E+02 0.  0.
         24    2    4    4    0    0  0.19404355866E+03  0.19343584643E+03  0.77429399409E+02  0.29588202309E+03  0.80501741291E+02 0.  0.
         13    1    3    3    0    0 -0.58901452428E+02  0.14519253501E+03  0.38813287782E+02  0.16142095474E+03  0.00000000000E+00 0. -1.
        -13    1    3    3    0    0  0.34785582631E+02  0.11278514950E+03  0.32804552306E+02  0.12250169533E+03  0.00000000000E+00 0.  1.
          2    1    6    6  502    0  0.12441938250E+03  0.99988385463E+02  0.71096729648E+01  0.15977611655E+03  0.00000000000E+00 0. -1.
          3    1    5    5  503    0 -0.14840821496E+03 -0.40243259966E+03 -0.49495638610E+03  0.65494947872E+03  0.00000000000E+00 0. -1.
         -4    1    5    5    0  503 -0.21519473897E+02 -0.48980931285E+02 -0.11471383228E+03  0.12657599576E+03  0.00000000000E+00 0.  1.
         -1    1    6    6    0  502  0.69624176155E+02  0.93447460971E+02  0.70319726444E+02  0.13610590654E+03  0.00000000000E+00 0.  1.
<mgrwt>
<rscale>  0 0.12810333E+04</rscale>
<asrwt>0</asrwt>
<pdfrwt beam="1">  1        1 0.69285167E-01 0.12810333E+04</pdfrwt>
<pdfrwt beam="2">  1       -1 0.14015024E+00 0.12810333E+04</pdfrwt>
<totfact> 0.21039156E+01</totfact>
</mgrwt>
</event>
<event>
12    1  0.1496989E-007  0.1476306E+04  0.7818608E-02  0.8900364E-01
         -1   -1    0    0    0  501 -0.00000000000E+00  0.00000000000E+00  0.24052369687E+03  0.24052369687E+03  0.00000000000E+00 0.  1.
          1   -1    0    0  501    0  0.00000000000E+00 -0.00000000000E+00 -0.22653489393E+04  0.22653489393E+04  0.00000000000E+00 0. -1.
         23    2    1    2    0    0 -0.13244433144E+03  0.53517139727E+02 -0.13758645571E+04  0.13862736517E+04  0.91355199690E+02 0.  0.
        254    2    1    2    0    0  0.13244433144E+03 -0.53517139727E+02 -0.64896068526E+03  0.11195989845E+04  0.90108064561E+03 0.  0.
        -24    2    4    4    0    0  0.50335322653E+02 -0.37131158975E+03  0.48138533205E+01  0.38286068717E+03  0.78442279494E+02 0.  0.
         24    2    4    4    0    0  0.82109008784E+02  0.31779445002E+03 -0.65377453858E+03  0.73673829732E+03  0.87332523445E+02 0.  0.
         13    1    3    3    0    0 -0.25298965457E+02  0.55967096031E+02 -0.43209919198E+03  0.43644251076E+03  0.00000000000E+00 0. -1.
        -13    1    3    3    0    0 -0.10714536598E+03 -0.24499563034E+01 -0.94376536517E+03  0.94983114090E+03  0.00000000000E+00 0.  1.
          4    1    6    6  502    0  0.85555486634E+02  0.30695416069E+03 -0.57715300630E+03  0.65927702124E+03  0.00000000000E+00 0. -1.
          3    1    5    5  503    0  0.39262152775E+02 -0.33925643618E+03 -0.17987990290E+02  0.34199417236E+03  0.00000000000E+00 0. -1.
         -4    1    5    5    0  503  0.11073169878E+02 -0.32055153565E+02  0.22801843610E+02  0.40866514816E+02  0.00000000000E+00 0.  1.
         -3    1    6    6    0  502 -0.34464778497E+01  0.10840289334E+02 -0.76621532277E+02  0.77461276074E+02  0.00000000000E+00 0.  1.
<mgrwt>
<rscale>  0 0.14763063E+04</rscale>
<asrwt>0</asrwt>
<pdfrwt beam="1">  1        1 0.34851523E+00 0.14763063E+04</pdfrwt>
<pdfrwt beam="2">  1       -1 0.37003644E-01 0.14763063E+04</pdfrwt>
<totfact> 0.13393977E+01</totfact>
</mgrwt>
</event>
<event>
12    1  0.1496989E-007  0.2038597E+04  0.7818608E-02  0.8588785E-01
         -1   -1    0    0    0  501 -0.00000000000E+00  0.00000000000E+00  0.11418016555E+04  0.11418016555E+04  0.00000000000E+00 0.  1.
          1   -1    0    0  501    0  0.00000000000E+00 -0.00000000000E+00 -0.90993868590E+03  0.90993868590E+03  0.00000000000E+00 0. -1.
         23    2    1    2    0    0 -0.34499958564E+03  0.66427767580E+03  0.15644657632E+03  0.77016249839E+03  0.91570726942E+02 0.  0.
        254    2    1    2    0    0  0.34499958564E+03 -0.66427767580E+03  0.75416393233E+02  0.12815778430E+04  0.10375281156E+04 0.  0.
        -24    2    4    4    0    0 -0.26339115606E+03 -0.54179089501E+03 -0.13225457743E+03  0.62225123129E+03  0.82419940469E+02 0.  0.
         24    2    4    4    0    0  0.60839074170E+03 -0.12248678079E+03  0.20767097066E+03  0.65932661168E+03  0.80262337117E+02 0.  0.
         11    1    3    3    0    0 -0.26887179025E+03  0.48844488648E+03  0.77449442297E+02  0.56291106121E+03  0.00000000000E+00 0. -1.
        -11    1    3    3    0    0 -0.76127795394E+02  0.17583278931E+03  0.78997134025E+02  0.20725143718E+03  0.00000000000E+00 0.  1.
          2    1    6    6  502    0  0.73767982581E+02 -0.42618100471E+02  0.29958118576E+02  0.90307843571E+02  0.00000000000E+00 0. -1.
          3    1    5    5  503    0 -0.38671504116E+02 -0.12123781482E+03 -0.57330313626E+02  0.13957384366E+03  0.00000000000E+00 0. -1.
         -2    1    5    5    0  503 -0.22471965194E+03 -0.42055308019E+03 -0.74924263805E+02  0.48267738763E+03  0.00000000000E+00 0.  1.
         -1    1    6    6    0  502  0.53462275912E+03 -0.79868680315E+02  0.17771285209E+03  0.56901876811E+03  0.00000000000E+00 0.  1.
<mgrwt>
<rscale>  0 0.20385971E+04</rscale>
<asrwt>0</asrwt>
<pdfrwt beam="1">  1        1 0.13999057E+00 0.20385971E+04</pdfrwt>
<pdfrwt beam="2">  1       -1 0.17566179E+00 0.20385971E+04</pdfrwt>
<totfact> 0.36935160E+00</totfact>
</mgrwt>
</event>
<event>
12    1  0.1496989E-007  0.1290105E+04  0.7818608E-02  0.9037449E-01
          1   -1    0    0  501    0  0.00000000000E+00  0.00000000000E+00  0.33501680683E+03  0.33501680683E+03  0.00000000000E+00 0. -1.
         -1   -1    0    0    0  501 -0.00000000000E+00 -0.00000000000E+00 -0.12420054659E+04  0.12420054659E+04  0.00000000000E+00 0.  1.
         23    2    1    2    0    0 -0.33145773361E+02 -0.23016717672E+03 -0.50659541129E+03  0.56493625667E+03  0.91861264024E+02 0.  0.
        254    2    1    2    0    0  0.33145773361E+02  0.23016717672E+03 -0.40039324775E+03  0.10120860160E+04  0.89995987660E+03 0.  0.
        -24    2    4    4    0    0 -0.72813360504E+02 -0.30353449212E+03 -0.32434057049E+03  0.45700404152E+03  0.78872776814E+02 0.  0.
         24    2    4    4    0    0  0.10595913386E+03  0.53370166885E+03 -0.76052677264E+02  0.55508197452E+03  0.79165518655E+02 0.  0.
         11    1    3    3    0    0  0.10410491203E+02 -0.14225640937E+03 -0.37176396090E+03  0.39818802966E+03  0.00000000000E+00 0.  1.
        -11    1    3    3    0    0 -0.43556264563E+02 -0.87910767354E+02 -0.13483145039E+03  0.16674822702E+03  0.00000000000E+00 0. -1.
          2    1    6    6  502    0  0.11082138599E+03  0.52124593639E+03 -0.63367239132E+02  0.53665082949E+03  0.00000000000E+00 0. -1.
          3    1    5    5  503    0 -0.89904851840E+02 -0.25084832844E+03 -0.26428391940E+03  0.37530488448E+03  0.00000000000E+00 0. -1.
         -4    1    5    5    0  503  0.17091491336E+02 -0.52686163686E+02 -0.60056651088E+02  0.81699157033E+02  0.00000000000E+00 0.  1.
         -1    1    6    6    0  502 -0.48622521230E+01  0.12455732455E+02 -0.12685438131E+02  0.18431145035E+02  0.00000000000E+00 0.  1.
<mgrwt>
<rscale>  0 0.12901050E+04</rscale>
<asrwt>0</asrwt>
<pdfrwt beam="1">  1        1 0.51541048E-01 0.12901050E+04</pdfrwt>
<pdfrwt beam="2">  1       -1 0.19107776E+00 0.12901050E+04</pdfrwt>
<totfact> 0.12952942E+01</totfact>
</mgrwt>
</event>
<event>
12    1  0.1496989E-007  0.1416884E+04  0.7818608E-02  0.8941687E-01
         -2   -1    0    0    0  501 -0.00000000000E+00  0.00000000000E+00  0.23206125952E+03  0.23206125952E+03  0.00000000000E+00 0.  1.
          2   -1    0    0  501    0  0.00000000000E+00 -0.00000000000E+00 -0.21627473440E+04  0.21627473440E+04  0.00000000000E+00 0. -1.
         23    2    1    2    0    0  0.10056270377E+03 -0.35612518266E+03 -0.89468860128E+03  0.97243208327E+03  0.90655723471E+02 0.  0.
        254    2    1    2    0    0 -0.10056270377E+03  0.35612518266E+03 -0.10359974832E+04  0.14223765203E+04  0.90162418838E+03 0.  0.
        -24    2    4    4    0    0  0.60923829130E+02  0.62939792282E+03 -0.58558610307E+03  0.86567320896E+03  0.81397557683E+02 0.  0.
         24    2    4    4    0    0 -0.16148653290E+03 -0.27327274015E+03 -0.45041138018E+03  0.55670331134E+03  0.79323859201E+02 0.  0.
         13    1    3    3    0    0  0.95093057192E+02 -0.30790984083E+03 -0.83790461852E+03  0.89773899845E+03  0.00000000000E+00 0. -1.
        -13    1    3    3    0    0  0.54696465798E+01 -0.48215341830E+02 -0.56783982763E+02  0.74693084820E+02  0.00000000000E+00 0.  1.
          2    1    6    6  502    0 -0.16833050874E+03 -0.24163390316E+03 -0.39801753230E+03  0.49511620793E+03  0.00000000000E+00 0. -1.
          3    1    5    5  503    0  0.64615862302E+02  0.25264268359E+03 -0.24176734577E+03  0.35560509658E+03  0.00000000000E+00 0. -1.
         -4    1    5    5    0  503 -0.36920331726E+01  0.37675523923E+03 -0.34381875729E+03  0.51006811238E+03  0.00000000000E+00 0.  1.
         -1    1    6    6    0  502  0.68439758356E+01 -0.31638836990E+02 -0.52393847874E+02  0.61587103410E+02  0.00000000000E+00 0.  1.
<mgrwt>
<rscale>  0 0.14168837E+04</rscale>
<asrwt>0</asrwt>
<pdfrwt beam="1">  1        2 0.33273036E+00 0.14168837E+04</pdfrwt>
<pdfrwt beam="2">  1       -2 0.35701732E-01 0.14168837E+04</pdfrwt>
<totfact> 0.38897011E+01</totfact>
</mgrwt>
</event>
<event>
12    1  0.1496989E-007  0.1793613E+04  0.7818608E-02  0.8709703E-01
          4   -1    0    0  501    0  0.00000000000E+00  0.00000000000E+00  0.16057230055E+04  0.16057230055E+04  0.00000000000E+00 0. -1.
         -4   -1    0    0    0  501 -0.00000000000E+00 -0.00000000000E+00 -0.50087238997E+03  0.50087238997E+03  0.00000000000E+00 0.  1.
         23    2    1    2    0    0 -0.38907188382E+03  0.28368683099E+03  0.96162466806E+03  0.10794178211E+04  0.92550966214E+02 0.  0.
        254    2    1    2    0    0  0.38907188382E+03 -0.28368683099E+03  0.14322594748E+03  0.10271775744E+04  0.89594918858E+03 0.  0.
        -24    2    4    4    0    0 -0.67297647258E+02  0.23488257065E+03  0.20483929760E+03  0.32893724818E+03  0.80881271502E+02 0.  0.
         24    2    4    4    0    0  0.45636953108E+03 -0.51856940163E+03 -0.61613350118E+02  0.69824032624E+03  0.80968975960E+02 0.  0.
         11    1    3    3    0    0 -0.31009700414E+03  0.26354955938E+03  0.83389974715E+03  0.92790479604E+03  0.00000000000E+00 0. -1.
        -11    1    3    3    0    0 -0.78974879675E+02  0.20137271606E+02  0.12772492091E+03  0.15151302502E+03  0.00000000000E+00 0.  1.
          4    1    6    6  502    0  0.39753203597E+02 -0.62314939854E+02  0.15726156573E+02  0.75569709050E+02  0.00000000000E+00 0. -1.
          1    1    5    5  503    0  0.11122051189E+02  0.85554355374E+02  0.48576009704E+02  0.99009476642E+02  0.00000000000E+00 0. -1.
         -2    1    5    5    0  503 -0.78419698447E+02  0.14932821527E+03  0.15626328790E+03  0.22992777154E+03  0.00000000000E+00 0.  1.
         -3    1    6    6    0  502  0.41661632748E+03 -0.45625446178E+03 -0.77339506690E+02  0.62267061719E+03  0.00000000000E+00 0.  1.
<mgrwt>
<rscale>  0 0.17936135E+04</rscale>
<asrwt>0</asrwt>
<pdfrwt beam="1">  1        4 0.24703431E+00 0.17936135E+04</pdfrwt>
<pdfrwt beam="2">  1       -4 0.77057291E-01 0.17936135E+04</pdfrwt>
<totfact> 0.18827830E-01</totfact>
</mgrwt>
</event>
<event>
12    1  0.1496989E-007  0.2309471E+04  0.7818608E-02  0.8474196E-01
          2   -1    0    0  501    0  0.00000000000E+00  0.00000000000E+00  0.81220878358E+03  0.81220878358E+03  0.00000000000E+00 0. -1.
         -2   -1    0    0    0  501 -0.00000000000E+00 -0.00000000000E+00 -0.16417128703E+04  0.16417128703E+04  0.00000000000E+00 0.  1.
         23    2    1    2    0    0  0.64967123615E+03  0.66799783797E+03 -0.67103119664E+03  0.11519136611E+04  0.91260008078E+02 0.  0.
        254    2    1    2    0    0 -0.64967123615E+03 -0.66799783797E+03 -0.15847289009E+03  0.13020079928E+04  0.89544253298E+03 0.  0.
        -24    2    4    4    0    0 -0.75783436258E+03 -0.23396292426E+03 -0.25607664458E+03  0.83721626594E+03  0.79399351510E+02 0.  0.
         24    2    4    4    0    0  0.10816312643E+03 -0.43403491371E+03  0.97603754487E+02  0.46479172689E+03  0.80120460912E+02 0.  0.
         13    1    3    3    0    0  0.32728612358E+03  0.39329132795E+03 -0.39447405924E+03  0.64606815333E+03  0.00000000000E+00 0. -1.
        -13    1    3    3    0    0  0.32238511257E+03  0.27470651001E+03 -0.27655713740E+03  0.50584550774E+03  0.00000000000E+00 0.  1.
          4    1    6    6  502    0  0.75435284847E+02 -0.40015705301E+03  0.90699379367E+02  0.41718404415E+03  0.00000000000E+00 0. -1.
          1    1    5    5  503    0 -0.73091433017E+03 -0.21609536069E+03 -0.25845717584E+03  0.80481865952E+03  0.00000000000E+00 0. -1.
         -4    1    5    5    0  503 -0.26920032406E+02 -0.17867563574E+02  0.23805312622E+01  0.32397606423E+02  0.00000000000E+00 0.  1.
         -3    1    6    6    0  502  0.32727841581E+02 -0.33877860696E+02  0.69043751198E+01  0.47607682738E+02  0.00000000000E+00 0.  1.
<mgrwt>
<rscale>  0 0.23094706E+04</rscale>
<asrwt>0</asrwt>
<pdfrwt beam="1">  1        2 0.12495520E+00 0.23094706E+04</pdfrwt>
<pdfrwt beam="2">  1       -2 0.25257121E+00 0.23094706E+04</pdfrwt>
<totfact> 0.18945186E+00</totfact>
</mgrwt>
</event>
<event>
12    1  0.1496989E-007  0.2417571E+04  0.7818608E-02  0.8432954E-01
          2   -1    0    0  501    0  0.00000000000E+00  0.00000000000E+00  0.98780447137E+03  0.98780447137E+03  0.00000000000E+00 0. -1.
         -2   -1    0    0    0  501 -0.00000000000E+00 -0.00000000000E+00 -0.14792025059E+04  0.14792025059E+04  0.00000000000E+00 0.  1.
         23    2    1    2    0    0  0.15167590370E+03  0.10125714735E+04  0.31683062231E+02  0.10283606964E+04  0.90638495013E+02 0.  0.
        254    2    1    2    0    0 -0.15167590370E+03 -0.10125714735E+04 -0.52308109678E+03  0.14386462809E+04  0.86474430851E+03 0.  0.
        -24    2    4    4    0    0 -0.72495069752E+02 -0.84967043222E+03  0.23854534999E+02  0.85691052356E+03  0.80816013355E+02 0.  0.
         24    2    4    4    0    0 -0.79180833953E+02 -0.16290104125E+03 -0.54693563178E+03  0.58173575735E+03  0.80445959256E+02 0.  0.
         11    1    3    3    0    0  0.12425865735E+02  0.30435888087E+02  0.15316397590E+02  0.36267581365E+02  0.00000000000E+00 0.  1.
        -11    1    3    3    0    0  0.13925003797E+03  0.98213558538E+03  0.16366664641E+02  0.99209311501E+03  0.00000000000E+00 0. -1.
          4    1    6    6  502    0 -0.19393214917E+02 -0.65693295064E+02 -0.10548774991E+03  0.12577508172E+03  0.00000000000E+00 0. -1.
          1    1    5    5  503    0  0.99731118440E+01 -0.16307093957E+03  0.25630156335E+02  0.16537381656E+03  0.00000000000E+00 0. -1.
         -2    1    5    5    0  503 -0.82468181596E+02 -0.68659949265E+03 -0.17756213360E+01  0.69153670699E+03  0.00000000000E+00 0.  1.
         -3    1    6    6    0  502 -0.59787619036E+02 -0.97207746182E+02 -0.44144788188E+03  0.45596067563E+03  0.00000000000E+00 0.  1.
<mgrwt>
<rscale>  0 0.24175714E+04</rscale>
<asrwt>0</asrwt>
<pdfrwt beam="1">  1        2 0.15196992E+00 0.24175714E+04</pdfrwt>
<pdfrwt beam="2">  1       -2 0.22756961E+00 0.24175714E+04</pdfrwt>
<totfact> 0.20390565E+00</totfact>
</mgrwt>
</event>
<event>
12    1  0.1496989E-007  0.1655748E+04  0.7818608E-02  0.8787014E-01
          2   -1    0    0  501    0  0.00000000000E+00  0.00000000000E+00  0.21649684603E+04  0.21649684603E+04  0.00000000000E+00 0.  1.
         -2   -1    0    0    0  501 -0.00000000000E+00 -0.00000000000E+00 -0.31657506455E+03  0.31657506455E+03  0.00000000000E+00 0. -1.
         23    2    1    2    0    0 -0.54913740228E+03  0.34963707316E+02  0.38461662428E+03  0.67743081078E+03  0.90599162869E+02 0.  0.
        254    2    1    2    0    0  0.54913740228E+03 -0.34963707316E+02  0.14637767715E+04  0.18041127141E+04  0.89966988445E+03 0.  0.
        -24    2    4    4    0    0  0.20602160648E+03  0.27282866415E+03  0.10458121357E+03  0.36619010230E+03  0.79231171070E+02 0.  0.
         24    2    4    4    0    0  0.34311579579E+03 -0.30779237147E+03  0.13591955579E+04  0.14379226118E+04  0.88001588447E+02 0.  0.
         11    1    3    3    0    0 -0.44564735237E+03 -0.60666120171E+01  0.32048947869E+03  0.54895525538E+03  0.00000000000E+00 0. -1.
        -11    1    3    3    0    0 -0.10349004990E+03  0.41030319333E+02  0.64127145587E+02  0.12847555540E+03  0.00000000000E+00 0.  1.
          4    1    6    6  502    0  0.58515320898E+02 -0.10136244469E+03  0.30785788876E+03  0.32935523018E+03  0.00000000000E+00 0. -1.
          1    1    5    5  503    0  0.46240983799E+02  0.21220720471E+02  0.29550402307E+02  0.58836840810E+02  0.00000000000E+00 0. -1.
         -2    1    5    5    0  503  0.15978062268E+03  0.25160794368E+03  0.75030811260E+02  0.30735326149E+03  0.00000000000E+00 0.  1.
         -1    1    6    6    0  502  0.28460047489E+03 -0.20642992678E+03  0.10513376692E+04  0.11085673816E+04  0.00000000000E+00 0.  1.
<mgrwt>
<rscale>  0 0.16557476E+04</rscale>
<asrwt>0</asrwt>
<pdfrwt beam="1">  1        2 0.33307206E+00 0.16557476E+04</pdfrwt>
<pdfrwt beam="2">  1       -2 0.48703857E-01 0.16557476E+04</pdfrwt>
<totfact> 0.20608607E+01</totfact>
</mgrwt>
</event>
<event>
12    1  0.1496989E-007  0.1521448E+04  0.7818608E-02  0.8870314E-01
          2   -1    0    0  501    0  0.00000000000E+00  0.00000000000E+00  0.14716178788E+04  0.14716178788E+04  0.00000000000E+00 0. -1.
         -2   -1    0    0    0  501 -0.00000000000E+00 -0.00000000000E+00 -0.39324157971E+03  0.39324157971E+03  0.00000000000E+00 0.  1.
         23    2    1    2    0    0  0.44010856207E+03 -0.40725309571E+01  0.84643922469E+02  0.45764036806E+03  0.92509356025E+02 0.  0.
        254    2    1    2    0    0 -0.44010856207E+03  0.40725309571E+01  0.99373237658E+03  0.14072190904E+04  0.89389563162E+03 0.  0.
        -24    2    4    4    0    0 -0.54988790022E+03  0.32342582488E+03  0.56837315815E+03  0.85844317557E+03  0.83040181624E+02 0.  0.
         24    2    4    4    0    0  0.10977933815E+03 -0.31935329392E+03  0.42535921842E+03  0.54877591484E+03  0.78654374261E+02 0.  0.
         11    1    3    3    0    0  0.11101390502E+03  0.13149571674E+02 -0.16322117078E+02  0.11297526211E+03  0.00000000000E+00 0.  1.
        -11    1    3    3    0    0  0.32909465705E+03 -0.17222102631E+02  0.10096603955E+03  0.34466510595E+03  0.00000000000E+00 0. -1.
          4    1    6    6  502    0  0.68016280159E+02 -0.10415363549E+03  0.19039357676E+03  0.22742890807E+03  0.00000000000E+00 0. -1.
          1    1    5    5  503    0 -0.40900590401E+03  0.28046025439E+03  0.43128225567E+03  0.65722763778E+03  0.00000000000E+00 0. -1.
         -2    1    5    5    0  503 -0.14088199621E+03  0.42965570490E+02  0.13709090249E+03  0.20121553779E+03  0.00000000000E+00 0.  1.
         -3    1    6    6    0  502  0.41763057987E+02 -0.21519965843E+03  0.23496564166E+03  0.32134700677E+03  0.00000000000E+00 0.  1.
<mgrwt>
<rscale>  0 0.15214484E+04</rscale>
<asrwt>0</asrwt>
<pdfrwt beam="1">  1        2 0.22640275E+00 0.15214484E+04</pdfrwt>
<pdfrwt beam="2">  1       -2 0.60498705E-01 0.15214484E+04</pdfrwt>
<totfact> 0.32333094E+01</totfact>
</mgrwt>
</event>
<event>
12    1  0.1496989E-007  0.3382539E+04  0.7818608E-02  0.8142205E-01
          2   -1    0    0  501    0  0.00000000000E+00  0.00000000000E+00  0.41489476567E+04  0.41489476567E+04  0.00000000000E+00 0. -1.
         -2   -1    0    0    0  501 -0.00000000000E+00 -0.00000000000E+00 -0.68942585844E+03  0.68942585844E+03  0.00000000000E+00 0.  1.
         23    2    1    2    0    0 -0.32339658370E+03 -0.14226588875E+04  0.24303112066E+04  0.28361019997E+04  0.92294805713E+02 0.  0.
        254    2    1    2    0    0  0.32339658370E+03  0.14226588875E+04  0.10292105916E+04  0.20022715154E+04  0.90624120353E+03 0.  0.
        -24    2    4    4    0    0 -0.84646983744E+02  0.86615525689E+02 -0.12225128623E+03  0.19011075168E+03  0.80804453923E+02 0.  0.
         24    2    4    4    0    0  0.40804356745E+03  0.13360433618E+04  0.11514618778E+04  0.18121607637E+04  0.80936764724E+02 0.  0.
         13    1    3    3    0    0 -0.21013109693E+03 -0.82782518390E+03  0.14992827049E+04  0.17254849296E+04  0.00000000000E+00 0. -1.
        -13    1    3    3    0    0 -0.11326548678E+03 -0.59483370360E+03  0.93102850172E+03  0.11106170701E+04  0.00000000000E+00 0.  1.
          4    1    6    6  502    0  0.14583559104E+03  0.59291750248E+03  0.53098140342E+03  0.80917268561E+03  0.00000000000E+00 0. -1.
          3    1    5    5  503    0 -0.28691388898E+02 -0.18816172103E+01 -0.64309046778E+02  0.70444231685E+02  0.00000000000E+00 0. -1.
         -4    1    5    5    0  503 -0.55955594846E+02  0.88497142899E+02 -0.57942239449E+02  0.11966652000E+03  0.00000000000E+00 0.  1.
         -3    1    6    6    0  502  0.26220797640E+03  0.74312585934E+03  0.62048047440E+03  0.10029880781E+04  0.00000000000E+00 0.  1.
<mgrwt>
<rscale>  0 0.33825386E+04</rscale>
<asrwt>0</asrwt>
<pdfrwt beam="1">  1        2 0.63829962E+00 0.33825386E+04</pdfrwt>
<pdfrwt beam="2">  1       -2 0.10606552E+00 0.33825386E+04</pdfrwt>
<totfact> 0.15271653E-01</totfact>
</mgrwt>
</event>
<event>
12    1  0.1496989E-007  0.4001684E+04  0.7818608E-02  0.8004207E-01
         -2   -1    0    0    0  501 -0.00000000000E+00  0.00000000000E+00  0.27154988659E+04  0.27154988659E+04  0.00000000000E+00 0.  1.
          2   -1    0    0  501    0  0.00000000000E+00 -0.00000000000E+00 -0.14742662371E+04  0.14742662371E+04  0.00000000000E+00 0. -1.
         23    2    1    2    0    0  0.89178911250E+03 -0.32705223020E+03  0.23100024246E+04  0.24991100635E+04  0.84787531070E+02 0.  0.
        254    2    1    2    0    0 -0.89178911250E+03  0.32705223020E+03 -0.10687697957E+04  0.16906550394E+04  0.90210564992E+03 0.  0.
        -24    2    4    4    0    0 -0.92486054056E+03 -0.43834937862E+02 -0.75475754703E+03  0.11971391649E+04  0.78706441934E+02 0.  0.
         24    2    4    4    0    0  0.33071428057E+02  0.37088716807E+03 -0.31401224872E+03  0.49351587457E+03  0.79392791363E+02 0.  0.
         11    1    3    3    0    0  0.12910466363E+03 -0.38223050235E+02  0.40777262645E+03  0.42942697938E+03  0.00000000000E+00 0. -1.
        -11    1    3    3    0    0  0.76268444888E+03 -0.28882917997E+03  0.19022297981E+04  0.20696830841E+04  0.00000000000E+00 0.  1.
          4    1    6    6  502    0  0.47996382333E+02  0.26372914604E+03 -0.18792257611E+03  0.32737075281E+03  0.00000000000E+00 0. -1.
          3    1    5    5  503    0 -0.39924012667E+03  0.17062544704E+02 -0.34418552447E+03  0.52739689459E+03  0.00000000000E+00 0. -1.
         -4    1    5    5    0  503 -0.52562041389E+03 -0.60897482566E+02 -0.41057202256E+03  0.66974227027E+03  0.00000000000E+00 0.  1.
         -3    1    6    6    0  502 -0.14924954276E+02  0.10715802203E+03 -0.12608967261E+03  0.16614512176E+03  0.00000000000E+00 0.  1.
<mgrwt>
<rscale>  0 0.40016838E+04</rscale>
<asrwt>0</asrwt>
<pdfrwt beam="1">  1        2 0.22681019E+00 0.40016838E+04</pdfrwt>
<pdfrwt beam="2">  1       -2 0.41776905E+00 0.40016838E+04</pdfrwt>
<totfact> 0.58705509E-02</totfact>
</mgrwt>
</event>
<event>
12    1  0.1496989E-007  0.1647539E+04  0.7818608E-02  0.8791864E-01
         -1   -1    0    0    0  501 -0.00000000000E+00  0.00000000000E+00  0.40909248542E+03  0.40909248542E+03  0.00000000000E+00 0.  1.
          1   -1    0    0  501    0  0.00000000000E+00 -0.00000000000E+00 -0.16587833296E+04  0.16587833296E+04  0.00000000000E+00 0. -1.
         23    2    1    2    0    0  0.43863178102E+03  0.30081464833E+03 -0.57701882255E+03  0.79020063576E+03  0.92623059791E+02 0.  0.
        254    2    1    2    0    0 -0.43863178102E+03 -0.30081464833E+03 -0.67267202157E+03  0.12776751792E+04  0.94714250406E+03 0.  0.
        -24    2    4    4    0    0  0.15556009361E+02 -0.59252925729E+01 -0.72336288263E+03  0.72789046621E+03  0.79332038345E+02 0.  0.
         24    2    4    4    0    0 -0.45418779038E+03 -0.29488935576E+03  0.50690861057E+02  0.54978471301E+03  0.80295617521E+02 0.  0.
         11    1    3    3    0    0  0.28768642390E+03  0.16650516364E+03 -0.30321765704E+03  0.44992043247E+03  0.00000000000E+00 0. -1.
        -11    1    3    3    0    0  0.15094535712E+03  0.13430948470E+03 -0.27380116551E+03  0.34028020329E+03  0.00000000000E+00 0.  1.
          2    1    6    6  502    0 -0.71062944189E+02 -0.69623775566E+02 -0.14670755353E+02  0.10056163893E+03  0.00000000000E+00 0. -1.
          1    1    5    5  503    0 -0.11387267997E+02 -0.22489396932E+02 -0.82917489040E+02  0.86664599667E+02  0.00000000000E+00 0. -1.
         -2    1    5    5    0  503  0.26943277358E+02  0.16564104360E+02 -0.64044539359E+03  0.64122586654E+03  0.00000000000E+00 0.  1.
         -1    1    6    6    0  502 -0.38312484619E+03 -0.22526558019E+03  0.65361616410E+02  0.44922307408E+03  0.00000000000E+00 0.  1.
<mgrwt>
<rscale>  0 0.16475385E+04</rscale>
<asrwt>0</asrwt>
<pdfrwt beam="1">  1        1 0.25519743E+00 0.16475385E+04</pdfrwt>
<pdfrwt beam="2">  1       -1 0.62937306E-01 0.16475385E+04</pdfrwt>
<totfact> 0.12445531E+01</totfact>
</mgrwt>
</event>
<event>
12    1  0.1496989E-007  0.1267738E+04  0.7818608E-02  0.9055548E-01
         -2   -1    0    0    0  501 -0.00000000000E+00  0.00000000000E+00  0.47872736640E+03  0.47872736640E+03  0.00000000000E+00 0.  1.
          2   -1    0    0  501    0  0.00000000000E+00 -0.00000000000E+00 -0.83928754326E+03  0.83928754326E+03  0.00000000000E+00 0. -1.
         23    2    1    2    0    0  0.99418509417E+02 -0.10620705337E+03 -0.35882960174E+03  0.39786637653E+03  0.91514983962E+02 0.  0.
        254    2    1    2    0    0 -0.99418509417E+02  0.10620705337E+03 -0.17305751257E+01  0.92014853314E+03  0.90857379994E+03 0.  0.
        -24    2    4    4    0    0 -0.40502961509E+02  0.45285195117E+03 -0.20691048957E+03  0.50566611462E+03  0.78555007576E+02 0.  0.
         24    2    4    4    0    0 -0.58915547908E+02 -0.34664489779E+03  0.20517991444E+03  0.41448241852E+03  0.77866237965E+02 0.  0.
         11    1    3    3    0    0  0.26418837350E+02 -0.40207255142E+02 -0.35220908402E+02  0.59624581521E+02  0.00000000000E+00 0.  1.
        -11    1    3    3    0    0  0.72999672067E+02 -0.65999798230E+02 -0.32360869333E+03  0.33824179501E+03  0.00000000000E+00 0. -1.
          2    1    6    6  502    0 -0.39048998278E+02 -0.20500247226E+03  0.77059216633E+02  0.22246114440E+03  0.00000000000E+00 0. -1.
          1    1    5    5  503    0 -0.21501542366E+02  0.34681155096E+03 -0.12122721734E+03  0.36801712789E+03  0.00000000000E+00 0. -1.
         -2    1    5    5    0  503 -0.19001419143E+02  0.10604040021E+03 -0.85683272232E+02  0.13764898673E+03  0.00000000000E+00 0.  1.
         -1    1    6    6    0  502 -0.19866549630E+02 -0.14164242553E+03  0.12812069781E+03  0.19202127411E+03  0.00000000000E+00 0.  1.
<mgrwt>
<rscale>  0 0.12677380E+04</rscale>
<asrwt>0</asrwt>
<pdfrwt beam="1">  1        2 0.12912116E+00 0.12677380E+04</pdfrwt>
<pdfrwt beam="2">  1       -2 0.73650365E-01 0.12677380E+04</pdfrwt>
<totfact> 0.52754306E+01</totfact>
</mgrwt>
</event>
<event>
12    1  0.1496989E-007  0.2080740E+04  0.7818608E-02  0.8569775E-01
         -4   -1    0    0    0  501 -0.00000000000E+00  0.00000000000E+00  0.85187405481E+03  0.85187405481E+03  0.00000000000E+00 0.  1.
          4   -1    0    0  501    0  0.00000000000E+00 -0.00000000000E+00 -0.12705745482E+04  0.12705745482E+04  0.00000000000E+00 0. -1.
         23    2    1    2    0    0 -0.50817569955E+03 -0.67043821407E+03 -0.45600405490E+02  0.84743946982E+03  0.91347236017E+02 0.  0.
        254    2    1    2    0    0  0.50817569955E+03  0.67043821407E+03 -0.37310008789E+03  0.12750091332E+04  0.88244811384E+03 0.  0.
        -24    2    4    4    0    0  0.17975473175E+03  0.17393873781E+03 -0.58240817555E+03  0.63872590954E+03  0.78772180818E+02 0.  0.
         24    2    4    4    0    0  0.32842096780E+03  0.49649947626E+03  0.20930808767E+03  0.63628322364E+03  0.81697020171E+02 0.  0.
         13    1    3    3    0    0 -0.29035109289E+03 -0.35805276661E+03  0.17998680523E+02  0.46133447012E+03  0.00000000000E+00 0.  1.
        -13    1    3    3    0    0 -0.21782460665E+03 -0.31238544746E+03 -0.63599086013E+02  0.38610499969E+03  0.00000000000E+00 0. -1.
          2    1    6    6  502    0  0.10463755429E+03  0.21629033997E+03  0.10951860666E+03  0.26405464233E+03  0.00000000000E+00 0. -1.
          3    1    5    5  503    0  0.11240816294E+03  0.14603724513E+03 -0.46901439061E+03  0.50392159178E+03  0.00000000000E+00 0. -1.
         -4    1    5    5    0  503  0.67346568806E+02  0.27901492683E+02 -0.11339378494E+03  0.13480431776E+03  0.00000000000E+00 0.  1.
         -1    1    6    6    0  502  0.22378341351E+03  0.28020913629E+03  0.99789481009E+02  0.37222858131E+03  0.00000000000E+00 0.  1.
<mgrwt>
<rscale>  0 0.20807398E+04</rscale>
<asrwt>0</asrwt>
<pdfrwt beam="1">  1        4 0.19547301E+00 0.20807398E+04</pdfrwt>
<pdfrwt beam="2">  1       -4 0.13105755E+00 0.20807398E+04</pdfrwt>
<totfact> 0.11028963E-01</totfact>
</mgrwt>
</event>
<event>
12    1  0.1496989E-007  0.2108795E+04  0.7818608E-02  0.8557379E-01
         -1   -1    0    0    0  501 -0.00000000000E+00  0.00000000000E+00  0.37499186574E+03  0.37499186574E+03  0.00000000000E+00 0.  1.
          1   -1    0    0  501    0  0.00000000000E+00 -0.00000000000E+00 -0.29647424045E+04  0.29647424045E+04  0.00000000000E+00 0. -1.
         23    2    1    2    0    0 -0.70599333484E+03 -0.11099598882E+03 -0.18010307741E+04  0.19390192297E+04  0.73054947333E+02 0.  0.
        254    2    1    2    0    0  0.70599333484E+03  0.11099598882E+03 -0.78871976459E+03  0.14007150405E+04  0.91059159854E+03 0.  0.
        -24    2    4    4    0    0  0.87086325699E+03 -0.95131145756E+02 -0.63801196406E+03  0.10865047902E+04  0.77334633623E+02 0.  0.
         24    2    4    4    0    0 -0.16486992215E+03  0.20612713457E+03 -0.15070780053E+03  0.31421025034E+03  0.79653960594E+02 0.  0.
         11    1    3    3    0    0 -0.49701754568E+03 -0.49970644214E+02 -0.12024960683E+04  0.13021214614E+04  0.00000000000E+00 0. -1.
        -11    1    3    3    0    0 -0.20897578916E+03 -0.61025344604E+02 -0.59853470579E+03  0.63689776823E+03  0.00000000000E+00 0.  1.
          4    1    6    6  502    0 -0.30456547630E+02  0.50861060271E+02 -0.74392397195E+02  0.95124536823E+02  0.00000000000E+00 0. -1.
          3    1    5    5  503    0  0.28455549505E+02 -0.11932365435E+02 -0.98541811146E+01  0.32391426766E+02  0.00000000000E+00 0. -1.
         -4    1    5    5    0  503  0.84240770748E+03 -0.83198780321E+02 -0.62815778295E+03  0.10541133634E+04  0.00000000000E+00 0.  1.
         -3    1    6    6    0  502 -0.13441337452E+03  0.15526607430E+03 -0.76315403333E+02  0.21908571351E+03  0.00000000000E+00 0.  1.
<mgrwt>
<rscale>  0 0.21087952E+04</rscale>
<asrwt>0</asrwt>
<pdfrwt beam="1">  1        1 0.45611421E+00 0.21087952E+04</pdfrwt>
<pdfrwt beam="2">  1       -1 0.57691058E-01 0.21087952E+04</pdfrwt>
<totfact> 0.17758404E+00</totfact>
</mgrwt>
</event>
<event>
12    1  0.1496989E-007  0.2860237E+04  0.7818608E-02  0.8284807E-01
          2   -1    0    0  501    0  0.00000000000E+00  0.00000000000E+00  0.63472498096E+03  0.63472498096E+03  0.00000000000E+00 0. -1.
         -2   -1    0    0    0  501 -0.00000000000E+00 -0.00000000000E+00 -0.32222441542E+04  0.32222441542E+04  0.00000000000E+00 0.  1.
         23    2    1    2    0    0 -0.16214433981E+03  0.11503020802E+04 -0.41609606441E+03  0.12378513765E+04  0.98256972850E+02 0.  0.
        254    2    1    2    0    0  0.16214433981E+03 -0.11503020802E+04 -0.21714231088E+04  0.26191177587E+04  0.89174764012E+03 0.  0.
        -24    2    4    4    0    0 -0.87663923867E+02  0.11860095240E+03 -0.27398084372E+03  0.32145723381E+03  0.80734756984E+02 0.  0.
         24    2    4    4    0    0  0.24980826368E+03 -0.12689030326E+04 -0.18974422651E+04  0.22976605249E+04  0.80235051001E+02 0.  0.
         13    1    3    3    0    0 -0.97714464141E+02  0.94998911386E+03 -0.35336085769E+03  0.10182786105E+04  0.00000000000E+00 0. -1.
        -13    1    3    3    0    0 -0.64429875669E+02  0.20031296635E+03 -0.62735206723E+02  0.21957276591E+03  0.00000000000E+00 0.  1.
          2    1    6    6  502    0  0.15374215441E+03 -0.79648554875E+03 -0.12578223035E+04  0.14967106689E+04  0.00000000000E+00 0. -1.
          1    1    5    5  503    0 -0.94213701704E+02  0.84379302377E+02 -0.24660476319E+03  0.27714616629E+03  0.00000000000E+00 0. -1.
         -4    1    5    5    0  503  0.65497778373E+01  0.34221650022E+02 -0.27376080527E+02  0.44311067522E+02  0.00000000000E+00 0.  1.
         -1    1    6    6    0  502  0.96066109264E+02 -0.47241748386E+03 -0.63961996162E+03  0.80094985593E+03  0.00000000000E+00 0.  1.
<mgrwt>
<rscale>  0 0.28602370E+04</rscale>
<asrwt>0</asrwt>
<pdfrwt beam="1">  1        2 0.97649997E-01 0.28602370E+04</pdfrwt>
<pdfrwt beam="2">  1       -2 0.49572987E+00 0.28602370E+04</pdfrwt>
<totfact> 0.70081628E-02</totfact>
</mgrwt>
</event>
<event>
12    1  0.1496989E-007  0.1691267E+04  0.7818608E-02  0.8766361E-01
         -2   -1    0    0    0  501 -0.00000000000E+00  0.00000000000E+00  0.43436516049E+03  0.43436516049E+03  0.00000000000E+00 0.  1.
          2   -1    0    0  501    0  0.00000000000E+00 -0.00000000000E+00 -0.16463014487E+04  0.16463014487E+04  0.00000000000E+00 0. -1.
         23    2    1    2    0    0  0.16916731972E+03 -0.16685327546E+03  0.24601947671E+03  0.35384962308E+03  0.90699367371E+02 0.  0.
        254    2    1    2    0    0 -0.16916731972E+03  0.16685327546E+03 -0.14579557649E+04  0.17268169861E+04  0.89431778102E+03 0.  0.
        -24    2    4    4    0    0 -0.72056002013E+02  0.12335833993E+03  0.80665917797E+02  0.18237622671E+03  0.79653941003E+02 0.  0.
         24    2    4    4    0    0 -0.97111317708E+02  0.43494935525E+02 -0.15386216827E+04  0.15444407594E+04  0.81352070183E+02 0.  0.
         13    1    3    3    0    0  0.43899489199E+02 -0.19320833986E+02  0.10164165507E+03  0.11238988310E+03  0.00000000000E+00 0. -1.
        -13    1    3    3    0    0  0.12526783052E+03 -0.14753244147E+03  0.14437782164E+03  0.24145973998E+03  0.00000000000E+00 0.  1.
          2    1    6    6  502    0 -0.10012016194E+03  0.14281959473E+02 -0.13177641786E+04  0.13216393047E+04  0.00000000000E+00 0. -1.
          1    1    5    5  503    0 -0.55473268759E+02  0.13077763741E+03  0.82234246646E+02  0.16414184510E+03  0.00000000000E+00 0. -1.
         -2    1    5    5    0  503 -0.16582733254E+02 -0.74192974735E+01 -0.15683288481E+01  0.18234381606E+02  0.00000000000E+00 0.  1.
         -1    1    6    6    0  502  0.30088442353E+01  0.29212976052E+02 -0.22085750405E+03  0.22280145468E+03  0.00000000000E+00 0.  1.
<mgrwt>
<rscale>  0 0.16912670E+04</rscale>
<asrwt>0</asrwt>
<pdfrwt beam="1">  1        2 0.25327714E+00 0.16912670E+04</pdfrwt>
<pdfrwt beam="2">  1       -2 0.66825410E-01 0.16912670E+04</pdfrwt>
<totfact> 0.20571367E+01</totfact>
</mgrwt>
</event>
<event>
12    1  0.1496989E-007  0.1679528E+04  0.7818608E-02  0.8773127E-01
          1   -1    0    0  501    0  0.00000000000E+00  0.00000000000E+00  0.13225196339E+04  0.13225196339E+04  0.00000000000E+00 0.  1.
         -1   -1    0    0    0  501 -0.00000000000E+00 -0.00000000000E+00 -0.53322715377E+03  0.53322715377E+03  0.00000000000E+00 0. -1.
         23    2    1    2    0    0  0.54531022897E+03  0.21219501480E+03  0.39054042067E+03  0.70859637667E+03  0.84835338892E+02 0.  0.
        254    2    1    2    0    0 -0.54531022897E+03 -0.21219501480E+03  0.39875205943E+03  0.11471504110E+04  0.90253027117E+03 0.  0.
        -24    2    4    4    0    0 -0.41434070401E+02 -0.36894016361E+03 -0.12475101656E+03  0.39964093291E+03  0.79475987621E+02 0.  0.
         24    2    4    4    0    0 -0.50387615857E+03  0.15674514881E+03  0.52350307600E+03  0.74750947807E+03  0.79086815454E+02 0.  0.
         11    1    3    3    0    0  0.10255605613E+01 -0.64017699559E+00 -0.35293775886E+01  0.37306979526E+01  0.00000000000E+00 0. -1.
        -11    1    3    3    0    0  0.54428466841E+03  0.21283519179E+03  0.39406979826E+03  0.70486567872E+03  0.00000000000E+00 0.  1.
          2    1    6    6  502    0 -0.39090816080E+03  0.12699716476E+03  0.45016077541E+03  0.60957542089E+03  0.00000000000E+00 0. -1.
          1    1    5    5  503    0 -0.19004229809E+01 -0.13473165600E+03 -0.83623965783E+02  0.15858498791E+03  0.00000000000E+00 0. -1.
         -2    1    5    5    0  503 -0.39533647420E+02 -0.23420850761E+03 -0.41127050780E+02  0.24105594500E+03  0.00000000000E+00 0.  1.
         -1    1    6    6    0  502 -0.11296799777E+03  0.29747984051E+02  0.73342300588E+02  0.13793405718E+03  0.00000000000E+00 0.  1.
<mgrwt>
<rscale>  0 0.16795278E+04</rscale>
<asrwt>0</asrwt>
<pdfrwt beam="1">  1        1 0.20346456E+00 0.16795278E+04</pdfrwt>
<pdfrwt beam="2">  1       -1 0.82034947E-01 0.16795278E+04</pdfrwt>
<totfact> 0.12283317E+01</totfact>
</mgrwt>
</event>
<event>
12    1  0.1496989E-007  0.3257459E+04  0.7818608E-02  0.8173805E-01
          2   -1    0    0  501    0  0.00000000000E+00  0.00000000000E+00  0.40002825874E+04  0.40002825874E+04  0.00000000000E+00 0. -1.
         -2   -1    0    0    0  501 -0.00000000000E+00 -0.00000000000E+00 -0.66314304349E+03  0.66314304349E+03  0.00000000000E+00 0.  1.
         23    2    1    2    0    0 -0.66612571934E+03  0.76093035697E+03  0.31297414062E+04  0.32903364082E+04  0.91071001722E+02 0.  0.
        254    2    1    2    0    0  0.66612571934E+03 -0.76093035697E+03  0.20739813775E+03  0.13730892227E+04  0.90532952227E+03 0.  0.
        -24    2    4    4    0    0 -0.17068526962E+03  0.11806318681E+02  0.12832379562E+03  0.22850015994E+03  0.80451700692E+02 0.  0.
         24    2    4    4    0    0  0.83681098896E+03 -0.77273667565E+03  0.79074342129E+02  0.11445890628E+04  0.80354028609E+02 0.  0.
         11    1    3    3    0    0 -0.64646017614E+03  0.71972156787E+03  0.30287480818E+04  0.31795007215E+04  0.00000000000E+00 0. -1.
        -11    1    3    3    0    0 -0.19665543201E+02  0.41208789098E+02  0.10099332436E+03  0.11083568673E+03  0.00000000000E+00 0.  1.
          2    1    6    6  502    0  0.46214001190E+03 -0.46228865404E+03  0.75353342192E+02  0.65799872070E+03  0.00000000000E+00 0. -1.
          3    1    5    5  503    0 -0.37455924032E+02  0.79024205214E+01 -0.65977569141E+01  0.38844882436E+02  0.00000000000E+00 0. -1.
         -2    1    5    5    0  503 -0.13322934559E+03  0.39038981594E+01  0.13492155254E+03  0.18965527751E+03  0.00000000000E+00 0.  1.
         -1    1    6    6    0  502  0.37467097706E+03 -0.31044802161E+03  0.37209999365E+01  0.48659034209E+03  0.00000000000E+00 0.  1.
<mgrwt>
<rscale>  0 0.32574589E+04</rscale>
<asrwt>0</asrwt>
<pdfrwt beam="1">  1        2 0.61542808E+00 0.32574589E+04</pdfrwt>
<pdfrwt beam="2">  1       -2 0.10202201E+00 0.32574589E+04</pdfrwt>
<totfact> 0.22525892E-01</totfact>
</mgrwt>
</event>
<event>
12    1  0.1496989E-007  0.3234685E+04  0.7818608E-02  0.8179717E-01
          1   -1    0    0  501    0  0.00000000000E+00  0.00000000000E+00  0.27707113964E+04  0.27707113964E+04  0.00000000000E+00 0. -1.
         -1   -1    0    0    0  501 -0.00000000000E+00 -0.00000000000E+00 -0.94408854103E+03  0.94408854103E+03  0.00000000000E+00 0.  1.
         23    2    1    2    0    0 -0.28247045752E+03 -0.11884837696E+04  0.18187425746E+04  0.21928718187E+04  0.92623057807E+02 0.  0.
        254    2    1    2    0    0  0.28247045752E+03  0.11884837696E+04  0.78802807938E+01  0.15219281187E+04  0.90770031924E+03 0.  0.
        -24    2    4    4    0    0 -0.46684544216E+01 -0.23939608357E+02 -0.23585177631E+03  0.24988493166E+03  0.78876608497E+02 0.  0.
         24    2    4    4    0    0  0.28713891194E+03  0.12124233780E+04  0.24373205711E+03  0.12720431870E+04  0.79179238001E+02 0.  0.
         11    1    3    3    0    0 -0.18094314259E+03 -0.77212535039E+03  0.12581666495E+04  0.14872462121E+04  0.00000000000E+00 0. -1.
        -11    1    3    3    0    0 -0.10152731493E+03 -0.41635841923E+03  0.56057592508E+03  0.70562560663E+03  0.00000000000E+00 0.  1.
          2    1    6    6  502    0  0.10349874344E+03  0.53829555869E+03  0.74975290981E+02  0.55325888393E+03  0.00000000000E+00 0. -1.
          3    1    5    5  503    0  0.34260043132E+00  0.12004320031E+02 -0.78681842353E+00  0.12034955658E+02  0.00000000000E+00 0. -1.
         -2    1    5    5    0  503 -0.50110548529E+01 -0.35943928388E+02 -0.23506495789E+03  0.23784997601E+03  0.00000000000E+00 0.  1.
         -1    1    6    6    0  502  0.18364016850E+03  0.67412781930E+03  0.16875676612E+03  0.71878430308E+03  0.00000000000E+00 0.  1.
<mgrwt>
<rscale>  0 0.32346851E+04</rscale>
<asrwt>0</asrwt>
<pdfrwt beam="1">  1        1 0.42626329E+00 0.32346851E+04</pdfrwt>
<pdfrwt beam="2">  1       -1 0.14524439E+00 0.32346851E+04</pdfrwt>
<totfact> 0.27728584E-01</totfact>
</mgrwt>
</event>
<event>
12    1  0.1496989E-007  0.1946230E+04  0.7818608E-02  0.8632181E-01
         -1   -1    0    0    0  501 -0.00000000000E+00  0.00000000000E+00  0.66021480576E+03  0.66021480576E+03  0.00000000000E+00 0.  1.
          1   -1    0    0  501    0  0.00000000000E+00 -0.00000000000E+00 -0.14343103903E+04  0.14343103903E+04  0.00000000000E+00 0. -1.
         23    2    1    2    0    0  0.57659281543E+03 -0.49982950468E+03 -0.40928450653E+03  0.87085834627E+03  0.92691118424E+02 0.  0.
        254    2    1    2    0    0 -0.57659281543E+03  0.49982950468E+03 -0.36481107801E+03  0.12236668498E+04  0.88429894722E+03 0.  0.
        -24    2    4    4    0    0 -0.35188658554E+03  0.20524367653E+03  0.26290409328E+03  0.49038356401E+03  0.73541428781E+02 0.  0.
         24    2    4    4    0    0 -0.22470622989E+03  0.29458582815E+03 -0.62771517129E+03  0.73328328577E+03  0.80027126758E+02 0.  0.
         11    1    3    3    0    0  0.82102867239E+01 -0.65397549194E+01  0.51610982663E+01  0.11696757577E+02  0.00000000000E+00 0. -1.
        -11    1    3    3    0    0  0.56838252871E+03 -0.49328974976E+03 -0.41444560479E+03  0.85916158869E+03  0.00000000000E+00 0.  1.
          4    1    6    6  502    0 -0.13061362501E+03  0.18642470201E+03 -0.30881742097E+03  0.38364343870E+03  0.00000000000E+00 0. -1.
          3    1    5    5  503    0 -0.33664781548E+03  0.20659542744E+03  0.23797656289E+03  0.46113584419E+03  0.00000000000E+00 0. -1.
         -4    1    5    5    0  503 -0.15238770052E+02 -0.13517509084E+01  0.24927530392E+02  0.29247719820E+02  0.00000000000E+00 0.  1.
         -3    1    6    6    0  502 -0.94092604878E+02  0.10816112614E+03 -0.31889775032E+03  0.34963984707E+03  0.00000000000E+00 0.  1.
<mgrwt>
<rscale>  0 0.19462302E+04</rscale>
<asrwt>0</asrwt>
<pdfrwt beam="1">  1        1 0.22066314E+00 0.19462302E+04</pdfrwt>
<pdfrwt beam="2">  1       -1 0.10157151E+00 0.19462302E+04</pdfrwt>
<totfact> 0.62287993E+00</totfact>
</mgrwt>
</event>
<event>
12    1  0.1496989E-007  0.1278150E+04  0.7818608E-02  0.9047074E-01
          2   -1    0    0  501    0  0.00000000000E+00  0.00000000000E+00  0.32930482891E+03  0.32930482891E+03  0.00000000000E+00 0. -1.
         -2   -1    0    0    0  501 -0.00000000000E+00 -0.00000000000E+00 -0.12402404535E+04  0.12402404535E+04  0.00000000000E+00 0.  1.
         23    2    1    2    0    0  0.59241159685E+02 -0.44275098409E+02  0.13333866296E+03  0.17766447091E+03  0.91190272740E+02 0.  0.
        254    2    1    2    0    0 -0.59241159685E+02  0.44275098409E+02 -0.10442742875E+04  0.13918808115E+04  0.91725329456E+03 0.  0.
        -24    2    4    4    0    0 -0.37112473988E+03 -0.22801990991E+03 -0.77326913679E+03  0.89106048469E+03  0.79479416154E+02 0.  0.
         24    2    4    4    0    0  0.31188358019E+03  0.27229500832E+03 -0.27100515073E+03  0.50082032677E+03  0.77209253537E+02 0.  0.
         11    1    3    3    0    0  0.79150775517E+02 -0.44982861478E+02  0.12793719014E+03  0.15702301651E+03  0.00000000000E+00 0. -1.
        -11    1    3    3    0    0 -0.19909615832E+02  0.70776306858E+00  0.54014728207E+01  0.20641454401E+02  0.00000000000E+00 0.  1.
          2    1    6    6  502    0  0.20310343025E+02  0.39606597331E+02 -0.51183483068E+02  0.67830240490E+02  0.00000000000E+00 0. -1.
          3    1    5    5  503    0 -0.15382192906E+03 -0.12857625188E+03 -0.40744249551E+03  0.45409517235E+03  0.00000000000E+00 0. -1.
         -2    1    5    5    0  503 -0.21730281082E+03 -0.99443658031E+02 -0.36582664128E+03  0.43696531233E+03  0.00000000000E+00 0.  1.
         -1    1    6    6    0  502  0.29157323717E+03  0.23268841099E+03 -0.21982166766E+03  0.43299008628E+03  0.00000000000E+00 0.  1.
<mgrwt>
<rscale>  0 0.12781505E+04</rscale>
<asrwt>0</asrwt>
<pdfrwt beam="1">  1        2 0.50662281E-01 0.12781505E+04</pdfrwt>
<pdfrwt beam="2">  1       -2 0.19080622E+00 0.12781505E+04</pdfrwt>
<totfact> 0.14851980E+01</totfact>
</mgrwt>
</event>
<event>
12    1  0.1496989E-007  0.1174531E+04  0.7818608E-02  0.9135446E-01
          1   -1    0    0  501    0  0.00000000000E+00  0.00000000000E+00  0.26086971257E+04  0.26086971257E+04  0.00000000000E+00 0. -1.
         -1   -1    0    0    0  501 -0.00000000000E+00 -0.00000000000E+00 -0.13220420832E+03  0.13220420832E+03  0.00000000000E+00 0.  1.
         23    2    1    2    0    0 -0.16954854341E+03  0.15335990790E+03  0.54458102860E+03  0.59714497978E+03  0.88020794359E+02 0.  0.
        254    2    1    2    0    0  0.16954854341E+03 -0.15335990790E+03  0.19319118888E+04  0.21437563542E+04  0.90063410463E+03 0.  0.
        -24    2    4    4    0    0 -0.45417350257E+02 -0.43735735167E+03  0.51891946262E+03  0.68458833994E+03  0.77714848811E+02 0.  0.
         24    2    4    4    0    0  0.21496589367E+03  0.28399744376E+03  0.14129924261E+04  0.14591680143E+04  0.75886850590E+02 0.  0.
         11    1    3    3    0    0 -0.10274894210E+03  0.13594683796E+03  0.43988480036E+03  0.47173883181E+03  0.00000000000E+00 0. -1.
        -11    1    3    3    0    0 -0.66799601309E+02  0.17413069949E+02  0.10469622825E+03  0.12540614797E+03  0.00000000000E+00 0.  1.
          4    1    6    6  502    0  0.10875412335E+03  0.15798499981E+03  0.61016683937E+03  0.63960166618E+03  0.00000000000E+00 0. -1.
          1    1    5    5  503    0  0.13453342993E+02 -0.21936002194E+03  0.27822097572E+03  0.35455143913E+03  0.00000000000E+00 0. -1.
         -2    1    5    5    0  503 -0.58870693251E+02 -0.21799732973E+03  0.24069848691E+03  0.33003690081E+03  0.00000000000E+00 0.  1.
         -3    1    6    6    0  502  0.10621177032E+03  0.12601244396E+03  0.80282558676E+03  0.81956634810E+03  0.00000000000E+00 0.  1.
<mgrwt>
<rscale>  0 0.11745310E+04</rscale>
<asrwt>0</asrwt>
<pdfrwt beam="1">  1        1 0.40133798E+00 0.11745310E+04</pdfrwt>
<pdfrwt beam="2">  1       -1 0.20339111E-01 0.11745310E+04</pdfrwt>
<totfact> 0.22619410E+01</totfact>
</mgrwt>
</event>
<event>
12    1  0.1496989E-007  0.1365685E+04  0.7818608E-02  0.8979039E-01
          1   -1    0    0  501    0  0.00000000000E+00  0.00000000000E+00  0.16354857911E+04  0.16354857911E+04  0.00000000000E+00 0. -1.
         -1   -1    0    0    0  501 -0.00000000000E+00 -0.00000000000E+00 -0.28509790481E+03  0.28509790481E+03  0.00000000000E+00 0.  1.
         23    2    1    2    0    0 -0.31506017086E+03 -0.50195581174E+02  0.68072842855E+03  0.75716020502E+03  0.90099250807E+02 0.  0.
        254    2    1    2    0    0  0.31506017086E+03  0.50195581174E+02  0.66965945774E+03  0.11634234909E+04  0.89628562534E+03 0.  0.
        -24    2    4    4    0    0  0.48800964458E+03 -0.11435777741E+03  0.74407445402E+03  0.90081209310E+03  0.81145052140E+02 0.  0.
         24    2    4    4    0    0 -0.17294947372E+03  0.16455335858E+03 -0.74414996277E+02  0.26261139780E+03  0.80236066108E+02 0.  0.
         13    1    3    3    0    0 -0.13336324931E+03 -0.30632090134E+02  0.19524957125E+03  0.23842499090E+03  0.00000000000E+00 0. -1.
        -13    1    3    3    0    0 -0.18169692155E+03 -0.19563491040E+02  0.48547885730E+03  0.51873521412E+03  0.00000000000E+00 0.  1.
          2    1    6    6  502    0 -0.17708634816E+03  0.15915528293E+03 -0.82556469110E+02  0.25200307415E+03  0.00000000000E+00 0. -1.
          1    1    5    5  503    0  0.37147006052E+03 -0.10044358807E+03  0.50924806249E+03  0.63828873513E+03  0.00000000000E+00 0. -1.
         -2    1    5    5    0  503  0.11653958406E+03 -0.13914189342E+02  0.23482639153E+03  0.26252335797E+03  0.00000000000E+00 0.  1.
         -1    1    6    6    0  502  0.41368744373E+01  0.53980756464E+01  0.81414728333E+01  0.10608323651E+02  0.00000000000E+00 0.  1.
<mgrwt>
<rscale>  0 0.13656845E+04</rscale>
<asrwt>0</asrwt>
<pdfrwt beam="1">  1        1 0.25161319E+00 0.13656845E+04</pdfrwt>
<pdfrwt beam="2">  1       -1 0.43861217E-01 0.13656845E+04</pdfrwt>
<totfact> 0.26499257E+01</totfact>
</mgrwt>
</event>
<event>
12    1  0.1496989E-007  0.1883490E+04  0.7818608E-02  0.8663118E-01
          2   -1    0    0  501    0  0.00000000000E+00  0.00000000000E+00  0.34877322586E+04  0.34877322586E+04  0.00000000000E+00 0. -1.
         -2   -1    0    0    0  501 -0.00000000000E+00 -0.00000000000E+00 -0.25428660344E+03  0.25428660344E+03  0.00000000000E+00 0.  1.
         23    2    1    2    0    0  0.69341257989E+03  0.10691253078E+03  0.79537920916E+03  0.10645984107E+04  0.92143336553E+02 0.  0.
        254    2    1    2    0    0 -0.69341257989E+03 -0.10691253078E+03  0.24380664460E+04  0.26774204513E+04  0.85566405969E+03 0.  0.
        -24    2    4    4    0    0  0.18113831996E+03 -0.51006916028E+02  0.70367107933E+03  0.73269614002E+03  0.79232880004E+02 0.  0.
         24    2    4    4    0    0 -0.87455089984E+03 -0.55905614752E+02  0.17343953667E+04  0.19447243113E+04  0.76554849570E+02 0.  0.
         11    1    3    3    0    0  0.15110420478E+03  0.47084291838E+02  0.22704487369E+03  0.27676485671E+03  0.00000000000E+00 0. -1.
        -11    1    3    3    0    0  0.54230837511E+03  0.59828238941E+02  0.56833433548E+03  0.78783355397E+03  0.00000000000E+00 0.  1.
          2    1    6    6  502    0 -0.47775706665E+03 -0.68652694117E+02  0.94693738778E+03  0.10628524938E+04  0.00000000000E+00 0. -1.
          3    1    5    5  503    0  0.87474922323E+02  0.13233302909E+02  0.25657469352E+03  0.27139925515E+03  0.00000000000E+00 0. -1.
         -4    1    5    5    0  503  0.93663397635E+02 -0.64240218936E+02  0.44709638580E+03  0.46129688486E+03  0.00000000000E+00 0.  1.
         -1    1    6    6    0  502 -0.39679383319E+03  0.12747079365E+02  0.78745797887E+03  0.88187181755E+03  0.00000000000E+00 0.  1.
<mgrwt>
<rscale>  0 0.18834899E+04</rscale>
<asrwt>0</asrwt>
<pdfrwt beam="1">  1        2 0.53657416E+00 0.18834899E+04</pdfrwt>
<pdfrwt beam="2">  1       -2 0.39121018E-01 0.18834899E+04</pdfrwt>
<totfact> 0.48368874E+00</totfact>
</mgrwt>
</event>
<event>
12    1  0.1496989E-007  0.1242001E+04  0.7818608E-02  0.9076867E-01
          2   -1    0    0  501    0  0.00000000000E+00  0.00000000000E+00  0.79178776052E+03  0.79178776052E+03  0.00000000000E+00 0. -1.
         -2   -1    0    0    0  501 -0.00000000000E+00 -0.00000000000E+00 -0.48705173839E+03  0.48705173839E+03  0.00000000000E+00 0.  1.
         23    2    1    2    0    0 -0.23894398926E+03  0.40970584601E+02  0.21660028038E+03  0.33771931815E+03  0.91464952758E+02 0.  0.
        254    2    1    2    0    0  0.23894398926E+03 -0.40970584601E+02  0.88135741743E+02  0.94112018076E+03  0.90507815511E+03 0.  0.
        -24    2    4    4    0    0  0.24382420086E+03  0.12386029674E+03  0.45104928279E+03  0.53341120656E+03  0.79312330315E+02 0.  0.
         24    2    4    4    0    0 -0.48802115993E+01 -0.16483088134E+03 -0.36291354105E+03  0.40770897420E+03  0.85599844969E+02 0.  0.
         11    1    3    3    0    0 -0.12250784391E+03 -0.25244288534E+01  0.56227180695E+02  0.13481854624E+03  0.00000000000E+00 0.  1.
        -11    1    3    3    0    0 -0.11643614535E+03  0.43495013454E+02  0.16037309969E+03  0.20290077191E+03  0.00000000000E+00 0. -1.
          4    1    6    6  502    0  0.15486480055E+02 -0.93983498302E+02 -0.11637665791E+03  0.15038701914E+03  0.00000000000E+00 0. -1.
          3    1    5    5  503    0  0.16104052161E+03  0.11530550930E+03  0.27744120603E+03  0.34088565954E+03  0.00000000000E+00 0. -1.
         -4    1    5    5    0  503  0.82783679250E+02  0.85547874431E+01  0.17360807676E+03  0.19252554702E+03  0.00000000000E+00 0.  1.
         -3    1    6    6    0  502 -0.20366691654E+02 -0.70847383041E+02 -0.24653688314E+03  0.25732195507E+03  0.00000000000E+00 0.  1.
<mgrwt>
<rscale>  0 0.12420010E+04</rscale>
<asrwt>0</asrwt>
<pdfrwt beam="1">  1        2 0.12181350E+00 0.12420010E+04</pdfrwt>
<pdfrwt beam="2">  1       -2 0.74931037E-01 0.12420010E+04</pdfrwt>
<totfact> 0.55010407E+01</totfact>
</mgrwt>
</event>
<event>
12    1  0.1496989E-007  0.2263729E+04  0.7818608E-02  0.8492361E-01
          2   -1    0    0  501    0  0.00000000000E+00  0.00000000000E+00  0.11590231322E+04  0.11590231322E+04  0.00000000000E+00 0. -1.
         -2   -1    0    0    0  501 -0.00000000000E+00 -0.00000000000E+00 -0.11053426816E+04  0.11053426816E+04  0.00000000000E+00 0.  1.
         23    2    1    2    0    0  0.30393326100E+03  0.34157060747E+03 -0.81006518934E+03  0.93512991530E+03  0.96002294174E+02 0.  0.
        254    2    1    2    0    0 -0.30393326100E+03 -0.34157060747E+03  0.86374563992E+03  0.13292358985E+04  0.90098037513E+03 0.  0.
        -24    2    4    4    0    0 -0.55902937522E+03 -0.21179606458E+03  0.26129866012E+03  0.65747192911E+03  0.81369112387E+02 0.  0.
         24    2    4    4    0    0  0.25509611422E+03 -0.12977454288E+03  0.60244697979E+03  0.67176396940E+03  0.80056278043E+02 0.  0.
         13    1    3    3    0    0 -0.53186512792E+00 -0.32981134771E+01 -0.24876752186E+02  0.25100064389E+02  0.00000000000E+00 0. -1.
        -13    1    3    3    0    0  0.30446512613E+03  0.34486872095E+03 -0.78518843715E+03  0.91002985091E+03  0.00000000000E+00 0.  1.
          2    1    6    6  502    0  0.23286561682E+03 -0.93708696439E+02  0.47178669394E+03  0.53440658666E+03  0.00000000000E+00 0. -1.
          3    1    5    5  503    0 -0.41877621578E+03 -0.14768478558E+03  0.15565715837E+03  0.47054592310E+03  0.00000000000E+00 0. -1.
         -4    1    5    5    0  503 -0.14025315943E+03 -0.64111279007E+02  0.10564150176E+03  0.18692600600E+03  0.00000000000E+00 0.  1.
         -1    1    6    6    0  502  0.22230497394E+02 -0.36065846446E+02  0.13066028586E+03  0.13735738274E+03  0.00000000000E+00 0.  1.
<mgrwt>
<rscale>  0 0.22637294E+04</rscale>
<asrwt>0</asrwt>
<pdfrwt beam="1">  1        2 0.17831125E+00 0.22637294E+04</pdfrwt>
<pdfrwt beam="2">  1       -2 0.17005272E+00 0.22637294E+04</pdfrwt>
<totfact> 0.38819696E+00</totfact>
</mgrwt>
</event>
<event>
12    1  0.1496989E-007  0.1169060E+04  0.7818608E-02  0.9140378E-01
         -1   -1    0    0    0  501 -0.00000000000E+00  0.00000000000E+00  0.12005424197E+03  0.12005424197E+03  0.00000000000E+00 0.  1.
          1   -1    0    0  501    0  0.00000000000E+00 -0.00000000000E+00 -0.28460054768E+04  0.28460054768E+04  0.00000000000E+00 0. -1.
         23    2    1    2    0    0  0.11148806445E+03 -0.12427779437E+03 -0.10531067362E+04  0.10701387655E+04  0.91041863597E+02 0.  0.
        254    2    1    2    0    0 -0.11148806445E+03  0.12427779437E+03 -0.16728444986E+04  0.18959209532E+04  0.87648901059E+03 0.  0.
        -24    2    4    4    0    0 -0.93126090891E+02 -0.35527983690E+03 -0.97734343062E+03  0.10473157766E+04  0.82303846683E+02 0.  0.
         24    2    4    4    0    0 -0.18361973560E+02  0.47955763128E+03 -0.69550106799E+03  0.84860517665E+03  0.78078975887E+02 0.  0.
         11    1    3    3    0    0  0.80931417863E+02 -0.10747022100E+03 -0.97941181738E+03  0.98860874507E+03  0.00000000000E+00 0. -1.
        -11    1    3    3    0    0  0.30556646589E+02 -0.16807573371E+02 -0.73694918812E+02  0.81530020434E+02  0.00000000000E+00 0.  1.
          2    1    6    6  502    0 -0.34611942379E+02  0.43895837985E+03 -0.60697930637E+03  0.74987087166E+03  0.00000000000E+00 0. -1.
          3    1    5    5  503    0 -0.95279342597E+02 -0.33535591799E+03 -0.85505713241E+03  0.92339831305E+03  0.00000000000E+00 0. -1.
         -4    1    5    5    0  503  0.21532517052E+01 -0.19923918917E+02 -0.12228629821E+03  0.12391746353E+03  0.00000000000E+00 0.  1.
         -1    1    6    6    0  502  0.16249968818E+02  0.40599251432E+02 -0.88521761614E+02  0.98734304994E+02  0.00000000000E+00 0.  1.
<mgrwt>
<rscale>  0 0.11690595E+04</rscale>
<asrwt>0</asrwt>
<pdfrwt beam="1">  1        1 0.43784700E+00 0.11690595E+04</pdfrwt>
<pdfrwt beam="2">  1       -1 0.18469883E-01 0.11690595E+04</pdfrwt>
<totfact> 0.18114862E+01</totfact>
</mgrwt>
</event>
<event>
12    1  0.1676750E-007  0.1963202E+04  0.7818608E-02  0.8624021E-01
          2   -1    0    0  501    0  0.00000000000E+00  0.00000000000E+00  0.13240714007E+04  0.13240714007E+04  0.00000000000E+00 0. -1.
         -2   -1    0    0    0  501 -0.00000000000E+00 -0.00000000000E+00 -0.72771022009E+03  0.72771022009E+03  0.00000000000E+00 0.  1.
         23    2    1    2    0    0  0.28690100166E+03 -0.51356555868E+03  0.69406358164E+03  0.91447969394E+03  0.92125389900E+02 0.  0.
        254    2    1    2    0    0 -0.28690100166E+03  0.51356555868E+03 -0.97702401000E+02  0.11373019269E+04  0.96842560163E+03 0.  0.
        -24    2    4    4    0    0 -0.17903670404E+03  0.38817594891E+03 -0.51894037119E+03  0.67767054290E+03  0.84873713019E+02 0.  0.
         24    2    4    4    0    0 -0.10786429762E+03  0.12538960977E+03  0.42123797019E+03  0.45963138397E+03  0.80388560552E+02 0.  0.
         11    1    3    3    0    0  0.27193845651E+03 -0.44721301062E+03  0.57647500381E+03  0.77863562146E+03  0.00000000000E+00 0. -1.
        -11    1    3    3    0    0  0.14962545145E+02 -0.66352548053E+02  0.11758857783E+03  0.13584407248E+03  0.00000000000E+00 0.  1.
          2    1    6    6  502    0 -0.11900790966E+03  0.97914514233E+02  0.34642369150E+03  0.37915631168E+03  0.00000000000E+00 0. -1.
          1    1    5    5  503    0 -0.80380089960E+02  0.26177056217E+03 -0.35511529734E+03  0.44843244808E+03  0.00000000000E+00 0. -1.
         -2    1    5    5    0  503 -0.98656614079E+02  0.12640538673E+03 -0.16382507385E+03  0.22923809482E+03  0.00000000000E+00 0.  1.
         -1    1    6    6    0  502  0.11143612044E+02  0.27475095537E+02  0.74814278690E+02  0.80475072290E+02  0.00000000000E+00 0.  1.
<mgrwt>
<rscale>  0 0.19632018E+04</rscale>
<asrwt>0</asrwt>
<pdfrwt beam="1">  1        2 0.20370329E+00 0.19632018E+04</pdfrwt>
<pdfrwt beam="2">  1       -2 0.11195542E+00 0.19632018E+04</pdfrwt>
<totfact> 0.93907354E+00</totfact>
</mgrwt>
</event>
<event>
12    1  0.1496989E-007  0.1690325E+04  0.7818608E-02  0.8766902E-01
         -1   -1    0    0    0  501 -0.00000000000E+00  0.00000000000E+00  0.87215816952E+03  0.87215816952E+03  0.00000000000E+00 0.  1.
          1   -1    0    0  501    0  0.00000000000E+00 -0.00000000000E+00 -0.81900250321E+03  0.81900250321E+03  0.00000000000E+00 0. -1.
         23    2    1    2    0    0 -0.12604420464E+03 -0.30079810717E+03  0.52512266387E+03  0.62488125127E+03  0.91411833352E+02 0.  0.
        254    2    1    2    0    0  0.12604420464E+03  0.30079810717E+03 -0.47196699756E+03  0.10662794215E+04  0.89879492380E+03 0.  0.
        -24    2    4    4    0    0 -0.19663712379E+03  0.37450571145E+03 -0.56805481108E+03  0.71277740460E+03  0.80278725444E+02 0.  0.
         24    2    4    4    0    0  0.32268132843E+03 -0.73707604275E+02  0.96087813521E+02  0.35350201686E+03  0.78579624402E+02 0.  0.
         13    1    3    3    0    0 -0.89487576116E+02 -0.24077969496E+03  0.46981557703E+03  0.53545267223E+03  0.00000000000E+00 0.  1.
        -13    1    3    3    0    0 -0.36556628521E+02 -0.60018412213E+02  0.55307086841E+02  0.89428579035E+02  0.00000000000E+00 0. -1.
          4    1    6    6  502    0  0.54727203214E+02 -0.17514390736E+02  0.49378575670E+02  0.75763212641E+02  0.00000000000E+00 0. -1.
          1    1    5    5  503    0 -0.66036413053E+01  0.14132996210E+02 -0.25596764818E+01  0.15808276441E+02  0.00000000000E+00 0. -1.
         -2    1    5    5    0  503 -0.19003348249E+03  0.36037271524E+03 -0.56549513460E+03  0.69696912816E+03  0.00000000000E+00 0.  1.
         -3    1    6    6    0  502  0.26795412522E+03 -0.56193213539E+02  0.46709237851E+02  0.27773880422E+03  0.00000000000E+00 0.  1.
<mgrwt>
<rscale>  0 0.16903251E+04</rscale>
<asrwt>0</asrwt>
<pdfrwt beam="1">  1        1 0.12600038E+00 0.16903251E+04</pdfrwt>
<pdfrwt beam="2">  1       -1 0.13417818E+00 0.16903251E+04</pdfrwt>
<totfact> 0.94872270E+00</totfact>
</mgrwt>
</event>
<event>
12    1  0.1496989E-007  0.2946603E+04  0.7818608E-02  0.8259145E-01
         -1   -1    0    0    0  501 -0.00000000000E+00  0.00000000000E+00  0.76278504054E+03  0.76278504054E+03  0.00000000000E+00 0.  1.
          1   -1    0    0  501    0  0.00000000000E+00 -0.00000000000E+00 -0.28456467573E+04  0.28456467573E+04  0.00000000000E+00 0. -1.
         23    2    1    2    0    0 -0.10249773929E+04  0.72397633329E+03 -0.39018889568E+03  0.13175271962E+04  0.94393597822E+02 0.  0.
        254    2    1    2    0    0  0.10249773929E+04 -0.72397633329E+03 -0.16926728211E+04  0.22909046016E+04  0.89910078829E+03 0.  0.
        -24    2    4    4    0    0  0.10433832325E+04 -0.86737050385E+03 -0.15961278919E+04  0.20963543949E+04  0.78085470932E+02 0.  0.
         24    2    4    4    0    0 -0.18405839641E+02  0.14339417056E+03 -0.96544929116E+02  0.19455020671E+03  0.87339547230E+02 0.  0.
         11    1    3    3    0    0 -0.98083554471E+03  0.70533646189E+03 -0.35888607649E+03  0.12602924685E+04  0.00000000000E+00 0.  1.
        -11    1    3    3    0    0 -0.44141848163E+02  0.18639871404E+02 -0.31302819188E+02  0.57234727695E+02  0.00000000000E+00 0. -1.
          2    1    6    6  502    0  0.20068134976E+02  0.77735825916E+02 -0.86121822701E+02  0.11773936053E+03  0.00000000000E+00 0. -1.
          3    1    5    5  503    0  0.85278296019E+03 -0.74622291453E+03 -0.13377428280E+04  0.17531809060E+04  0.00000000000E+00 0. -1.
         -4    1    5    5    0  503  0.19060027232E+03 -0.12114758932E+03 -0.25838506395E+03  0.34317348890E+03  0.00000000000E+00 0.  1.
         -1    1    6    6    0  502 -0.38473974617E+02  0.65658344643E+02 -0.10423106415E+02  0.76810846183E+02  0.00000000000E+00 0.  1.
<mgrwt>
<rscale>  0 0.29466026E+04</rscale>
<asrwt>0</asrwt>
<pdfrwt beam="1">  1        1 0.43779180E+00 0.29466026E+04</pdfrwt>
<pdfrwt beam="2">  1       -1 0.11735155E+00 0.29466026E+04</pdfrwt>
<totfact> 0.43175961E-01</totfact>
</mgrwt>
</event>
<event>
12    1  0.1496989E-007  0.3296622E+04  0.7818608E-02  0.8163756E-01
         -1   -1    0    0    0  501 -0.00000000000E+00  0.00000000000E+00  0.94674095613E+03  0.94674095613E+03  0.00000000000E+00 0.  1.
          1   -1    0    0  501    0  0.00000000000E+00 -0.00000000000E+00 -0.28697699137E+04  0.28697699137E+04  0.00000000000E+00 0. -1.
         23    2    1    2    0    0 -0.85824216098E+03  0.43708873589E+03  0.48620047461E+03  0.10827011156E+04  0.90689769052E+02 0.  0.
        254    2    1    2    0    0  0.85824216098E+03 -0.43708873589E+03 -0.24092294322E+04  0.27338097542E+04  0.86122189110E+03 0.  0.
        -24    2    4    4    0    0  0.15219820387E+03 -0.36315408474E+03 -0.28639756610E+03  0.49408102240E+03  0.83948247787E+02 0.  0.
         24    2    4    4    0    0  0.70604395711E+03 -0.73934651144E+02 -0.21228318661E+04  0.22397287318E+04  0.77493604086E+02 0.  0.
         11    1    3    3    0    0 -0.55122335420E+03  0.32629763385E+03  0.33738792772E+03  0.72398062532E+03  0.00000000000E+00 0.  1.
        -11    1    3    3    0    0 -0.30701880678E+03  0.11079110204E+03  0.14881254689E+03  0.35872049024E+03  0.00000000000E+00 0. -1.
          4    1    6    6  502    0  0.22262458150E+02 -0.16143988828E+02 -0.68380717274E+02  0.73703242215E+02  0.00000000000E+00 0. -1.
          1    1    5    5  503    0 -0.92704641816E+01 -0.30142939074E+02 -0.32387881127E+02  0.45205233393E+02  0.00000000000E+00 0. -1.
         -2    1    5    5    0  503  0.16146866805E+03 -0.33301114567E+03 -0.25400968497E+03  0.44887578901E+03  0.00000000000E+00 0.  1.
         -3    1    6    6    0  502  0.68378149896E+03 -0.57790662317E+02 -0.20544511488E+04  0.21660254896E+04  0.00000000000E+00 0.  1.
<mgrwt>
<rscale>  0 0.32966217E+04</rscale>
<asrwt>0</asrwt>
<pdfrwt beam="1">  1        1 0.44150306E+00 0.32966217E+04</pdfrwt>
<pdfrwt beam="2">  1       -1 0.14565246E+00 0.32966217E+04</pdfrwt>
<totfact> 0.23256667E-01</totfact>
</mgrwt>
</event>
<event>
12    1  0.1496989E-007  0.1797262E+04  0.7818608E-02  0.8707757E-01
         -1   -1    0    0    0  501 -0.00000000000E+00  0.00000000000E+00  0.10489565308E+04  0.10489565308E+04  0.00000000000E+00 0.  1.
          1   -1    0    0  501    0  0.00000000000E+00 -0.00000000000E+00 -0.76984819953E+03  0.76984819953E+03  0.00000000000E+00 0. -1.
         23    2    1    2    0    0 -0.60078438841E+03  0.49869603515E+02  0.38799071472E+03  0.72268162486E+03  0.91121224170E+02 0.  0.
        254    2    1    2    0    0  0.60078438841E+03 -0.49869603515E+02 -0.10888238348E+03  0.10961231054E+04  0.90895634116E+03 0.  0.
        -24    2    4    4    0    0  0.11276297768E+03 -0.33080509413E+03 -0.32896618419E+03  0.48652805588E+03  0.79644832724E+02 0.  0.
         24    2    4    4    0    0  0.48802141073E+03  0.28093549061E+03  0.22008380071E+03  0.60959504956E+03  0.77971776297E+02 0.  0.
         13    1    3    3    0    0 -0.18788683955E+03  0.32833196567E+02  0.16981391416E+03  0.25537472216E+03  0.00000000000E+00 0.  1.
        -13    1    3    3    0    0 -0.41289754886E+03  0.17036406949E+02  0.21817680055E+03  0.46730690271E+03  0.00000000000E+00 0. -1.
          4    1    6    6  502    0  0.50533658725E+02  0.28288984520E+02 -0.15137040690E+01  0.57932793903E+02  0.00000000000E+00 0. -1.
          3    1    5    5  503    0  0.58784173355E+02 -0.15764846176E+03 -0.10498570864E+03  0.19831947850E+03  0.00000000000E+00 0. -1.
         -4    1    5    5    0  503  0.53978804328E+02 -0.17315663237E+03 -0.22398047555E+03  0.28820857738E+03  0.00000000000E+00 0.  1.
         -3    1    6    6    0  502  0.43748775200E+03  0.25264650609E+03  0.22159750478E+03  0.55166225566E+03  0.00000000000E+00 0.  1.
<mgrwt>
<rscale>  0 0.17972616E+04</rscale>
<asrwt>0</asrwt>
<pdfrwt beam="1">  1        1 0.11843818E+00 0.17972616E+04</pdfrwt>
<pdfrwt beam="2">  1       -1 0.16137793E+00 0.17972616E+04</pdfrwt>
<totfact> 0.63301137E+00</totfact>
</mgrwt>
</event>
<event>
12    1  0.1496989E-007  0.2671849E+04  0.7818608E-02  0.8344197E-01
          1   -1    0    0  501    0  0.00000000000E+00  0.00000000000E+00  0.15583690927E+04  0.15583690927E+04  0.00000000000E+00 0. -1.
         -1   -1    0    0    0  501 -0.00000000000E+00 -0.00000000000E+00 -0.11452321190E+04  0.11452321190E+04  0.00000000000E+00 0.  1.
         23    2    1    2    0    0 -0.41949865501E+02 -0.51239637143E+03 -0.89274203021E+03  0.10345628270E+04  0.94984618450E+02 0.  0.
        254    2    1    2    0    0  0.41949865501E+02  0.51239637143E+03  0.13058790039E+04  0.16690383847E+04  0.90336001921E+03 0.  0.
        -24    2    4    4    0    0  0.39945443172E+03  0.13878062537E+03  0.93031222059E+03  0.10250489241E+04  0.80128422561E+02 0.  0.
         24    2    4    4    0    0 -0.35750456622E+03  0.37361574606E+03  0.37556678328E+03  0.64398946059E+03  0.79207171930E+02 0.  0.
         11    1    3    3    0    0 -0.15048718592E+01 -0.37823580523E+03 -0.58799496703E+03  0.69914424138E+03  0.00000000000E+00 0.  1.
        -11    1    3    3    0    0 -0.40444993642E+02 -0.13416056620E+03 -0.30474706318E+03  0.33541858558E+03  0.00000000000E+00 0. -1.
          4    1    6    6  502    0 -0.28056731676E+03  0.31033041102E+03  0.26530137304E+03  0.49538651756E+03  0.00000000000E+00 0. -1.
          3    1    5    5  503    0  0.23967587553E+03  0.76248339158E+02  0.64249238558E+03  0.68996724565E+03  0.00000000000E+00 0. -1.
         -4    1    5    5    0  503  0.15977855619E+03  0.62532286213E+02  0.28781983501E+03  0.33508167850E+03  0.00000000000E+00 0.  1.
         -3    1    6    6    0  502 -0.76937249459E+02  0.63285335034E+02  0.11026541024E+03  0.14860294304E+03  0.00000000000E+00 0.  1.
<mgrwt>
<rscale>  0 0.26718491E+04</rscale>
<asrwt>0</asrwt>
<pdfrwt beam="1">  1        1 0.23974909E+00 0.26718491E+04</pdfrwt>
<pdfrwt beam="2">  1       -1 0.17618956E+00 0.26718491E+04</pdfrwt>
<totfact> 0.11568958E+00</totfact>
</mgrwt>
</event>
<event>
12    1  0.1496989E-007  0.1214915E+04  0.7818608E-02  0.9099901E-01
          2   -1    0    0  501    0  0.00000000000E+00  0.00000000000E+00  0.37695501593E+04  0.37695501593E+04  0.00000000000E+00 0. -1.
         -2   -1    0    0    0  501 -0.00000000000E+00 -0.00000000000E+00 -0.97890817866E+02  0.97890817866E+02  0.00000000000E+00 0.  1.
         23    2    1    2    0    0  0.16418521020E+03 -0.62801839115E+02  0.14972633345E+04  0.15100712795E+04  0.87274980466E+02 0.  0.
        254    2    1    2    0    0 -0.16418521020E+03  0.62801839115E+02  0.21743960070E+04  0.23573696977E+04  0.89347246296E+03 0.  0.
        -24    2    4    4    0    0 -0.26121568240E+03 -0.21770477908E+03  0.30653070401E+03  0.46454702655E+03  0.78828064846E+02 0.  0.
         24    2    4    4    0    0  0.97030472205E+02  0.28050661820E+03  0.18678653030E+04  0.18928226711E+04  0.75881479123E+02 0.  0.
         13    1    3    3    0    0  0.82388531291E+02 -0.65340716658E+02  0.60569503493E+03  0.61475503632E+03  0.00000000000E+00 0.  1.
        -13    1    3    3    0    0  0.81796678908E+02  0.25388775429E+01  0.89156829956E+03  0.89531624321E+03  0.00000000000E+00 0. -1.
          4    1    6    6  502    0  0.26960800666E+02  0.59245267419E+02  0.63284664926E+03  0.63618532517E+03  0.00000000000E+00 0. -1.
          1    1    5    5  503    0 -0.14023158023E+03 -0.67257105174E+02  0.14885167807E+03  0.21527943783E+03  0.00000000000E+00 0. -1.
         -2    1    5    5    0  503 -0.12098410218E+03 -0.15044767391E+03  0.15767902594E+03  0.24926758872E+03  0.00000000000E+00 0.  1.
         -3    1    6    6    0  502  0.70069671538E+02  0.22126135078E+03  0.12350186537E+04  0.12566373459E+04  0.00000000000E+00 0.  1.
<mgrwt>
<rscale>  0 0.12149146E+04</rscale>
<asrwt>0</asrwt>
<pdfrwt beam="1">  1        2 0.57993068E+00 0.12149146E+04</pdfrwt>
<pdfrwt beam="2">  1       -2 0.15060129E-01 0.12149146E+04</pdfrwt>
<totfact> 0.18389081E+01</totfact>
</mgrwt>
</event>
<event>
12    1  0.1496989E-007  0.1677184E+04  0.7818608E-02  0.8774485E-01
          2   -1    0    0  501    0  0.00000000000E+00  0.00000000000E+00  0.71962200183E+03  0.71962200183E+03  0.00000000000E+00 0. -1.
         -2   -1    0    0    0  501 -0.00000000000E+00 -0.00000000000E+00 -0.97723044630E+03  0.97723044630E+03  0.00000000000E+00 0.  1.
         23    2    1    2    0    0 -0.10328281447E+03  0.45027198938E+03 -0.45897149830E+03  0.65781490198E+03  0.93023678850E+02 0.  0.
        254    2    1    2    0    0  0.10328281447E+03 -0.45027198938E+03  0.20136305383E+03  0.10390375462E+04  0.90864720254E+03 0.  0.
        -24    2    4    4    0    0 -0.34641426243E+03 -0.38220169509E+03  0.24386097276E+03  0.57520942347E+03  0.72915909558E+02 0.  0.
         24    2    4    4    0    0  0.44969707690E+03 -0.68070294290E+02 -0.42497918924E+02  0.46382812268E+03  0.80432756667E+02 0.  0.
         13    1    3    3    0    0 -0.74167129255E+02  0.38970837596E+03 -0.42878035752E+03  0.58414550957E+03  0.00000000000E+00 0. -1.
        -13    1    3    3    0    0 -0.29115685210E+02  0.60563613422E+02 -0.30191140774E+02  0.73669392405E+02  0.00000000000E+00 0.  1.
          4    1    6    6  502    0  0.12718584632E+03 -0.37745183029E+02  0.19261622578E+02  0.13405949594E+03  0.00000000000E+00 0. -1.
          3    1    5    5  503    0 -0.13554319661E+03 -0.98900719619E+02  0.77599172371E+02  0.18486465871E+03  0.00000000000E+00 0. -1.
         -4    1    5    5    0  503 -0.21087106582E+03 -0.28330097548E+03  0.16626180039E+03  0.39034476476E+03  0.00000000000E+00 0.  1.
         -3    1    6    6    0  502  0.32251123057E+03 -0.30325111261E+02 -0.61759541502E+02  0.32976862674E+03  0.00000000000E+00 0.  1.
<mgrwt>
<rscale>  0 0.16771840E+04</rscale>
<asrwt>0</asrwt>
<pdfrwt beam="1">  1        2 0.11071108E+00 0.16771840E+04</pdfrwt>
<pdfrwt beam="2">  1       -2 0.15034315E+00 0.16771840E+04</pdfrwt>
<totfact> 0.11222850E+01</totfact>
</mgrwt>
</event>
<event>
12    1  0.1496989E-007  0.1366787E+04  0.7818608E-02  0.8978217E-01
         -2   -1    0    0    0  501 -0.00000000000E+00  0.00000000000E+00  0.53961537182E+03  0.53961537182E+03  0.00000000000E+00 0.  1.
          2   -1    0    0  501    0  0.00000000000E+00 -0.00000000000E+00 -0.86548056342E+03  0.86548056342E+03  0.00000000000E+00 0. -1.
         23    2    1    2    0    0  0.33600024936E+03 -0.27473283168E+01  0.91538097297E+02  0.35979595971E+03  0.90389125387E+02 0.  0.
        254    2    1    2    0    0 -0.33600024936E+03  0.27473283168E+01 -0.41740328890E+03  0.10452999755E+04  0.89750922997E+03 0.  0.
        -24    2    4    4    0    0 -0.71806690043E+02 -0.32960864698E+03 -0.49649182293E+03  0.60588354542E+03  0.82417713349E+02 0.  0.
         24    2    4    4    0    0 -0.26419355931E+03  0.33235597530E+03  0.79088534037E+02  0.43941643010E+03  0.81074482601E+02 0.  0.
         11    1    3    3    0    0  0.32999448227E+03 -0.90649040045E+01  0.71258292729E+02  0.33772218626E+03  0.00000000000E+00 0.  1.
        -11    1    3    3    0    0  0.60057670859E+01  0.63175756877E+01  0.20279804568E+02  0.22073773446E+02  0.00000000000E+00 0. -1.
          4    1    6    6  502    0 -0.19445285820E+03  0.26267943951E+03  0.27043189068E+02  0.32793861633E+03  0.00000000000E+00 0. -1.
          1    1    5    5  503    0 -0.53397641155E+02 -0.22482097488E+03 -0.26818699595E+03  0.35400571128E+03  0.00000000000E+00 0. -1.
         -4    1    5    5    0  503 -0.18409048888E+02 -0.10478767211E+03 -0.22830482699E+03  0.25187783414E+03  0.00000000000E+00 0.  1.
         -3    1    6    6    0  502 -0.69740701113E+02  0.69676535787E+02  0.52045344969E+02  0.11147781378E+03  0.00000000000E+00 0.  1.
<mgrwt>
<rscale>  0 0.13667869E+04</rscale>
<asrwt>0</asrwt>
<pdfrwt beam="1">  1        2 0.13315086E+00 0.13667869E+04</pdfrwt>
<pdfrwt beam="2">  1       -2 0.83017750E-01 0.13667869E+04</pdfrwt>
<totfact> 0.38415595E+01</totfact>
</mgrwt>
</event>
<event>
12    1  0.1496989E-007  0.1920984E+04  0.7818608E-02  0.8644481E-01
         -2   -1    0    0    0  501 -0.00000000000E+00  0.00000000000E+00  0.14196307012E+04  0.14196307012E+04  0.00000000000E+00 0.  1.
          2   -1    0    0  501    0  0.00000000000E+00 -0.00000000000E+00 -0.64984851059E+03  0.64984851059E+03  0.00000000000E+00 0. -1.
         23    2    1    2    0    0 -0.26858199700E+03 -0.14807704798E+03 -0.43829390600E+03  0.54291585727E+03  0.92698321397E+02 0.  0.
        254    2    1    2    0    0  0.26858199700E+03  0.14807704798E+03  0.12080760966E+04  0.15265633545E+04  0.88141064147E+03 0.  0.
        -24    2    4    4    0    0  0.46068093893E+03  0.16194432484E+02  0.11910663987E+04  0.12796214231E+04  0.79389125014E+02 0.  0.
         24    2    4    4    0    0 -0.19209894194E+03  0.13188261550E+03  0.17009697930E+02  0.24694193145E+03  0.79974745513E+02 0.  0.
         11    1    3    3    0    0 -0.17856644051E+03 -0.13238652412E+03 -0.35735417999E+03  0.42084935000E+03  0.00000000000E+00 0. -1.
        -11    1    3    3    0    0 -0.90015556491E+02 -0.15690523859E+02 -0.80939726011E+02  0.12206650727E+03  0.00000000000E+00 0.  1.
          4    1    6    6  502    0 -0.87836908481E+02  0.17782733156E+02 -0.95078938474E+01  0.90121851598E+02  0.00000000000E+00 0. -1.
          1    1    5    5  503    0  0.15192383256E+03  0.15211729087E+02  0.30076848715E+03  0.33730391410E+03  0.00000000000E+00 0. -1.
         -2    1    5    5    0  503  0.30875710637E+03  0.98270339624E+00  0.89029791152E+03  0.94231750896E+03  0.00000000000E+00 0.  1.
         -3    1    6    6    0  502 -0.10426203345E+03  0.11409988234E+03  0.26517591777E+02  0.15682007985E+03  0.00000000000E+00 0.  1.
<mgrwt>
<rscale>  0 0.19209840E+04</rscale>
<asrwt>0</asrwt>
<pdfrwt beam="1">  1        2 0.99976694E-01 0.19209840E+04</pdfrwt>
<pdfrwt beam="2">  1       -2 0.21840472E+00 0.19209840E+04</pdfrwt>
<totfact> 0.42516276E+00</totfact>
</mgrwt>
</event>
<event>
12    1  0.1496989E-007  0.1820683E+04  0.7818608E-02  0.8695377E-01
          2   -1    0    0  501    0  0.00000000000E+00  0.00000000000E+00  0.11956483680E+04  0.11956483680E+04  0.00000000000E+00 0. -1.
         -2   -1    0    0    0  501 -0.00000000000E+00 -0.00000000000E+00 -0.69311519753E+03  0.69311519753E+03  0.00000000000E+00 0.  1.
         23    2    1    2    0    0  0.43067856696E+03  0.40239944392E+02  0.74042608899E+03  0.86216686307E+03  0.89429443513E+02 0.  0.
        254    2    1    2    0    0 -0.43067856696E+03 -0.40239944392E+02 -0.23789291849E+03  0.10265967025E+04  0.90011358600E+03 0.  0.
        -24    2    4    4    0    0 -0.59972302733E+03 -0.16254095666E+03 -0.40647482670E+03  0.74694110437E+03  0.81313938248E+02 0.  0.
         24    2    4    4    0    0  0.16904446037E+03  0.12230101227E+03  0.16858190821E+03  0.27965559811E+03  0.79081139302E+02 0.  0.
         11    1    3    3    0    0  0.40941970303E+03  0.28198715020E+02  0.72552159485E+03  0.83354738639E+03  0.00000000000E+00 0. -1.
        -11    1    3    3    0    0  0.21258863928E+02  0.12041229372E+02  0.14904494135E+02  0.28619476685E+02  0.00000000000E+00 0.  1.
          4    1    6    6  502    0  0.15026413907E+03  0.11024452827E+03  0.10870383277E+03  0.21575377346E+03  0.00000000000E+00 0. -1.
          1    1    5    5  503    0 -0.31735869271E+03 -0.67451944961E+02 -0.25522858027E+03  0.41280495746E+03  0.00000000000E+00 0. -1.
         -2    1    5    5    0  503 -0.28236433462E+03 -0.95089011698E+02 -0.15124624643E+03  0.33413614691E+03  0.00000000000E+00 0.  1.
         -3    1    6    6    0  502  0.18780321297E+02  0.12056483995E+02  0.59878075437E+02  0.63901824640E+02  0.00000000000E+00 0.  1.
<mgrwt>
<rscale>  0 0.18206834E+04</rscale>
<asrwt>0</asrwt>
<pdfrwt beam="1">  1        2 0.18394590E+00 0.18206834E+04</pdfrwt>
<pdfrwt beam="2">  1       -2 0.10663311E+00 0.18206834E+04</pdfrwt>
<totfact> 0.12722636E+01</totfact>
</mgrwt>
</event>
<event>
12    1  0.1496989E-007  0.1258359E+04  0.7818608E-02  0.9063255E-01
         -2   -1    0    0    0  501 -0.00000000000E+00  0.00000000000E+00  0.28308738674E+03  0.28308738674E+03  0.00000000000E+00 0.  1.
          2   -1    0    0  501    0  0.00000000000E+00 -0.00000000000E+00 -0.13983910332E+04  0.13983910332E+04  0.00000000000E+00 0. -1.
         23    2    1    2    0    0  0.29157666254E+03  0.62729671895E+02 -0.26612381259E+03  0.41016209039E+03  0.91973337924E+02 0.  0.
        254    2    1    2    0    0 -0.29157666254E+03 -0.62729671895E+02 -0.84917983388E+03  0.12713163296E+04  0.89787908855E+03 0.  0.
        -24    2    4    4    0    0  0.24981178525E+03  0.17969669240E+03 -0.15093639859E+03  0.35179925087E+03  0.79272234642E+02 0.  0.
         24    2    4    4    0    0 -0.54138844779E+03 -0.24242636430E+03 -0.69824343529E+03  0.91951707869E+03  0.78075409506E+02 0.  0.
         11    1    3    3    0    0  0.89277472491E+02 -0.15149360761E+01 -0.33790984784E+02  0.95470376444E+02  0.00000000000E+00 0.  1.
        -11    1    3    3    0    0  0.20229919005E+03  0.64244607971E+02 -0.23233282781E+03  0.31469171394E+03  0.00000000000E+00 0. -1.
          2    1    6    6  502    0 -0.45535354333E+03 -0.21346646145E+03 -0.54641266598E+03  0.74261805872E+03  0.00000000000E+00 0. -1.
          3    1    5    5  503    0  0.19950939590E+03  0.16654910512E+03 -0.14942734990E+03  0.29978515034E+03  0.00000000000E+00 0. -1.
         -4    1    5    5    0  503  0.50302389350E+02  0.13147587280E+02 -0.15090486882E+01  0.52014100526E+02  0.00000000000E+00 0.  1.
         -1    1    6    6    0  502 -0.86034904455E+02 -0.28959902845E+02 -0.15183076931E+03  0.17689901997E+03  0.00000000000E+00 0.  1.
<mgrwt>
<rscale>  0 0.12583590E+04</rscale>
<asrwt>0</asrwt>
<pdfrwt beam="1">  1        2 0.21513708E+00 0.12583590E+04</pdfrwt>
<pdfrwt beam="2">  1       -2 0.43551905E-01 0.12583590E+04</pdfrwt>
<totfact> 0.71227831E+01</totfact>
</mgrwt>
</event>
<event>
12    1  0.1496989E-007  0.2256334E+04  0.7818608E-02  0.8495340E-01
          2   -1    0    0  501    0  0.00000000000E+00  0.00000000000E+00  0.29946607522E+04  0.29946607522E+04  0.00000000000E+00 0. -1.
         -2   -1    0    0    0  501 -0.00000000000E+00 -0.00000000000E+00 -0.42501016421E+03  0.42501016421E+03  0.00000000000E+00 0.  1.
         23    2    1    2    0    0 -0.52265900581E+03 -0.49197152943E+03  0.14715528082E+03  0.73832231893E+03  0.90866648570E+02 0.  0.
        254    2    1    2    0    0  0.52265900581E+03  0.49197152943E+03  0.24224953072E+04  0.26813485975E+04  0.89774070078E+03 0.  0.
        -24    2    4    4    0    0 -0.46199996971E+01  0.59966649766E+03  0.13327025181E+04  0.14634329839E+04  0.76934021930E+02 0.  0.
         24    2    4    4    0    0  0.52727900551E+03 -0.10769496823E+03  0.10897927891E+04  0.12179156136E+04  0.77773793332E+02 0.  0.
         13    1    3    3    0    0 -0.19994762255E+03 -0.24467066882E+03  0.83222225078E+02  0.32675484188E+03  0.00000000000E+00 0. -1.
        -13    1    3    3    0    0 -0.32271138326E+03 -0.24730086061E+03  0.63933055738E+02  0.41156747704E+03  0.00000000000E+00 0.  1.
          4    1    6    6  502    0  0.31126060966E+03 -0.10168372523E+03  0.67278870237E+03  0.74824286508E+03  0.00000000000E+00 0. -1.
          1    1    5    5  503    0  0.30253958572E+02  0.24808810914E+03  0.50417864264E+03  0.56272472453E+03  0.00000000000E+00 0. -1.
         -2    1    5    5    0  503 -0.34873958269E+02  0.35157838852E+03  0.82852387548E+03  0.90070825936E+03  0.00000000000E+00 0.  1.
         -3    1    6    6    0  502  0.21601839585E+03 -0.60112429951E+01  0.41700408672E+03  0.46967274855E+03  0.00000000000E+00 0.  1.
<mgrwt>
<rscale>  0 0.22563344E+04</rscale>
<asrwt>0</asrwt>
<pdfrwt beam="1">  1        2 0.46071702E+00 0.22563344E+04</pdfrwt>
<pdfrwt beam="2">  1       -2 0.65386181E-01 0.22563344E+04</pdfrwt>
<totfact> 0.34443968E+00</totfact>
</mgrwt>
</event>
<event>
12    1  0.1496989E-007  0.1145227E+04  0.7818608E-02  0.9162198E-01
          1   -1    0    0  501    0  0.00000000000E+00  0.00000000000E+00  0.15561788437E+04  0.15561788437E+04  0.00000000000E+00 0. -1.
         -1   -1    0    0    0  501 -0.00000000000E+00 -0.00000000000E+00 -0.21069973063E+03  0.21069973063E+03  0.00000000000E+00 0.  1.
         23    2    1    2    0    0  0.14349830048E+03 -0.11918533164E+03  0.36180322861E+03  0.42079299690E+03  0.10662206378E+03 0.  0.
        254    2    1    2    0    0 -0.14349830048E+03  0.11918533164E+03  0.98367588443E+03  0.13460855774E+04  0.89973953486E+03 0.  0.
        -24    2    4    4    0    0  0.35053760385E+03  0.13088746615E+03  0.61651263461E+03  0.72562153017E+03  0.80191245804E+02 0.  0.
         24    2    4    4    0    0 -0.49403590432E+03 -0.11702134502E+02  0.36716324982E+03  0.62046404725E+03  0.77190460533E+02 0.  0.
         11    1    3    3    0    0  0.18577026593E+02 -0.67580035642E+02  0.18787085483E+03  0.20051839125E+03  0.00000000000E+00 0. -1.
        -11    1    3    3    0    0  0.12492127388E+03 -0.51605296001E+02  0.17393237378E+03  0.22027460565E+03  0.00000000000E+00 0.  1.
          4    1    6    6  502    0 -0.21451814733E+03  0.71295162443E+01  0.20477746725E+03  0.29665245091E+03  0.00000000000E+00 0. -1.
          3    1    5    5  503    0  0.25841064824E+03  0.98384793172E+02  0.38197443425E+03  0.47155073860E+03  0.00000000000E+00 0. -1.
         -2    1    5    5    0  503  0.92126955601E+02  0.32502672973E+02  0.23453820037E+03  0.25407079157E+03  0.00000000000E+00 0.  1.
         -3    1    6    6    0  502 -0.27951775699E+03 -0.18831650747E+02  0.16238578257E+03  0.32381159634E+03  0.00000000000E+00 0.  1.
<mgrwt>
<rscale>  0 0.11452274E+04</rscale>
<asrwt>0</asrwt>
<pdfrwt beam="1">  1        1 0.23941212E+00 0.11452274E+04</pdfrwt>
<pdfrwt beam="2">  1       -1 0.32415344E-01 0.11452274E+04</pdfrwt>
<totfact> 0.52879673E+01</totfact>
</mgrwt>
</event>
<event>
12    1  0.1496989E-007  0.2537399E+04  0.7818608E-02  0.8389782E-01
          1   -1    0    0  501    0  0.00000000000E+00  0.00000000000E+00  0.23123987921E+04  0.23123987921E+04  0.00000000000E+00 0. -1.
         -1   -1    0    0    0  501 -0.00000000000E+00 -0.00000000000E+00 -0.69607295067E+03  0.69607295067E+03  0.00000000000E+00 0.  1.
         23    2    1    2    0    0 -0.10946837376E+04  0.80479756290E+01  0.49051434831E+03  0.12030980962E+04  0.91888234820E+02 0.  0.
        254    2    1    2    0    0  0.10946837376E+04 -0.80479756290E+01  0.11258114931E+04  0.18053736466E+04  0.89080033143E+03 0.  0.
        -24    2    4    4    0    0  0.72135097244E+03  0.41183122435E+03  0.77219602998E+03  0.11366591208E+04  0.75862147023E+02 0.  0.
         24    2    4    4    0    0  0.37333276521E+03 -0.41987919998E+03  0.35361546314E+03  0.66871452584E+03  0.80369926835E+02 0.  0.
         11    1    3    3    0    0 -0.82158379196E+03 -0.10274838050E+02  0.32745542067E+03  0.88449564840E+03  0.00000000000E+00 0. -1.
        -11    1    3    3    0    0 -0.27309994568E+03  0.18322813679E+02  0.16305892764E+03  0.31860244775E+03  0.00000000000E+00 0.  1.
          2    1    6    6  502    0  0.15903152998E+03 -0.20238968774E+03  0.11857146420E+03  0.28339337563E+03  0.00000000000E+00 0. -1.
          3    1    5    5  503    0  0.66589233804E+03  0.35679902915E+03  0.68793347324E+03  0.10217488031E+04  0.00000000000E+00 0. -1.
         -4    1    5    5    0  503  0.55458634399E+02  0.55032195196E+02  0.84262556746E+02  0.11491031767E+03  0.00000000000E+00 0.  1.
         -1    1    6    6    0  502  0.21430123523E+03 -0.21748951224E+03  0.23504399895E+03  0.38532115021E+03  0.00000000000E+00 0.  1.
<mgrwt>
<rscale>  0 0.25373989E+04</rscale>
<asrwt>0</asrwt>
<pdfrwt beam="1">  1        1 0.35575366E+00 0.25373989E+04</pdfrwt>
<pdfrwt beam="2">  1       -1 0.10708815E+00 0.25373989E+04</pdfrwt>
<totfact> 0.13135483E+00</totfact>
</mgrwt>
</event>
<event>
12    1  0.1496989E-007  0.1927201E+04  0.7818608E-02  0.8641434E-01
         -2   -1    0    0    0  501 -0.00000000000E+00  0.00000000000E+00  0.58966523832E+03  0.58966523832E+03  0.00000000000E+00 0.  1.
          2   -1    0    0  501    0  0.00000000000E+00 -0.00000000000E+00 -0.15746663888E+04  0.15746663888E+04  0.00000000000E+00 0. -1.
         23    2    1    2    0    0 -0.56661112095E+03 -0.65112793243E+02 -0.93875729086E+03  0.11024816544E+04  0.94407144500E+02 0.  0.
        254    2    1    2    0    0  0.56661112095E+03  0.65112793243E+02 -0.46243859653E+02  0.10618499728E+04  0.89448254978E+03 0.  0.
        -24    2    4    4    0    0  0.71640987654E+03 -0.24914529952E+02  0.20075279057E+03  0.74872399545E+03  0.80137965085E+02 0.  0.
         24    2    4    4    0    0 -0.14979875559E+03  0.90027323194E+02 -0.24699665022E+03  0.31312597730E+03  0.80597433841E+02 0.  0.
         13    1    3    3    0    0 -0.49854332150E+03 -0.74470305969E+02 -0.86869436799E+03  0.10043511213E+04  0.00000000000E+00 0. -1.
        -13    1    3    3    0    0 -0.68067799447E+02  0.93575127267E+01 -0.70062922870E+02  0.98130533103E+02  0.00000000000E+00 0.  1.
          4    1    6    6  502    0 -0.63999390864E+02  0.26632783952E+01 -0.12400723067E+03  0.13957366636E+03  0.00000000000E+00 0. -1.
          3    1    5    5  503    0 -0.18521451355E+01 -0.13722756102E+01  0.21170773936E+01  0.31297921087E+01  0.00000000000E+00 0. -1.
         -4    1    5    5    0  503  0.71826202167E+03 -0.23542254341E+02  0.19863571317E+03  0.74559420335E+03  0.00000000000E+00 0.  1.
         -3    1    6    6    0  502 -0.85799364726E+02  0.87364044799E+02 -0.12298941955E+03  0.17355231094E+03  0.00000000000E+00 0.  1.
<mgrwt>
<rscale>  0 0.19272011E+04</rscale>
<asrwt>0</asrwt>
<pdfrwt beam="1">  1        2 0.24225636E+00 0.19272011E+04</pdfrwt>
<pdfrwt beam="2">  1       -2 0.90717730E-01 0.19272011E+04</pdfrwt>
<totfact> 0.11173175E+01</totfact>
</mgrwt>
</event>
<event>
12    1  0.1496989E-007  0.1655385E+04  0.7818608E-02  0.8787227E-01
          1   -1    0    0  501    0  0.00000000000E+00  0.00000000000E+00  0.51162991934E+03  0.51162991934E+03  0.00000000000E+00 0. -1.
         -1   -1    0    0    0  501 -0.00000000000E+00 -0.00000000000E+00 -0.13390045835E+04  0.13390045835E+04  0.00000000000E+00 0.  1.
         23    2    1    2    0    0  0.49737845801E+03  0.36248889704E+02 -0.58967972838E+03  0.77763242504E+03  0.91053247685E+02 0.  0.
        254    2    1    2    0    0 -0.49737845801E+03 -0.36248889704E+02 -0.23769493574E+03  0.10730020778E+04  0.91985611043E+03 0.  0.
        -24    2    4    4    0    0 -0.37428572140E+03  0.38147051965E+03 -0.31222365122E+03  0.62402744809E+03  0.79480116884E+02 0.  0.
         24    2    4    4    0    0 -0.12309273661E+03 -0.41771940935E+03  0.74528715482E+02  0.44897462967E+03  0.79889685812E+02 0.  0.
         13    1    3    3    0    0  0.86211969771E+01  0.12498622914E+02 -0.69525936696E+01  0.16699675769E+02  0.00000000000E+00 0. -1.
        -13    1    3    3    0    0  0.48875726103E+03  0.23750266790E+02 -0.58272713471E+03  0.76093274927E+03  0.00000000000E+00 0.  1.
          2    1    6    6  502    0 -0.76090912937E+02 -0.25758185591E+03  0.85106440489E+02  0.28174695338E+03  0.00000000000E+00 0. -1.
          1    1    5    5  503    0  0.20837231115E+01  0.10958335776E+02 -0.14835740821E+01  0.11252911491E+02  0.00000000000E+00 0. -1.
         -2    1    5    5    0  503 -0.37636944451E+03  0.37051218387E+03 -0.31074007714E+03  0.61277453660E+03  0.00000000000E+00 0.  1.
         -1    1    6    6    0  502 -0.47001823672E+02 -0.16013755344E+03 -0.10577725006E+02  0.16722767629E+03  0.00000000000E+00 0.  1.
<mgrwt>
<rscale>  0 0.16553849E+04</rscale>
<asrwt>0</asrwt>
<pdfrwt beam="1">  1        1 0.78712298E-01 0.16553849E+04</pdfrwt>
<pdfrwt beam="2">  1       -1 0.20600070E+00 0.16553849E+04</pdfrwt>
<totfact> 0.56118681E+00</totfact>
</mgrwt>
</event>
<event>
12    1  0.1496989E-007  0.1163664E+04  0.7818608E-02  0.9145270E-01
         -1   -1    0    0    0  501 -0.00000000000E+00  0.00000000000E+00  0.93897123655E+03  0.93897123655E+03  0.00000000000E+00 0.  1.
          1   -1    0    0  501    0  0.00000000000E+00 -0.00000000000E+00 -0.36053109256E+03  0.36053109256E+03  0.00000000000E+00 0. -1.
         23    2    1    2    0    0 -0.16504435041E+03  0.17660574739E+02  0.14521234641E+03  0.23857269659E+03  0.90987760178E+02 0.  0.
        254    2    1    2    0    0  0.16504435041E+03 -0.17660574739E+02  0.43322779758E+03  0.10609296325E+04  0.95411415829E+03 0.  0.
        -24    2    4    4    0    0  0.38758610093E+02  0.40022239733E+03  0.46065585325E+03  0.61657783750E+03  0.79273055871E+02 0.  0.
         24    2    4    4    0    0  0.12628574032E+03 -0.41788297207E+03 -0.27428055670E+02  0.44435179502E+03  0.78242909855E+02 0.  0.
         13    1    3    3    0    0 -0.35546217323E+02 -0.97864962453E+01  0.85977229089E+02  0.93548880252E+02  0.00000000000E+00 0.  1.
        -13    1    3    3    0    0 -0.12949813309E+03  0.27447070984E+02  0.59235117324E+02  0.14502381633E+03  0.00000000000E+00 0. -1.
          4    1    6    6  502    0  0.10490669230E+03 -0.35137950900E+03 -0.51844331985E+02  0.37035227580E+03  0.00000000000E+00 0. -1.
          3    1    5    5  503    0  0.47381812023E+02  0.38706029785E+03  0.42066402807E+03  0.57360172140E+03  0.00000000000E+00 0. -1.
         -4    1    5    5    0  503 -0.86232019304E+01  0.13162099483E+02  0.39991825175E+02  0.42976116102E+02  0.00000000000E+00 0.  1.
         -3    1    6    6    0  502  0.21379048019E+02 -0.66503463068E+02  0.24416276316E+02  0.73999519210E+02  0.00000000000E+00 0.  1.
<mgrwt>
<rscale>  0 0.11636637E+04</rscale>
<asrwt>0</asrwt>
<pdfrwt beam="1">  1        1 0.55466322E-01 0.11636637E+04</pdfrwt>
<pdfrwt beam="2">  1       -1 0.14445711E+00 0.11636637E+04</pdfrwt>
<totfact> 0.26374732E+01</totfact>
</mgrwt>
</event>
<event>
12    1  0.1496989E-007  0.1380647E+04  0.7818608E-02  0.8967948E-01
          2   -1    0    0  501    0  0.00000000000E+00  0.00000000000E+00  0.35508448332E+04  0.35508448332E+04  0.00000000000E+00 0.  1.
         -2   -1    0    0    0  501 -0.00000000000E+00 -0.00000000000E+00 -0.13420654168E+03  0.13420654168E+03  0.00000000000E+00 0. -1.
         23    2    1    2    0    0  0.21294448008E+03  0.10541615533E+03  0.16808740637E+03  0.30506150586E+03  0.91385057758E+02 0.  0.
        254    2    1    2    0    0 -0.21294448008E+03 -0.10541615533E+03  0.32485508851E+04  0.33799898690E+04  0.90265760059E+03 0.  0.
        -24    2    4    4    0    0 -0.36318001085E+03 -0.15688815947E+02  0.49358360634E+03  0.61814881259E+03  0.79607278803E+02 0.  0.
         24    2    4    4    0    0  0.15023553078E+03 -0.89727339379E+02  0.27549672788E+04  0.27618410564E+04  0.85437717229E+02 0.  0.
         13    1    3    3    0    0  0.22136481654E+03  0.95819793471E+02  0.16388902569E+03  0.29162206289E+03  0.00000000000E+00 0. -1.
        -13    1    3    3    0    0 -0.84203364667E+01  0.95963618550E+01  0.41983806787E+01  0.13439442972E+02  0.00000000000E+00 0.  1.
          2    1    6    6  502    0  0.81860293769E+02 -0.37958976181E+02  0.19969641052E+04  0.19990016581E+04  0.00000000000E+00 0. -1.
          1    1    5    5  503    0 -0.36136083237E+03 -0.51127031952E+01  0.47881528981E+03  0.59989321772E+03  0.00000000000E+00 0. -1.
         -2    1    5    5    0  503 -0.18191784800E+01 -0.10576112752E+02  0.14768316525E+02  0.18255594876E+02  0.00000000000E+00 0.  1.
         -1    1    6    6    0  502  0.68375237006E+02 -0.51768363198E+02  0.75800317362E+03  0.76283939836E+03  0.00000000000E+00 0.  1.
<mgrwt>
<rscale>  0 0.13806471E+04</rscale>
<asrwt>0</asrwt>
<pdfrwt beam="1">  1        2 0.54628375E+00 0.13806471E+04</pdfrwt>
<pdfrwt beam="2">  1       -2 0.20647163E-01 0.13806471E+04</pdfrwt>
<totfact> 0.15024512E+01</totfact>
</mgrwt>
</event>
<event>
12    1  0.1496989E-007  0.2614969E+04  0.7818608E-02  0.8363134E-01
          1   -1    0    0  501    0  0.00000000000E+00  0.00000000000E+00  0.82837267433E+03  0.82837267433E+03  0.00000000000E+00 0. -1.
         -1   -1    0    0    0  501 -0.00000000000E+00 -0.00000000000E+00 -0.20637042612E+04  0.20637042612E+04  0.00000000000E+00 0.  1.
         23    2    1    2    0    0 -0.14629553529E+03 -0.49015477594E+03 -0.16863868150E+04  0.17646013649E+04  0.90903241414E+02 0.  0.
        254    2    1    2    0    0  0.14629553529E+03  0.49015477594E+03  0.45105522812E+03  0.11274755706E+04  0.89782863368E+03 0.  0.
        -24    2    4    4    0    0  0.11471360281E+03  0.73812779452E+03  0.23433847251E+03  0.78696278875E+03  0.80025367648E+02 0.  0.
         24    2    4    4    0    0  0.31581932474E+02 -0.24797301858E+03  0.21671675561E+03  0.34051278184E+03  0.80590111231E+02 0.  0.
         11    1    3    3    0    0 -0.28303014889E+02 -0.78552621369E+02 -0.17784872777E+03  0.19647326776E+03  0.00000000000E+00 0. -1.
        -11    1    3    3    0    0 -0.11799252040E+03 -0.41160215457E+03 -0.15085380872E+04  0.15681280971E+04  0.00000000000E+00 0.  1.
          2    1    6    6  502    0 -0.38008644749E+01 -0.15741218570E+03  0.17294408032E+03  0.23388607846E+03  0.00000000000E+00 0. -1.
          3    1    5    5  503    0  0.62755845989E+01  0.11934661364E+01  0.17298503555E+01  0.66181346110E+01  0.00000000000E+00 0. -1.
         -4    1    5    5    0  503  0.10843801822E+03  0.73693432839E+03  0.23260862215E+03  0.78034465414E+03  0.00000000000E+00 0.  1.
         -1    1    6    6    0  502  0.35382796949E+02 -0.90560832881E+02  0.43772675297E+02  0.10662670338E+03  0.00000000000E+00 0.  1.
<mgrwt>
<rscale>  0 0.26149694E+04</rscale>
<asrwt>0</asrwt>
<pdfrwt beam="1">  1        1 0.12744195E+00 0.26149694E+04</pdfrwt>
<pdfrwt beam="2">  1       -1 0.31749296E+00 0.26149694E+04</pdfrwt>
<totfact> 0.46712057E-01</totfact>
</mgrwt>
</event>
<event>
12    1  0.1496989E-007  0.1348627E+04  0.7818608E-02  0.8991868E-01
          1   -1    0    0  501    0  0.00000000000E+00  0.00000000000E+00  0.12493005075E+04  0.12493005075E+04  0.00000000000E+00 0. -1.
         -1   -1    0    0    0  501 -0.00000000000E+00 -0.00000000000E+00 -0.36396273919E+03  0.36396273919E+03  0.00000000000E+00 0.  1.
         23    2    1    2    0    0  0.16540799517E+03 -0.32293809693E+03  0.19884996752E+03  0.42535757599E+03  0.98686060584E+02 0.  0.
        254    2    1    2    0    0 -0.16540799517E+03  0.32293809693E+03  0.68648780081E+03  0.11879056707E+04  0.89900253757E+03 0.  0.
        -24    2    4    4    0    0 -0.24997329513E+03 -0.99380484429E+02 -0.92361257721E+02  0.29484755893E+03  0.77726135336E+02 0.  0.
         24    2    4    4    0    0  0.84565299962E+02  0.42231858136E+03  0.77884905853E+03  0.89305811179E+03  0.73774392184E+02 0.  0.
         13    1    3    3    0    0  0.12803848551E+03 -0.23641859781E+03  0.95085666933E+02  0.28518220705E+03  0.00000000000E+00 0.  1.
        -13    1    3    3    0    0  0.37369509663E+02 -0.86519499114E+02  0.10376430059E+03  0.14017536894E+03  0.00000000000E+00 0. -1.
          2    1    6    6  502    0  0.63990218961E+02  0.30570505928E+03  0.49244856145E+03  0.58314313600E+03  0.00000000000E+00 0. -1.
          1    1    5    5  503    0 -0.21659407610E+03 -0.10201252853E+03 -0.56914089402E+02  0.24608690203E+03  0.00000000000E+00 0. -1.
         -2    1    5    5    0  503 -0.33379219029E+02  0.26320440994E+01 -0.35447168319E+02  0.48760656896E+02  0.00000000000E+00 0.  1.
         -1    1    6    6    0  502  0.20575081001E+02  0.11661352208E+03  0.28640049708E+03  0.30991497578E+03  0.00000000000E+00 0.  1.
<mgrwt>
<rscale>  0 0.13486272E+04</rscale>
<asrwt>0</asrwt>
<pdfrwt beam="1">  1        1 0.19220008E+00 0.13486272E+04</pdfrwt>
<pdfrwt beam="2">  1       -1 0.55994268E-01 0.13486272E+04</pdfrwt>
<totfact> 0.31071400E+01</totfact>
</mgrwt>
</event>
<event>
12    1  0.1496989E-007  0.1152395E+04  0.7818608E-02  0.9155577E-01
          2   -1    0    0  501    0  0.00000000000E+00  0.00000000000E+00  0.24376179392E+04  0.24376179392E+04  0.00000000000E+00 0. -1.
         -2   -1    0    0    0  501 -0.00000000000E+00 -0.00000000000E+00 -0.13619993599E+03  0.13619993599E+03  0.00000000000E+00 0.  1.
         23    2    1    2    0    0 -0.19001095849E+03  0.49349381767E+02  0.60435918697E+03  0.64315557497E+03  0.99295220945E+02 0.  0.
        254    2    1    2    0    0  0.19001095849E+03 -0.49349381767E+02  0.16970588162E+04  0.19306623002E+04  0.89939355453E+03 0.  0.
        -24    2    4    4    0    0 -0.22519350050E+03 -0.20135634465E+03  0.12791604851E+04  0.13168492780E+04  0.81141753165E+02 0.  0.
         24    2    4    4    0    0  0.41520445899E+03  0.15200696288E+03  0.41789833114E+03  0.61381302224E+03  0.81403633647E+02 0.  0.
         11    1    3    3    0    0 -0.19276273864E+03  0.34957784431E+02  0.59327295998E+03  0.62478182203E+03  0.00000000000E+00 0. -1.
        -11    1    3    3    0    0  0.27517801498E+01  0.14391597336E+02  0.11086226996E+02  0.18373752934E+02  0.00000000000E+00 0.  1.
          2    1    6    6  502    0  0.21194828800E+03  0.57658348552E+02  0.15757509019E+03  0.27032660061E+03  0.00000000000E+00 0. -1.
          1    1    5    5  503    0 -0.94850318775E+02 -0.34778935459E+02  0.43881410952E+03  0.45029321562E+03  0.00000000000E+00 0. -1.
         -2    1    5    5    0  503 -0.13034318173E+03 -0.16657740919E+03  0.84034637557E+03  0.86655606236E+03  0.00000000000E+00 0.  1.
         -3    1    6    6    0  502  0.20325617099E+03  0.94348614330E+02  0.26032324095E+03  0.34348642164E+03  0.00000000000E+00 0.  1.
<mgrwt>
<rscale>  0 0.11523947E+04</rscale>
<asrwt>0</asrwt>
<pdfrwt beam="1">  1        2 0.37501811E+00 0.11523947E+04</pdfrwt>
<pdfrwt beam="2">  1       -2 0.20953838E-01 0.11523947E+04</pdfrwt>
<totfact> 0.74186501E+01</totfact>
</mgrwt>
</event>
<event>
12    1  0.1496989E-007  0.3354821E+04  0.7818608E-02  0.8149085E-01
          2   -1    0    0  501    0  0.00000000000E+00  0.00000000000E+00  0.26781503770E+04  0.26781503770E+04  0.00000000000E+00 0. -1.
         -2   -1    0    0    0  501 -0.00000000000E+00 -0.00000000000E+00 -0.10506150892E+04  0.10506150892E+04  0.00000000000E+00 0.  1.
         23    2    1    2    0    0  0.26115439625E+02 -0.31807772044E+03 -0.93710382169E+03  0.99532079301E+03  0.10317197264E+03 0.  0.
        254    2    1    2    0    0 -0.26115439625E+02  0.31807772044E+03  0.25646391095E+04  0.27334446732E+04  0.89021939239E+03 0.  0.
        -24    2    4    4    0    0 -0.40957218564E+02 -0.23857873717E+03  0.15742897452E+04  0.15947616725E+04  0.79241924408E+02 0.  0.
         24    2    4    4    0    0  0.14841778939E+02  0.55665645760E+03  0.99034936437E+03  0.11386830007E+04  0.75633474019E+02 0.  0.
         13    1    3    3    0    0 -0.15859088230E+02 -0.46849653065E+02 -0.69227942708E+02  0.85081776682E+02  0.00000000000E+00 0. -1.
        -13    1    3    3    0    0  0.41974527855E+02 -0.27122806737E+03 -0.86787587898E+03  0.91023901633E+03  0.00000000000E+00 0.  1.
          2    1    6    6  502    0  0.18956086622E+02  0.55218271963E+03  0.95919940195E+03  0.11069456092E+04  0.00000000000E+00 0. -1.
          3    1    5    5  503    0  0.72241585584E+01 -0.17165903255E+03  0.11065498486E+04  0.11198087244E+04  0.00000000000E+00 0. -1.
         -4    1    5    5    0  503 -0.48181377122E+02 -0.66919704617E+02  0.46773989661E+03  0.47495294803E+03  0.00000000000E+00 0.  1.
         -1    1    6    6    0  502 -0.41143076836E+01  0.44737379677E+01  0.31149962415E+02  0.31737391474E+02  0.00000000000E+00 0.  1.
<mgrwt>
<rscale>  0 0.33548205E+04</rscale>
<asrwt>0</asrwt>
<pdfrwt beam="1">  1        2 0.41202313E+00 0.33548205E+04</pdfrwt>
<pdfrwt beam="2">  1       -2 0.16163309E+00 0.33548205E+04</pdfrwt>
<totfact> 0.55723751E-01</totfact>
</mgrwt>
</event>
<event>
12    1  0.1496989E-007  0.1298880E+04  0.7818608E-02  0.9030454E-01
          2   -1    0    0  501    0  0.00000000000E+00  0.00000000000E+00  0.56735324604E+03  0.56735324604E+03  0.00000000000E+00 0. -1.
         -2   -1    0    0    0  501 -0.00000000000E+00 -0.00000000000E+00 -0.74340290838E+03  0.74340290838E+03  0.00000000000E+00 0.  1.
         23    2    1    2    0    0 -0.23395557552E+02  0.85290306979E+02 -0.36917664193E+03  0.39060926198E+03  0.91991380113E+02 0.  0.
        254    2    1    2    0    0  0.23395557552E+02 -0.85290306979E+02  0.19312697959E+03  0.92014689245E+03  0.89529351883E+03 0.  0.
        -24    2    4    4    0    0 -0.46176589832E+02 -0.36675203268E+03  0.40353511168E+03  0.55301609331E+03  0.79667321851E+02 0.  0.
         24    2    4    4    0    0  0.69572147384E+02  0.28146172570E+03 -0.21040813209E+03  0.36713079914E+03  0.80327174113E+02 0.  0.
         11    1    3    3    0    0 -0.29364057419E+02  0.35954445246E+02 -0.30944576066E+03  0.31290837124E+03  0.00000000000E+00 0.  1.
        -11    1    3    3    0    0  0.59684998670E+01  0.49335861733E+02 -0.59730881268E+02  0.77700890732E+02  0.00000000000E+00 0. -1.
          2    1    6    6  502    0  0.40154903546E+02  0.58754295840E+02 -0.81235290055E+02  0.10799840697E+03  0.00000000000E+00 0. -1.
          3    1    5    5  503    0 -0.60130071795E+01 -0.29356355658E+03  0.29667278356E+03  0.41740922188E+03  0.00000000000E+00 0. -1.
         -4    1    5    5    0  503 -0.40163582652E+02 -0.73188476098E+02  0.10686232812E+03  0.13560687142E+03  0.00000000000E+00 0.  1.
         -1    1    6    6    0  502  0.29417243838E+02  0.22270742986E+03 -0.12917284204E+03  0.25913239217E+03  0.00000000000E+00 0.  1.
<mgrwt>
<rscale>  0 0.12988796E+04</rscale>
<asrwt>0</asrwt>
<pdfrwt beam="1">  1        2 0.87285115E-01 0.12988796E+04</pdfrwt>
<pdfrwt beam="2">  1       -2 0.11436968E+00 0.12988796E+04</pdfrwt>
<totfact> 0.31075412E+01</totfact>
</mgrwt>
</event>
<event>
12    1  0.1496989E-007  0.1698799E+04  0.7818608E-02  0.8762049E-01
          1   -1    0    0  501    0  0.00000000000E+00  0.00000000000E+00  0.70564135968E+03  0.70564135968E+03  0.00000000000E+00 0. -1.
         -1   -1    0    0    0  501 -0.00000000000E+00 -0.00000000000E+00 -0.10224455470E+04  0.10224455470E+04  0.00000000000E+00 0.  1.
         23    2    1    2    0    0  0.63911191893E+02 -0.47587929214E+03 -0.48909129673E+03  0.69159969792E+03  0.92488401890E+02 0.  0.
        254    2    1    2    0    0 -0.63911191893E+02  0.47587929214E+03  0.17228710940E+03  0.10364872088E+04  0.90226223725E+03 0.  0.
        -24    2    4    4    0    0 -0.13941440562E+02  0.32715842405E+03 -0.34919029919E+03  0.48527790987E+03  0.79585090118E+02 0.  0.
         24    2    4    4    0    0 -0.49969751331E+02  0.14872086809E+03  0.52147740859E+03  0.55120929891E+03  0.85311962134E+02 0.  0.
         13    1    3    3    0    0  0.80007810015E+02 -0.45601384735E+03 -0.45662264452E+03  0.65027234150E+03  0.00000000000E+00 0.  1.
        -13    1    3    3    0    0 -0.16096618122E+02 -0.19865444796E+02 -0.32468652212E+02  0.41327356416E+02  0.00000000000E+00 0. -1.
          2    1    6    6  502    0 -0.22816732095E+02  0.25841319408E+01  0.13865784455E+03  0.14054635839E+03  0.00000000000E+00 0. -1.
          1    1    5    5  503    0  0.26947508013E+02  0.14806263271E+03 -0.12653200754E+03  0.19661907417E+03  0.00000000000E+00 0. -1.
         -2    1    5    5    0  503 -0.40888948575E+02  0.17909579134E+03 -0.22265829165E+03  0.28865883570E+03  0.00000000000E+00 0.  1.
         -1    1    6    6    0  502 -0.27153019236E+02  0.14613673615E+03  0.38281956404E+03  0.41066294053E+03  0.00000000000E+00 0.  1.
<mgrwt>
<rscale>  0 0.16987994E+04</rscale>
<asrwt>0</asrwt>
<pdfrwt beam="1">  1        1 0.10856021E+00 0.16987994E+04</pdfrwt>
<pdfrwt beam="2">  1       -1 0.15729931E+00 0.16987994E+04</pdfrwt>
<totfact> 0.78483639E+00</totfact>
</mgrwt>
</event>
<event>
12    1  0.1496989E-007  0.1717646E+04  0.7818608E-02  0.8751363E-01
          2   -1    0    0  501    0  0.00000000000E+00  0.00000000000E+00  0.24576297060E+04  0.24576297060E+04  0.00000000000E+00 0. -1.
         -2   -1    0    0    0  501 -0.00000000000E+00 -0.00000000000E+00 -0.30011734544E+03  0.30011734544E+03  0.00000000000E+00 0.  1.
         23    2    1    2    0    0 -0.14892483228E+03 -0.96968698580E+02 -0.18934821004E+03  0.27516392815E+03  0.90999497460E+02 0.  0.
        254    2    1    2    0    0  0.14892483228E+03  0.96968698580E+02  0.23468605706E+04  0.24825831233E+04  0.78986257797E+03 0.  0.
        -24    2    4    4    0    0  0.30526745009E+02  0.24972345245E+03  0.21491443864E+03  0.34047239672E+03  0.80246820075E+02 0.  0.
         24    2    4    4    0    0  0.11839808727E+03 -0.15275475387E+03  0.21319461320E+04  0.21421107266E+04  0.78050838662E+02 0.  0.
         13    1    3    3    0    0 -0.14263414588E+03 -0.89492127039E+02 -0.19950768433E+03  0.26106829850E+03  0.00000000000E+00 0.  1.
        -13    1    3    3    0    0 -0.62906863985E+01 -0.74765715410E+01  0.10159474295E+02  0.14095629653E+02  0.00000000000E+00 0. -1.
          2    1    6    6  502    0  0.18297266184E+02 -0.86009178872E+02  0.94519077938E+03  0.94927234144E+03  0.00000000000E+00 0. -1.
          3    1    5    5  503    0  0.53981880101E+02  0.18451858505E+03  0.17778797202E+03  0.26185819560E+03  0.00000000000E+00 0. -1.
         -4    1    5    5    0  503 -0.23455135092E+02  0.65204867395E+02  0.37126466612E+02  0.78614201117E+02  0.00000000000E+00 0.  1.
         -1    1    6    6    0  502  0.10010082109E+03 -0.66745574995E+02  0.11867553526E+04  0.11928383852E+04  0.00000000000E+00 0.  1.
<mgrwt>
<rscale>  0 0.17176464E+04</rscale>
<asrwt>0</asrwt>
<pdfrwt beam="1">  1        2 0.37809686E+00 0.17176464E+04</pdfrwt>
<pdfrwt beam="2">  1       -2 0.46171901E-01 0.17176464E+04</pdfrwt>
<totfact> 0.15587758E+01</totfact>
</mgrwt>
</event>
<event>
12    1  0.1496989E-007  0.2289072E+04  0.7818608E-02  0.8482242E-01
          1   -1    0    0  501    0  0.00000000000E+00  0.00000000000E+00  0.96408881952E+03  0.96408881952E+03  0.00000000000E+00 0. -1.
         -1   -1    0    0    0  501 -0.00000000000E+00 -0.00000000000E+00 -0.13587578229E+04  0.13587578229E+04  0.00000000000E+00 0.  1.
         23    2    1    2    0    0  0.81041043545E+03  0.15451379183E+03  0.34642757882E+03  0.89918058401E+03  0.88735954119E+02 0.  0.
        254    2    1    2    0    0 -0.81041043545E+03 -0.15451379183E+03 -0.74109658222E+03  0.14236660584E+04  0.89272689890E+03 0.  0.
        -24    2    4    4    0    0 -0.70167612739E+03 -0.45104239611E+03 -0.33733635081E+03  0.90422378183E+03  0.89644872751E+02 0.  0.
         24    2    4    4    0    0 -0.10873430806E+03  0.29652860428E+03 -0.40376023141E+03  0.51944227661E+03  0.83938020892E+02 0.  0.
         13    1    3    3    0    0  0.74777767055E+03  0.13004222632E+03  0.33985882901E+03  0.83161676802E+03  0.00000000000E+00 0.  1.
        -13    1    3    3    0    0  0.62632764896E+02  0.24471565512E+02  0.65687498076E+01  0.67563815990E+02  0.00000000000E+00 0. -1.
          4    1    6    6  502    0 -0.57770638505E+02  0.75191478130E+02 -0.80602242319E+02  0.12445049829E+03  0.00000000000E+00 0. -1.
          1    1    5    5  503    0 -0.21534023651E+03 -0.18291665005E+03 -0.13527746110E+03  0.31325693896E+03  0.00000000000E+00 0. -1.
         -2    1    5    5    0  503 -0.48633589088E+03 -0.26812574606E+03 -0.20205888971E+03  0.59096684286E+03  0.00000000000E+00 0.  1.
         -3    1    6    6    0  502 -0.50963669554E+02  0.22133712615E+03 -0.32315798909E+03  0.39499177832E+03  0.00000000000E+00 0.  1.
<mgrwt>
<rscale>  0 0.22890725E+04</rscale>
<asrwt>0</asrwt>
<pdfrwt beam="1">  1        1 0.14832136E+00 0.22890725E+04</pdfrwt>
<pdfrwt beam="2">  1       -1 0.20903967E+00 0.22890725E+04</pdfrwt>
<totfact> 0.19069285E+00</totfact>
</mgrwt>
</event>
<event>
12    1  0.1496989E-007  0.1183690E+04  0.7818608E-02  0.9127254E-01
         -1   -1    0    0    0  501 -0.00000000000E+00  0.00000000000E+00  0.39562163047E+03  0.39562163047E+03  0.00000000000E+00 0.  1.
          1   -1    0    0  501    0  0.00000000000E+00 -0.00000000000E+00 -0.88539288145E+03  0.88539288145E+03  0.00000000000E+00 0. -1.
         23    2    1    2    0    0 -0.18175925540E+02 -0.20817684793E+03 -0.40886409441E+01  0.22883374258E+03  0.93167593469E+02 0.  0.
        254    2    1    2    0    0  0.18175925540E+02  0.20817684793E+03 -0.48568261003E+03  0.10521807693E+04  0.90968610488E+03 0.  0.
        -24    2    4    4    0    0  0.10550091791E+03  0.40436684144E+03 -0.64482240623E+03  0.77274293789E+03  0.81809084750E+02 0.  0.
         24    2    4    4    0    0 -0.87324992368E+02 -0.19618999350E+03  0.15913979620E+03  0.27943783146E+03  0.81509871005E+02 0.  0.
         11    1    3    3    0    0  0.12263184265E+02 -0.18743577613E+03  0.12883428891E+02  0.18827782291E+03  0.00000000000E+00 0.  1.
        -11    1    3    3    0    0 -0.30439109805E+02 -0.20741071805E+02 -0.16972069835E+02  0.40555919664E+02  0.00000000000E+00 0. -1.
          2    1    6    6  502    0 -0.68188800179E+02 -0.12214275056E+03  0.14533916936E+03  0.20172267631E+03  0.00000000000E+00 0. -1.
          3    1    5    5  503    0  0.11678304115E+03  0.39159195306E+03 -0.62290477352E+03  0.74497845155E+03  0.00000000000E+00 0. -1.
         -4    1    5    5    0  503 -0.11282123245E+02  0.12774888377E+02 -0.21917632706E+02  0.27764486334E+02  0.00000000000E+00 0.  1.
         -1    1    6    6    0  502 -0.19136192189E+02 -0.74047242944E+02  0.13800626835E+02  0.77715155151E+02  0.00000000000E+00 0.  1.
<mgrwt>
<rscale>  0 0.11836901E+04</rscale>
<asrwt>0</asrwt>
<pdfrwt beam="1">  1        1 0.13621429E+00 0.11836901E+04</pdfrwt>
<pdfrwt beam="2">  1       -1 0.60864866E-01 0.11836901E+04</pdfrwt>
<totfact> 0.50751483E+01</totfact>
</mgrwt>
</event>
<event>
12    1  0.1496989E-007  0.1543692E+04  0.7818608E-02  0.8855907E-01
          1   -1    0    0  501    0  0.00000000000E+00  0.00000000000E+00  0.50309863022E+03  0.50309863022E+03  0.00000000000E+00 0. -1.
         -1   -1    0    0    0  501 -0.00000000000E+00 -0.00000000000E+00 -0.11841545027E+04  0.11841545027E+04  0.00000000000E+00 0.  1.
         23    2    1    2    0    0 -0.18227106634E+03  0.46731517225E+03 -0.14595371261E+03  0.53022600789E+03  0.90724425507E+02 0.  0.
        254    2    1    2    0    0  0.18227106634E+03 -0.46731517225E+03 -0.53510215988E+03  0.11570271250E+04  0.89485822046E+03 0.  0.
        -24    2    4    4    0    0  0.31716853220E+03 -0.59311148701E+03 -0.10981113633E+03  0.68623319019E+03  0.80500880857E+02 0.  0.
         24    2    4    4    0    0 -0.13489746586E+03  0.12579631476E+03 -0.42529102354E+03  0.47079393484E+03  0.82173202884E+02 0.  0.
         11    1    3    3    0    0 -0.18786978768E+03  0.46641313798E+03 -0.14806458416E+03  0.52417496458E+03  0.00000000000E+00 0. -1.
        -11    1    3    3    0    0  0.55987213428E+01  0.90203426679E+00  0.21108715544E+01  0.60510433160E+01  0.00000000000E+00 0.  1.
          4    1    6    6  502    0 -0.54497448183E+02  0.10110947683E+03 -0.28425517111E+03  0.30658457310E+03  0.00000000000E+00 0. -1.
          1    1    5    5  503    0  0.17918428606E+03 -0.41485985720E+03 -0.77904900311E+02  0.45856829696E+03  0.00000000000E+00 0. -1.
         -2    1    5    5    0  503  0.13798424614E+03 -0.17825162981E+03 -0.31906236024E+02  0.22766489323E+03  0.00000000000E+00 0.  1.
         -3    1    6    6    0  502 -0.80400017678E+02  0.24686837930E+02 -0.14103585243E+03  0.16420936173E+03  0.00000000000E+00 0.  1.
<mgrwt>
<rscale>  0 0.15436923E+04</rscale>
<asrwt>0</asrwt>
<pdfrwt beam="1">  1        1 0.77399789E-01 0.15436923E+04</pdfrwt>
<pdfrwt beam="2">  1       -1 0.18217762E+00 0.15436923E+04</pdfrwt>
<totfact> 0.85029048E+00</totfact>
</mgrwt>
</event>
<event>
12    1  0.1496989E-007  0.1572113E+04  0.7818608E-02  0.8837865E-01
          2   -1    0    0  501    0  0.00000000000E+00  0.00000000000E+00  0.10291531386E+04  0.10291531386E+04  0.00000000000E+00 0. -1.
         -2   -1    0    0    0  501 -0.00000000000E+00 -0.00000000000E+00 -0.60038191924E+03  0.60038191924E+03  0.00000000000E+00 0.  1.
         23    2    1    2    0    0 -0.45005620236E+03  0.22900168600E+03  0.11256345803E+03  0.52520179428E+03  0.90410370840E+02 0.  0.
        254    2    1    2    0    0  0.45005620236E+03 -0.22900168600E+03  0.31620776137E+03  0.11043332636E+04  0.92982377430E+03 0.  0.
        -24    2    4    4    0    0  0.25024738957E+03  0.18236920485E+03  0.50996619879E+03  0.60077909982E+03  0.70623792049E+02 0.  0.
         24    2    4    4    0    0  0.19980881279E+03 -0.41137089085E+03 -0.19375843742E+03  0.50355416378E+03  0.82914970181E+02 0.  0.
         13    1    3    3    0    0 -0.35542998997E+03  0.19329827479E+03  0.53588980424E+02  0.40812556846E+03  0.00000000000E+00 0.  1.
        -13    1    3    3    0    0 -0.94626212386E+02  0.35703411215E+02  0.58974477605E+02  0.11707622582E+03  0.00000000000E+00 0. -1.
          4    1    6    6  502    0  0.10685720289E+03 -0.13615864329E+03 -0.54860418342E+02  0.18156900466E+03  0.00000000000E+00 0. -1.
          1    1    5    5  503    0 -0.31585520638E+01  0.83774605244E+01  0.25476667287E+02  0.27004052881E+02  0.00000000000E+00 0. -1.
         -2    1    5    5    0  503  0.25340594164E+03  0.17399174432E+03  0.48448953151E+03  0.57377504694E+03  0.00000000000E+00 0.  1.
         -3    1    6    6    0  502  0.92951609900E+02 -0.27521224756E+03 -0.13889801908E+03  0.32198515912E+03  0.00000000000E+00 0.  1.
<mgrwt>
<rscale>  0 0.15721131E+04</rscale>
<asrwt>0</asrwt>
<pdfrwt beam="1">  1        2 0.15833125E+00 0.15721131E+04</pdfrwt>
<pdfrwt beam="2">  1       -2 0.92366449E-01 0.15721131E+04</pdfrwt>
<totfact> 0.23080596E+01</totfact>
</mgrwt>
</event>
<event>
12    1  0.1496989E-007  0.1959612E+04  0.7818608E-02  0.8625740E-01
          2   -1    0    0  501    0  0.00000000000E+00  0.00000000000E+00  0.23212599942E+04  0.23212599942E+04  0.00000000000E+00 0.  1.
         -2   -1    0    0    0  501 -0.00000000000E+00 -0.00000000000E+00 -0.41357705374E+03  0.41357705374E+03  0.00000000000E+00 0. -1.
         23    2    1    2    0    0  0.41869254139E+03 -0.30682471879E+03  0.15357113181E+04  0.16236430659E+04  0.91447802489E+02 0.  0.
        254    2    1    2    0    0 -0.41869254139E+03  0.30682471879E+03  0.37197162235E+03  0.11111939820E+04  0.90936479238E+03 0.  0.
        -24    2    4    4    0    0 -0.16167983783E+03  0.14062305828E+03 -0.29495511710E+03  0.37324885307E+03  0.80006066857E+02 0.  0.
         24    2    4    4    0    0 -0.25701270356E+03  0.16620166051E+03  0.66692673946E+03  0.73794512897E+03  0.78059053422E+02 0.  0.
         13    1    3    3    0    0  0.36258599439E+03 -0.29129464327E+03  0.14178838460E+04  0.14922184067E+04  0.00000000000E+00 0.  1.
        -13    1    3    3    0    0  0.56106546999E+02 -0.15530075518E+02  0.11782747207E+03  0.13142465917E+03  0.00000000000E+00 0. -1.
          4    1    6    6  502    0 -0.25431009955E+03  0.15109326377E+03  0.65433501918E+03  0.71809269486E+03  0.00000000000E+00 0. -1.
          1    1    5    5  503    0 -0.13791731256E+03  0.14430038124E+03 -0.23311263923E+03  0.30689621649E+03  0.00000000000E+00 0. -1.
         -2    1    5    5    0  503 -0.23762525267E+02 -0.36773229600E+01 -0.61842477874E+02  0.66352636577E+02  0.00000000000E+00 0.  1.
         -3    1    6    6    0  502 -0.27026040147E+01  0.15108396741E+02  0.12591720276E+02  0.19852434109E+02  0.00000000000E+00 0.  1.
<mgrwt>
<rscale>  0 0.19596121E+04</rscale>
<asrwt>0</asrwt>
<pdfrwt beam="1">  1        2 0.35711692E+00 0.19596121E+04</pdfrwt>
<pdfrwt beam="2">  1       -2 0.63627240E-01 0.19596121E+04</pdfrwt>
<totfact> 0.93955718E+00</totfact>
</mgrwt>
</event>
<event>
12    1  0.1496989E-007  0.3553097E+04  0.7818608E-02  0.8101321E-01
         -2   -1    0    0    0  501 -0.00000000000E+00  0.00000000000E+00  0.67161828934E+03  0.67161828934E+03  0.00000000000E+00 0.  1.
          2   -1    0    0  501    0  0.00000000000E+00 -0.00000000000E+00 -0.46992819900E+04  0.46992819900E+04  0.00000000000E+00 0. -1.
         23    2    1    2    0    0 -0.45430722389E+03 -0.57153533354E+03 -0.41253292285E+04  0.41904058858E+04  0.90069711316E+02 0.  0.
        254    2    1    2    0    0  0.45430722389E+03  0.57153533354E+03  0.97665527827E+02  0.11804943936E+04  0.92248618784E+03 0.  0.
        -24    2    4    4    0    0  0.28645466751E+03 -0.13395342920E+03  0.27846015252E+03  0.42874441871E+03  0.79258578729E+02 0.  0.
         24    2    4    4    0    0  0.16785255638E+03  0.70548876274E+03 -0.18079462469E+03  0.75174997486E+03  0.80947225661E+02 0.  0.
         13    1    3    3    0    0 -0.32294570365E+03 -0.41491401762E+03 -0.31858029548E+04  0.32288988891E+04  0.00000000000E+00 0. -1.
        -13    1    3    3    0    0 -0.13136152024E+03 -0.15662131592E+03 -0.93952627370E+03  0.96150699663E+03  0.00000000000E+00 0.  1.
          2    1    6    6  502    0  0.14093237211E+03  0.62179831022E+03 -0.18459369476E+03  0.66375440055E+03  0.00000000000E+00 0. -1.
          1    1    5    5  503    0  0.23358080194E+03 -0.12992285768E+03  0.19905429952E+03  0.33326048991E+03  0.00000000000E+00 0. -1.
         -2    1    5    5    0  503  0.52873865572E+02 -0.40305715174E+01  0.79405853001E+02  0.95483928795E+02  0.00000000000E+00 0.  1.
         -1    1    6    6    0  502  0.26920184273E+02  0.83690452525E+02  0.37990700728E+01  0.87995574313E+02  0.00000000000E+00 0.  1.
<mgrwt>
<rscale>  0 0.35530965E+04</rscale>
<asrwt>0</asrwt>
<pdfrwt beam="1">  1        2 0.72296644E+00 0.35530965E+04</pdfrwt>
<pdfrwt beam="2">  1       -2 0.10332589E+00 0.35530965E+04</pdfrwt>
<totfact> 0.47756162E-02</totfact>
</mgrwt>
</event>
<event>
12    1  0.1496989E-007  0.2441955E+04  0.7818608E-02  0.8423961E-01
         -2   -1    0    0    0  501 -0.00000000000E+00  0.00000000000E+00  0.14106257071E+04  0.14106257071E+04  0.00000000000E+00 0.  1.
          2   -1    0    0  501    0  0.00000000000E+00 -0.00000000000E+00 -0.10568260717E+04  0.10568260717E+04  0.00000000000E+00 0. -1.
         23    2    1    2    0    0 -0.33376321015E+03 -0.12766484864E+03 -0.84894000943E+03  0.92562093107E+03  0.91535645526E+02 0.  0.
        254    2    1    2    0    0  0.33376321015E+03  0.12766484864E+03  0.12027396448E+04  0.15418308477E+04  0.89608231533E+03 0.  0.
        -24    2    4    4    0    0  0.49580992321E+03  0.30068215080E+02  0.12357271987E+04  0.13341831251E+04  0.79317867932E+02 0.  0.
         24    2    4    4    0    0 -0.16204671307E+03  0.97596633558E+02 -0.32987553958E+02  0.20764772259E+03  0.79026311330E+02 0.  0.
         11    1    3    3    0    0 -0.22427452964E+03 -0.11752066869E+03 -0.51188507931E+03  0.57108362490E+03  0.00000000000E+00 0.  1.
        -11    1    3    3    0    0 -0.10948868051E+03 -0.10144179949E+02 -0.33705493012E+03  0.35453730617E+03  0.00000000000E+00 0. -1.
          4    1    6    6  502    0 -0.32672820477E+02  0.53237562069E+02  0.12129502034E+02  0.63630778972E+02  0.00000000000E+00 0. -1.
          3    1    5    5  503    0  0.36705060546E+03  0.56826717845E+02  0.90205543610E+03  0.97553033403E+03  0.00000000000E+00 0. -1.
         -4    1    5    5    0  503  0.12875931776E+03 -0.26758502766E+02  0.33367176265E+03  0.35865279111E+03  0.00000000000E+00 0.  1.
         -3    1    6    6    0  502 -0.12937389259E+03  0.44359071489E+02 -0.45117055992E+02  0.14401694362E+03  0.00000000000E+00 0.  1.
<mgrwt>
<rscale>  0 0.24419550E+04</rscale>
<asrwt>0</asrwt>
<pdfrwt beam="1">  1        2 0.16258863E+00 0.24419550E+04</pdfrwt>
<pdfrwt beam="2">  1       -2 0.21701934E+00 0.24419550E+04</pdfrwt>
<totfact> 0.21440881E+00</totfact>
</mgrwt>
</event>
<event>
12    1  0.1496989E-007  0.1474063E+04  0.7818608E-02  0.8901886E-01
          2   -1    0    0  501    0  0.00000000000E+00  0.00000000000E+00  0.30178994393E+04  0.30178994393E+04  0.00000000000E+00 0. -1.
         -2   -1    0    0    0  501 -0.00000000000E+00 -0.00000000000E+00 -0.17999785007E+03  0.17999785007E+03  0.00000000000E+00 0.  1.
         23    2    1    2    0    0 -0.33174781352E+03 -0.30779205489E+03  0.81760696041E+03  0.93908621921E+03  0.92785907180E+02 0.  0.
        254    2    1    2    0    0  0.33174781352E+03  0.30779205489E+03  0.20202946288E+04  0.22588110702E+04  0.90324110991E+03 0.  0.
        -24    2    4    4    0    0  0.28609718390E+03  0.27360447645E+03  0.20959517868E+04  0.21345039424E+04  0.79888544428E+02 0.  0.
         24    2    4    4    0    0  0.45650629622E+02  0.34187578446E+02 -0.75657157958E+02  0.12430712775E+03  0.80470404208E+02 0.  0.
         11    1    3    3    0    0 -0.25450919667E+02 -0.33815574992E+01  0.83776131831E+02  0.87622054915E+02  0.00000000000E+00 0. -1.
        -11    1    3    3    0    0 -0.30629689385E+03 -0.30441049739E+03  0.73383082858E+03  0.85146416429E+03  0.00000000000E+00 0.  1.
          4    1    6    6  502    0  0.22344318056E+02 -0.95608049041E+01  0.92377060811E+01  0.26000245257E+02  0.00000000000E+00 0. -1.
          3    1    5    5  503    0 -0.16661724478E+01 -0.31719899253E+01  0.87168059022E+01  0.94244552017E+01  0.00000000000E+00 0. -1.
         -4    1    5    5    0  503  0.28776335635E+03  0.27677646637E+03  0.20872349809E+04  0.21250794872E+04  0.00000000000E+00 0.  1.
         -3    1    6    6    0  502  0.23306311566E+02  0.43748383351E+02 -0.84894864039E+02  0.98306882489E+02  0.00000000000E+00 0.  1.
<mgrwt>
<rscale>  0 0.14740630E+04</rscale>
<asrwt>0</asrwt>
<pdfrwt beam="1">  1        2 0.46429218E+00 0.14740630E+04</pdfrwt>
<pdfrwt beam="2">  1       -2 0.27691979E-01 0.14740630E+04</pdfrwt>
<totfact> 0.19697973E+01</totfact>
</mgrwt>
</event>
<event>
12    1  0.1496989E-007  0.3090888E+04  0.7818608E-02  0.8218243E-01
         -1   -1    0    0    0  501 -0.00000000000E+00  0.00000000000E+00  0.21929445203E+04  0.21929445203E+04  0.00000000000E+00 0.  1.
          1   -1    0    0  501    0  0.00000000000E+00 -0.00000000000E+00 -0.10891276351E+04  0.10891276351E+04  0.00000000000E+00 0. -1.
         23    2    1    2    0    0  0.13771426428E+04  0.15920831072E+03  0.22340742464E+03  0.14070310493E+04  0.89198382585E+02 0.  0.
        254    2    1    2    0    0 -0.13771426428E+04 -0.15920831072E+03  0.88040946055E+03  0.18750411061E+04  0.90486970697E+03 0.  0.
        -24    2    4    4    0    0 -0.14315284148E+04  0.18430339765E+02  0.67312429250E+03  0.15840643089E+04  0.80932946565E+02 0.  0.
         24    2    4    4    0    0  0.54385771960E+02 -0.17763865048E+03  0.20728516805E+03  0.29097679723E+03  0.84776490228E+02 0.  0.
         11    1    3    3    0    0  0.93301490430E+03  0.89524311597E+02  0.18891389225E+03  0.95614845746E+03  0.00000000000E+00 0.  1.
        -11    1    3    3    0    0  0.44412773853E+03  0.69683999118E+02  0.34493532386E+02  0.45088259185E+03  0.00000000000E+00 0. -1.
          2    1    6    6  502    0  0.25748472415E+02 -0.13432051690E+03  0.19402349552E+03  0.23738176406E+03  0.00000000000E+00 0. -1.
          3    1    5    5  503    0 -0.35725041301E+03 -0.21515568087E+02  0.14256542553E+03  0.38524755395E+03  0.00000000000E+00 0. -1.
         -2    1    5    5    0  503 -0.10742780018E+04  0.39945907852E+02  0.53055886697E+03  0.11988167550E+04  0.00000000000E+00 0.  1.
         -1    1    6    6    0  502  0.28637299545E+02 -0.43318133585E+02  0.13261672525E+02  0.53595033172E+02  0.00000000000E+00 0.  1.
<mgrwt>
<rscale>  0 0.30908876E+04</rscale>
<asrwt>0</asrwt>
<pdfrwt beam="1">  1        1 0.16755810E+00 0.30908876E+04</pdfrwt>
<pdfrwt beam="2">  1       -1 0.33737608E+00 0.30908876E+04</pdfrwt>
<totfact> 0.20538976E-01</totfact>
</mgrwt>
</event>
<event>
12    1  0.1496989E-007  0.2644642E+04  0.7818608E-02  0.8353193E-01
          2   -1    0    0  501    0  0.00000000000E+00  0.00000000000E+00  0.28634743463E+04  0.28634743463E+04  0.00000000000E+00 0. -1.
         -2   -1    0    0    0  501 -0.00000000000E+00 -0.00000000000E+00 -0.61063346254E+03  0.61063346254E+03  0.00000000000E+00 0.  1.
         23    2    1    2    0    0 -0.62634973660E+03 -0.75439134513E+03  0.15306622781E+03  0.99575722722E+03  0.81748952981E+02 0.  0.
        254    2    1    2    0    0  0.62634973660E+03  0.75439134513E+03  0.20997746559E+04  0.24783505816E+04  0.87849172192E+03 0.  0.
        -24    2    4    4    0    0  0.18740292396E+02  0.69383187985E+03  0.11884677552E+04  0.13784698783E+04  0.77263990076E+02 0.  0.
         24    2    4    4    0    0  0.60760944421E+03  0.60559465272E+02  0.91130690066E+03  0.10998807032E+04  0.80003803979E+02 0.  0.
         11    1    3    3    0    0 -0.62248160686E+03 -0.75095767026E+03  0.14493033195E+03  0.98611641023E+03  0.00000000000E+00 0.  1.
        -11    1    3    3    0    0 -0.38681297397E+01 -0.34336748612E+01  0.81358958534E+01  0.96408169816E+01  0.00000000000E+00 0. -1.
          4    1    6    6  502    0  0.38381940475E+03  0.49054770933E+02  0.64137616931E+03  0.74905747215E+03  0.00000000000E+00 0. -1.
          1    1    5    5  503    0 -0.22132690302E+02  0.29541321556E+03  0.45930908638E+03  0.54655618260E+03  0.00000000000E+00 0. -1.
         -2    1    5    5    0  503  0.40872982698E+02  0.39841866430E+03  0.72915866886E+03  0.83191369573E+03  0.00000000000E+00 0.  1.
         -3    1    6    6    0  502  0.22379003946E+03  0.11504694338E+02  0.26993073135E+03  0.35082323110E+03  0.00000000000E+00 0.  1.
<mgrwt>
<rscale>  0 0.26446423E+04</rscale>
<asrwt>0</asrwt>
<pdfrwt beam="1">  1        2 0.44053451E+00 0.26446423E+04</pdfrwt>
<pdfrwt beam="2">  1       -2 0.93943611E-01 0.26446423E+04</pdfrwt>
<totfact> 0.17832290E+00</totfact>
</mgrwt>
</event>
<event>
12    1  0.1970550E-007  0.1567958E+04  0.7818608E-02  0.8840478E-01
         -1   -1    0    0    0  501 -0.00000000000E+00  0.00000000000E+00  0.26654486346E+03  0.26654486346E+03  0.00000000000E+00 0.  1.
          1   -1    0    0  501    0  0.00000000000E+00 -0.00000000000E+00 -0.23058893514E+04  0.23058893514E+04  0.00000000000E+00 0. -1.
         23    2    1    2    0    0  0.47541240817E+03 -0.34724271246E+02 -0.10406679230E+04  0.11480550510E+04  0.88419122371E+02 0.  0.
        254    2    1    2    0    0 -0.47541240817E+03  0.34724271246E+02 -0.99867656493E+03  0.14243791639E+04  0.89681569364E+03 0.  0.
        -24    2    4    4    0    0  0.18815566090E+02  0.52446691627E+02  0.14555642542E+03  0.17525180613E+03  0.80136393605E+02 0.  0.
         24    2    4    4    0    0 -0.49422797426E+03 -0.17722420380E+02 -0.11442329904E+04  0.12491273578E+04  0.80465178719E+02 0.  0.
         11    1    3    3    0    0  0.41063352362E+03 -0.54675587345E-01 -0.85946327499E+03  0.95252139859E+03  0.00000000000E+00 0. -1.
        -11    1    3    3    0    0  0.64778884549E+02 -0.34669595659E+02 -0.18120464803E+03  0.19553365238E+03  0.00000000000E+00 0.  1.
          2    1    6    6  502    0 -0.50395022983E+02  0.99140996814E+01 -0.72975960650E+02  0.89238100308E+02  0.00000000000E+00 0. -1.
          3    1    5    5  503    0  0.33200012968E+02 -0.40542323615E+01  0.26450814386E+02  0.42641801590E+02  0.00000000000E+00 0. -1.
         -4    1    5    5    0  503 -0.14384446879E+02  0.56500923988E+02  0.11910561104E+03  0.13261000454E+03  0.00000000000E+00 0.  1.
         -1    1    6    6    0  502 -0.44383295128E+03 -0.27636520062E+02 -0.10712570297E+04  0.11598892575E+04  0.00000000000E+00 0.  1.
<mgrwt>
<rscale>  0 0.15679579E+04</rscale>
<asrwt>0</asrwt>
<pdfrwt beam="1">  1        1 0.35475220E+00 0.15679579E+04</pdfrwt>
<pdfrwt beam="2">  1       -1 0.41006903E-01 0.15679579E+04</pdfrwt>
<totfact> 0.10336811E+01</totfact>
</mgrwt>
</event>
<event>
12    1  0.1496989E-007  0.2943410E+04  0.7818608E-02  0.8260078E-01
          2   -1    0    0  501    0  0.00000000000E+00  0.00000000000E+00  0.22936642799E+04  0.22936642799E+04  0.00000000000E+00 0. -1.
         -2   -1    0    0    0  501 -0.00000000000E+00 -0.00000000000E+00 -0.94430387770E+03  0.94430387770E+03  0.00000000000E+00 0.  1.
         23    2    1    2    0    0  0.80136436357E+03 -0.10514211065E+04  0.43883187801E+03  0.13963144001E+04  0.97207511391E+02 0.  0.
        254    2    1    2    0    0 -0.80136436357E+03  0.10514211065E+04  0.91052852420E+03  0.18416537575E+04  0.90274868203E+03 0.  0.
        -24    2    4    4    0    0 -0.16519979849E+03  0.82038857939E+03  0.78208968998E+03  0.11481012893E+04  0.78382986705E+02 0.  0.
         24    2    4    4    0    0 -0.63616456508E+03  0.23103252711E+03  0.12843883422E+03  0.69355246829E+03  0.80231600281E+02 0.  0.
         11    1    3    3    0    0  0.82348390211E+01  0.89654223127E-01  0.48968230171E+01  0.95812048952E+01  0.00000000000E+00 0. -1.
        -11    1    3    3    0    0  0.79312952455E+03 -0.10515107607E+04  0.43393505499E+03  0.13867331952E+04  0.00000000000E+00 0.  1.
          4    1    6    6  502    0 -0.12811782518E+03  0.49385671794E+02  0.59420586777E+02  0.14961259252E+03  0.00000000000E+00 0. -1.
          3    1    5    5  503    0 -0.10144060697E+02  0.17378333426E+03  0.13522746631E+03  0.22043143351E+03  0.00000000000E+00 0. -1.
         -4    1    5    5    0  503 -0.15505573779E+03  0.64660524513E+03  0.64686222367E+03  0.92766985575E+03  0.00000000000E+00 0.  1.
         -3    1    6    6    0  502 -0.50804673990E+03  0.18164685531E+03  0.69018247440E+02  0.54393987577E+03  0.00000000000E+00 0.  1.
<mgrwt>
<rscale>  0 0.29434103E+04</rscale>
<asrwt>0</asrwt>
<pdfrwt beam="1">  1        2 0.35287143E+00 0.29434103E+04</pdfrwt>
<pdfrwt beam="2">  1       -2 0.14527752E+00 0.29434103E+04</pdfrwt>
<totfact> 0.12816369E+00</totfact>
</mgrwt>
</event>
<event>
12    1  0.1496989E-007  0.1400053E+04  0.7818608E-02  0.8953780E-01
          2   -1    0    0  501    0  0.00000000000E+00  0.00000000000E+00  0.30720400099E+03  0.30720400099E+03  0.00000000000E+00 0. -1.
         -2   -1    0    0    0  501 -0.00000000000E+00 -0.00000000000E+00 -0.15951531450E+04  0.15951531450E+04  0.00000000000E+00 0.  1.
         23    2    1    2    0    0 -0.12711146384E+03 -0.33036673834E+03 -0.12184983276E+03  0.38511443063E+03  0.90367233530E+02 0.  0.
        254    2    1    2    0    0  0.12711146384E+03  0.33036673834E+03 -0.11660993112E+04  0.15172427153E+04  0.90384641813E+03 0.  0.
        -24    2    4    4    0    0 -0.21799807653E+03 -0.79605106486E+02 -0.86109995200E+03  0.89537866881E+03  0.79684997800E+02 0.  0.
         24    2    4    4    0    0  0.34510954037E+03  0.40997184482E+03 -0.30499935922E+03  0.62186404653E+03  0.80701764765E+02 0.  0.
         11    1    3    3    0    0 -0.11994622741E+03 -0.29968729240E+03 -0.13637150401E+03  0.35042368328E+03  0.00000000000E+00 0.  1.
        -11    1    3    3    0    0 -0.71652364330E+01 -0.30679445934E+02  0.14521671246E+02  0.34690747350E+02  0.00000000000E+00 0. -1.
          4    1    6    6  502    0  0.13839004966E+03  0.21216260633E+03 -0.11347478784E+03  0.27756315469E+03  0.00000000000E+00 0. -1.
          3    1    5    5  503    0 -0.42430053405E+02 -0.26055993024E+02 -0.91267652649E+02  0.10396638218E+03  0.00000000000E+00 0. -1.
         -4    1    5    5    0  503 -0.17556802312E+03 -0.53549113462E+02 -0.76983229935E+03  0.79141228662E+03  0.00000000000E+00 0.  1.
         -3    1    6    6    0  502  0.20671949071E+03  0.19780923849E+03 -0.19152457138E+03  0.34430089183E+03  0.00000000000E+00 0.  1.
<mgrwt>
<rscale>  0 0.14000535E+04</rscale>
<asrwt>0</asrwt>
<pdfrwt beam="1">  1        2 0.47262153E-01 0.14000535E+04</pdfrwt>
<pdfrwt beam="2">  1       -2 0.24540818E+00 0.14000535E+04</pdfrwt>
<totfact> 0.71437334E+00</totfact>
</mgrwt>
</event>
<event>
12    1  0.1496989E-007  0.1366733E+04  0.7818608E-02  0.8978258E-01
         -2   -1    0    0    0  501 -0.00000000000E+00  0.00000000000E+00  0.27009485290E+03  0.27009485290E+03  0.00000000000E+00 0.  1.
          2   -1    0    0  501    0  0.00000000000E+00 -0.00000000000E+00 -0.17289832951E+04  0.17289832951E+04  0.00000000000E+00 0. -1.
         23    2    1    2    0    0 -0.28206510847E+03  0.16631086479E+03 -0.58739504996E+02  0.34466081320E+03  0.90115023967E+02 0.  0.
        254    2    1    2    0    0  0.28206510847E+03 -0.16631086479E+03 -0.14001489372E+04  0.16544173348E+04  0.81820513452E+03 0.  0.
        -24    2    4    4    0    0  0.20621673649E+03 -0.28300297604E+03 -0.14438149397E+04  0.14878347015E+04  0.80215285243E+02 0.  0.
         24    2    4    4    0    0  0.75848371977E+02  0.11669211125E+03  0.43666002589E+02  0.16658263322E+03  0.80455139981E+02 0.  0.
         13    1    3    3    0    0 -0.14412798984E+03  0.90603610263E+02  0.14983059628E+02  0.17089875284E+03  0.00000000000E+00 0.  1.
        -13    1    3    3    0    0 -0.13793711863E+03  0.75707254524E+02 -0.73722564623E+02  0.17376206035E+03  0.00000000000E+00 0. -1.
          2    1    6    6  502    0  0.47277993053E+01  0.61357144868E+02  0.45368635902E+02  0.76454983070E+02  0.00000000000E+00 0. -1.
          1    1    5    5  503    0  0.11458616770E+03 -0.21297522854E+03 -0.10492621211E+04  0.10767726950E+04  0.00000000000E+00 0. -1.
         -2    1    5    5    0  503  0.91630568796E+02 -0.70027747496E+02 -0.39455281861E+03  0.41106200656E+03  0.00000000000E+00 0.  1.
         -1    1    6    6    0  502  0.71120572672E+02  0.55334966385E+02 -0.17026333135E+01  0.90127650154E+02  0.00000000000E+00 0.  1.
<mgrwt>
<rscale>  0 0.13667326E+04</rscale>
<asrwt>0</asrwt>
<pdfrwt beam="1">  1        2 0.26599743E+00 0.13667326E+04</pdfrwt>
<pdfrwt beam="2">  1       -2 0.41553054E-01 0.13667326E+04</pdfrwt>
<totfact> 0.50583113E+01</totfact>
</mgrwt>
</event>
<event>
12    1  0.1496989E-007  0.1375591E+04  0.7818608E-02  0.8971679E-01
          2   -1    0    0  501    0  0.00000000000E+00  0.00000000000E+00  0.10483946189E+04  0.10483946189E+04  0.00000000000E+00 0. -1.
         -2   -1    0    0    0  501 -0.00000000000E+00 -0.00000000000E+00 -0.45122576898E+03  0.45122576898E+03  0.00000000000E+00 0.  1.
         23    2    1    2    0    0 -0.75389449765E+01 -0.37648190971E+03  0.24324184113E+03  0.45754962007E+03  0.91594746155E+02 0.  0.
        254    2    1    2    0    0  0.75389449765E+01  0.37648190971E+03  0.35392700881E+03  0.10420707678E+04  0.90490424552E+03 0.  0.
        -24    2    4    4    0    0 -0.23047320632E+03  0.56436831796E+03  0.67532213737E+02  0.61739569217E+03  0.70621127648E+02 0.  0.
         24    2    4    4    0    0  0.23801215130E+03 -0.18788640825E+03  0.28639479507E+03  0.42467507566E+03  0.79848949092E+02 0.  0.
         13    1    3    3    0    0  0.36816874485E+02 -0.24637266781E+03  0.17203507863E+03  0.30273923098E+03  0.00000000000E+00 0. -1.
        -13    1    3    3    0    0 -0.44355819461E+02 -0.13010924190E+03  0.71206762496E+02  0.15481038910E+03  0.00000000000E+00 0.  1.
          2    1    6    6  502    0  0.62669869154E+02 -0.70231240477E+02  0.13615293900E+03  0.16552209048E+03  0.00000000000E+00 0. -1.
          3    1    5    5  503    0 -0.43891638435E+02  0.16585333957E+03 -0.38876619156E+01  0.17160687657E+03  0.00000000000E+00 0. -1.
         -4    1    5    5    0  503 -0.18658156789E+03  0.39851497838E+03  0.71419875653E+02  0.44578881559E+03  0.00000000000E+00 0.  1.
         -1    1    6    6    0  502  0.17534228215E+03 -0.11765516777E+03  0.15024185607E+03  0.25915298518E+03  0.00000000000E+00 0.  1.
<mgrwt>
<rscale>  0 0.13755910E+04</rscale>
<asrwt>0</asrwt>
<pdfrwt beam="1">  1        2 0.16129148E+00 0.13755910E+04</pdfrwt>
<pdfrwt beam="2">  1       -2 0.69419349E-01 0.13755910E+04</pdfrwt>
<totfact> 0.43315083E+01</totfact>
</mgrwt>
</event>
<event>
12    1  0.1496989E-007  0.2557886E+04  0.7818608E-02  0.8382649E-01
          2   -1    0    0  501    0  0.00000000000E+00  0.00000000000E+00  0.11897323332E+04  0.11897323332E+04  0.00000000000E+00 0. -1.
         -2   -1    0    0    0  501 -0.00000000000E+00 -0.00000000000E+00 -0.13748427706E+04  0.13748427706E+04  0.00000000000E+00 0.  1.
         23    2    1    2    0    0 -0.60452202854E+03  0.47782672796E+03 -0.89850925828E+03  0.11871380195E+04  0.90622983849E+02 0.  0.
        254    2    1    2    0    0  0.60452202854E+03 -0.47782672796E+03  0.71339882089E+03  0.13774370842E+04  0.89142009090E+03 0.  0.
        -24    2    4    4    0    0  0.67572837502E+03 -0.68859182809E+02  0.20028422034E+03  0.71265599529E+03  0.80089792359E+02 0.  0.
         24    2    4    4    0    0 -0.71206346485E+02 -0.40896754515E+03  0.51311460055E+03  0.66478108895E+03  0.79514188437E+02 0.  0.
         13    1    3    3    0    0 -0.25724176171E+03  0.25113389858E+03 -0.37875931001E+03  0.52220702207E+03  0.00000000000E+00 0.  1.
        -13    1    3    3    0    0 -0.34728026683E+03  0.22669282938E+03 -0.51974994828E+03  0.66493099744E+03  0.00000000000E+00 0. -1.
          4    1    6    6  502    0 -0.67080305236E+02 -0.38203425445E+03  0.43895455150E+03  0.58577387890E+03  0.00000000000E+00 0. -1.
          1    1    5    5  503    0  0.56108838870E+03 -0.57957781421E+02  0.19689045885E+03  0.59744885735E+03  0.00000000000E+00 0. -1.
         -2    1    5    5    0  503  0.11463998632E+03 -0.10901401389E+02  0.33937614942E+01  0.11520713794E+03  0.00000000000E+00 0.  1.
         -3    1    6    6    0  502 -0.41260412492E+01 -0.26933290706E+02  0.74160049056E+02  0.79007210055E+02  0.00000000000E+00 0.  1.
<mgrwt>
<rscale>  0 0.25578858E+04</rscale>
<asrwt>0</asrwt>
<pdfrwt beam="1">  1        2 0.18303574E+00 0.25578858E+04</pdfrwt>
<pdfrwt beam="2">  1       -2 0.21151427E+00 0.25578858E+04</pdfrwt>
<totfact> 0.19092552E+00</totfact>
</mgrwt>
</event>
<event>
12    1  0.1496989E-007  0.1878387E+04  0.7818608E-02  0.8665690E-01
         -1   -1    0    0    0  501 -0.00000000000E+00  0.00000000000E+00  0.46110464664E+03  0.46110464664E+03  0.00000000000E+00 0.  1.
          1   -1    0    0  501    0  0.00000000000E+00 -0.00000000000E+00 -0.19129815639E+04  0.19129815639E+04  0.00000000000E+00 0. -1.
         23    2    1    2    0    0 -0.55296357736E+03 -0.45113283374E+03 -0.44544460861E+03  0.84623375197E+03  0.91657580530E+02 0.  0.
        254    2    1    2    0    0  0.55296357736E+03  0.45113283374E+03 -0.10064323086E+04  0.15278524585E+04  0.90118676846E+03 0.  0.
        -24    2    4    4    0    0  0.10320624604E+03 -0.22282009311E+03 -0.51751470168E+03  0.57825356361E+03  0.79091050416E+02 0.  0.
         24    2    4    4    0    0  0.44975733132E+03  0.67395292685E+03 -0.48891760693E+03  0.94959889492E+03  0.78761857365E+02 0.  0.
         11    1    3    3    0    0 -0.12790081730E+03 -0.11875257070E+03 -0.66023031655E+02  0.18660073104E+03  0.00000000000E+00 0.  1.
        -11    1    3    3    0    0 -0.42506276005E+03 -0.33238026304E+03 -0.37942157695E+03  0.65963302093E+03  0.00000000000E+00 0. -1.
          4    1    6    6  502    0  0.37764354183E+03  0.56521579331E+03 -0.44253539347E+03  0.81112336433E+03  0.00000000000E+00 0. -1.
          3    1    5    5  503    0  0.81177596583E+01 -0.25436743917E+02 -0.16395581779E+02  0.31332747484E+02  0.00000000000E+00 0. -1.
         -4    1    5    5    0  503  0.95088486378E+02 -0.19738334920E+03 -0.50111911990E+03  0.54692081612E+03  0.00000000000E+00 0.  1.
         -3    1    6    6    0  502  0.72113789492E+02  0.10873713354E+03 -0.46382213461E+02  0.13847553059E+03  0.00000000000E+00 0.  1.
<mgrwt>
<rscale>  0 0.18783873E+04</rscale>
<asrwt>0</asrwt>
<pdfrwt beam="1">  1        1 0.29430485E+00 0.18783873E+04</pdfrwt>
<pdfrwt beam="2">  1       -1 0.70939177E-01 0.18783873E+04</pdfrwt>
<totfact> 0.64236055E+00</totfact>
</mgrwt>
</event>
<event>
12    1  0.1496989E-007  0.2366699E+04  0.7818608E-02  0.8452077E-01
          2   -1    0    0  501    0  0.00000000000E+00  0.00000000000E+00  0.27127437444E+04  0.27127437444E+04  0.00000000000E+00 0. -1.
         -2   -1    0    0    0  501 -0.00000000000E+00 -0.00000000000E+00 -0.51619924741E+03  0.51619924741E+03  0.00000000000E+00 0.  1.
         23    2    1    2    0    0  0.22615069499E+03  0.56229308068E+03  0.20381233262E+04  0.21282852140E+04  0.91288629760E+02 0.  0.
        254    2    1    2    0    0 -0.22615069499E+03 -0.56229308068E+03  0.15842117079E+03  0.11006577778E+04  0.90500421605E+03 0.  0.
        -24    2    4    4    0    0 -0.38299962974E+03 -0.73543671331E+03  0.17998046039E+03  0.85275089024E+03  0.85060208200E+02 0.  0.
         24    2    4    4    0    0  0.15684893475E+03  0.17314363263E+03 -0.21559289604E+02  0.24790688756E+03  0.80079436055E+02 0.  0.
         13    1    3    3    0    0  0.86847229761E+02  0.20598258175E+03  0.60504775521E+03  0.64502252006E+03  0.00000000000E+00 0.  1.
        -13    1    3    3    0    0  0.13930346523E+03  0.35631049892E+03  0.14330755710E+04  0.14832626940E+04  0.00000000000E+00 0. -1.
          4    1    6    6  502    0  0.46750973973E+02  0.12417380363E+02  0.12902726740E+02  0.50063212640E+02  0.00000000000E+00 0. -1.
          1    1    5    5  503    0 -0.10342390786E+03 -0.14507323325E+03  0.64041848667E+02  0.18932539741E+03  0.00000000000E+00 0. -1.
         -2    1    5    5    0  503 -0.27957572188E+03 -0.59036348006E+03  0.11593861173E+03  0.66342549284E+03  0.00000000000E+00 0.  1.
         -3    1    6    6    0  502  0.11009796077E+03  0.16072625227E+03 -0.34462016344E+02  0.19784367492E+03  0.00000000000E+00 0.  1.
<mgrwt>
<rscale>  0 0.23666992E+04</rscale>
<asrwt>0</asrwt>
<pdfrwt beam="1">  1        2 0.41734518E+00 0.23666992E+04</pdfrwt>
<pdfrwt beam="2">  1       -2 0.79415271E-01 0.23666992E+04</pdfrwt>
<totfact> 0.33067966E+00</totfact>
</mgrwt>
</event>
<event>
12    1  0.1496989E-007  0.1939537E+04  0.7818608E-02  0.8635423E-01
         -1   -1    0    0    0  501 -0.00000000000E+00  0.00000000000E+00  0.68225015913E+03  0.68225015913E+03  0.00000000000E+00 0.  1.
          1   -1    0    0  501    0  0.00000000000E+00 -0.00000000000E+00 -0.13784546244E+04  0.13784546244E+04  0.00000000000E+00 0. -1.
         23    2    1    2    0    0  0.42812679207E+03 -0.49749942888E+03  0.12350238685E+03  0.67397048561E+03  0.90471786178E+02 0.  0.
        254    2    1    2    0    0 -0.42812679207E+03  0.49749942888E+03 -0.81970685208E+03  0.13867342979E+04  0.90571212742E+03 0.  0.
        -24    2    4    4    0    0 -0.19148009941E+03  0.26514732460E+03  0.14231030737E+03  0.36588337412E+03  0.81551748347E+02 0.  0.
         24    2    4    4    0    0 -0.23664669266E+03  0.23235210428E+03 -0.96201715944E+03  0.10208509238E+04  0.81672737032E+02 0.  0.
         11    1    3    3    0    0  0.34772579559E+03 -0.42220464029E+03  0.69722355225E+02  0.55139023751E+03  0.00000000000E+00 0.  1.
        -11    1    3    3    0    0  0.80400996479E+02 -0.75294788590E+02  0.53780031622E+02  0.12258024810E+03  0.00000000000E+00 0. -1.
          4    1    6    6  502    0 -0.21992351126E+03  0.20415464419E+03 -0.91909634205E+03  0.96684205303E+03  0.00000000000E+00 0. -1.
          3    1    5    5  503    0 -0.77397360736E+02  0.15785628133E+03  0.44902090251E+02  0.18145289943E+03  0.00000000000E+00 0. -1.
         -4    1    5    5    0  503 -0.11408273868E+03  0.10729104327E+03  0.97408217116E+02  0.18443047468E+03  0.00000000000E+00 0.  1.
         -3    1    6    6    0  502 -0.16723181399E+02  0.28197460087E+02 -0.42920817396E+02  0.54008870729E+02  0.00000000000E+00 0.  1.
<mgrwt>
<rscale>  0 0.19395369E+04</rscale>
<asrwt>0</asrwt>
<pdfrwt beam="1">  1        1 0.21206994E+00 0.19395369E+04</pdfrwt>
<pdfrwt beam="2">  1       -1 0.10496156E+00 0.19395369E+04</pdfrwt>
<totfact> 0.63215783E+00</totfact>
</mgrwt>
</event>
<event>
12    1  0.1496989E-007  0.2244986E+04  0.7818608E-02  0.8499934E-01
         -2   -1    0    0    0  501 -0.00000000000E+00  0.00000000000E+00  0.10040709085E+04  0.10040709085E+04  0.00000000000E+00 0.  1.
          2   -1    0    0  501    0  0.00000000000E+00 -0.00000000000E+00 -0.12548814713E+04  0.12548814713E+04  0.00000000000E+00 0. -1.
         23    2    1    2    0    0 -0.28720834345E+03 -0.64065470741E+03 -0.72513267131E+03  0.10140365377E+04  0.97599294048E+02 0.  0.
        254    2    1    2    0    0  0.28720834345E+03  0.64065470741E+03  0.47432210848E+03  0.12449158420E+04  0.91208930730E+03 0.  0.
        -24    2    4    4    0    0  0.55634450044E+03  0.28146991194E+03  0.65104018644E+02  0.63207486087E+03  0.80842946583E+02 0.  0.
         24    2    4    4    0    0 -0.26913615699E+03  0.35918479547E+03  0.40921808984E+03  0.61284098116E+03  0.81649463203E+02 0.  0.
         13    1    3    3    0    0 -0.15798522343E+03 -0.46258022023E+03 -0.50153470047E+03  0.70034052199E+03  0.00000000000E+00 0. -1.
        -13    1    3    3    0    0 -0.12922312002E+03 -0.17807448718E+03 -0.22359797084E+03  0.31369601575E+03  0.00000000000E+00 0.  1.
          2    1    6    6  502    0 -0.25873789890E+03  0.36127987978E+03  0.40556023375E+03  0.60162077347E+03  0.00000000000E+00 0. -1.
          3    1    5    5  503    0  0.48760165996E+03  0.22154070902E+03  0.73058767251E+02  0.54053052460E+03  0.00000000000E+00 0. -1.
         -4    1    5    5    0  503  0.68742840479E+02  0.59929202913E+02 -0.79547486075E+01  0.91544336277E+02  0.00000000000E+00 0.  1.
         -1    1    6    6    0  502 -0.10398258088E+02 -0.20950843143E+01  0.36578560891E+01  0.11220207695E+02  0.00000000000E+00 0.  1.
<mgrwt>
<rscale>  0 0.22449855E+04</rscale>
<asrwt>0</asrwt>
<pdfrwt beam="1">  1        2 0.19305869E+00 0.22449855E+04</pdfrwt>
<pdfrwt beam="2">  1       -2 0.15447245E+00 0.22449855E+04</pdfrwt>
<totfact> 0.44335599E+00</totfact>
</mgrwt>
</event>
<event>
12    1  0.1496989E-007  0.1743848E+04  0.7818608E-02  0.8736744E-01
          1   -1    0    0  501    0  0.00000000000E+00  0.00000000000E+00  0.32199291840E+04  0.32199291840E+04  0.00000000000E+00 0. -1.
         -1   -1    0    0    0  501 -0.00000000000E+00 -0.00000000000E+00 -0.23610807615E+03  0.23610807615E+03  0.00000000000E+00 0.  1.
         23    2    1    2    0    0 -0.40368281496E+03  0.21299085609E+03  0.21781132341E+03  0.51158178131E+03  0.77131228994E+02 0.  0.
        254    2    1    2    0    0  0.40368281496E+03 -0.21299085609E+03  0.27660097844E+04  0.29444554788E+04  0.90037937526E+03 0.  0.
        -24    2    4    4    0    0 -0.38923034433E+02  0.61446008450E+02  0.20642746584E+04  0.20670675445E+04  0.79042732997E+02 0.  0.
         24    2    4    4    0    0  0.44260584939E+03 -0.27443686454E+03  0.70173512596E+03  0.87738793427E+03  0.78497577384E+02 0.  0.
         13    1    3    3    0    0 -0.15416598615E+03  0.10807005971E+03  0.56883869130E+02  0.19667756267E+03  0.00000000000E+00 0. -1.
        -13    1    3    3    0    0 -0.24951682881E+03  0.10492079638E+03  0.16092745428E+03  0.31490421863E+03  0.00000000000E+00 0.  1.
          2    1    6    6  502    0  0.23464652744E+03 -0.18503626426E+03  0.36647775220E+03  0.47286716400E+03  0.00000000000E+00 0. -1.
          1    1    5    5  503    0 -0.22799621054E+02  0.37610340184E+02  0.18837752881E+04  0.18842886446E+04  0.00000000000E+00 0. -1.
         -2    1    5    5    0  503 -0.16123413379E+02  0.23835668266E+02  0.18049937037E+03  0.18277889989E+03  0.00000000000E+00 0.  1.
         -1    1    6    6    0  502  0.20795932195E+03 -0.89400600284E+02  0.33525737376E+03  0.40452077027E+03  0.00000000000E+00 0.  1.
<mgrwt>
<rscale>  0 0.17438478E+04</rscale>
<asrwt>0</asrwt>
<pdfrwt beam="1">  1        1 0.49537369E+00 0.17438478E+04</pdfrwt>
<pdfrwt beam="2">  1       -1 0.36324322E-01 0.17438478E+04</pdfrwt>
<totfact> 0.28402586E+00</totfact>
</mgrwt>
</event>
<event>
12    1  0.1496989E-007  0.1242363E+04  0.7818608E-02  0.9076563E-01
         -1   -1    0    0    0  501 -0.00000000000E+00  0.00000000000E+00  0.58758161838E+03  0.58758161838E+03  0.00000000000E+00 0.  1.
          1   -1    0    0  501    0  0.00000000000E+00 -0.00000000000E+00 -0.65670298978E+03  0.65670298978E+03  0.00000000000E+00 0. -1.
         23    2    1    2    0    0 -0.20738742299E+03  0.36280266367E+02 -0.19829371188E+03  0.30350083865E+03  0.92013922576E+02 0.  0.
        254    2    1    2    0    0  0.20738742299E+03 -0.36280266367E+02  0.12917234048E+03  0.94078376950E+03  0.90777905157E+03 0.  0.
        -24    2    4    4    0    0 -0.31789021193E+03 -0.17155911552E+03  0.13223301208E+03  0.39245422523E+03  0.77769097072E+02 0.  0.
         24    2    4    4    0    0  0.52527763492E+03  0.13527884915E+03 -0.30606715992E+01  0.54832954427E+03  0.80243134541E+02 0.  0.
         13    1    3    3    0    0 -0.14071062492E+03  0.67042777951E+02 -0.12560245900E+03  0.20017540245E+03  0.00000000000E+00 0. -1.
        -13    1    3    3    0    0 -0.66676798073E+02 -0.30762511584E+02 -0.72691252879E+02  0.10332543620E+03  0.00000000000E+00 0.  1.
          4    1    6    6  502    0  0.34011108947E+03  0.11552758965E+03 -0.28766835151E+02  0.36034664971E+03  0.00000000000E+00 0. -1.
          1    1    5    5  503    0 -0.16231973068E+03 -0.13137203941E+03  0.73481890053E+02  0.22137275323E+03  0.00000000000E+00 0. -1.
         -2    1    5    5    0  503 -0.15557048125E+03 -0.40187076107E+02  0.58751122029E+02  0.17108147200E+03  0.00000000000E+00 0.  1.
         -3    1    6    6    0  502  0.18516654544E+03  0.19751259497E+02  0.25706163552E+02  0.18798289456E+03  0.00000000000E+00 0.  1.
<mgrwt>
<rscale>  0 0.12423632E+04</rscale>
<asrwt>0</asrwt>
<pdfrwt beam="1">  1        1 0.10103123E+00 0.12423632E+04</pdfrwt>
<pdfrwt beam="2">  1       -1 0.90397172E-01 0.12423632E+04</pdfrwt>
<totfact> 0.35423446E+01</totfact>
</mgrwt>
</event>
<event>
12    1  0.1575338E-007  0.1636585E+04  0.7818608E-02  0.8798383E-01
         -1   -1    0    0    0  501 -0.00000000000E+00  0.00000000000E+00  0.85287920730E+03  0.85287920730E+03  0.00000000000E+00 0.  1.
          1   -1    0    0  501    0  0.00000000000E+00 -0.00000000000E+00 -0.78510820784E+03  0.78510820784E+03  0.00000000000E+00 0. -1.
         23    2    1    2    0    0  0.12183164515E+03 -0.44415616720E+03 -0.29682440714E+03  0.55599757076E+03  0.94397666214E+02 0.  0.
        254    2    1    2    0    0 -0.12183164515E+03  0.44415616720E+03  0.36459540661E+03  0.10819898444E+04  0.90865535942E+03 0.  0.
        -24    2    4    4    0    0  0.24696934185E+03  0.46902426685E+03 -0.27880894233E+02  0.53665034850E+03  0.78985021170E+02 0.  0.
         24    2    4    4    0    0 -0.36880098700E+03 -0.24868099649E+02  0.39247630084E+03  0.54533949589E+03  0.82005662387E+02 0.  0.
         11    1    3    3    0    0  0.24212860016E+02 -0.92040228413E+02 -0.19182477673E+02  0.97085702789E+02  0.00000000000E+00 0.  1.
        -11    1    3    3    0    0  0.97618785131E+02 -0.35211593879E+03 -0.27764192947E+03  0.45891186797E+03  0.00000000000E+00 0. -1.
          2    1    6    6  502    0 -0.34762139391E+03 -0.40014114284E+02  0.37966337977E+03  0.51631971179E+03  0.00000000000E+00 0. -1.
          1    1    5    5  503    0  0.21949680601E+03  0.41365522472E+03 -0.50127287512E+02  0.47095884930E+03  0.00000000000E+00 0. -1.
         -2    1    5    5    0  503  0.27472535844E+02  0.55369042136E+02  0.22246393279E+02  0.65691499197E+02  0.00000000000E+00 0.  1.
         -3    1    6    6    0  502 -0.21179593084E+02  0.15146014635E+02  0.12812921070E+02  0.29019784094E+02  0.00000000000E+00 0.  1.
<mgrwt>
<rscale>  0 0.16365848E+04</rscale>
<asrwt>0</asrwt>
<pdfrwt beam="1">  1        1 0.12078588E+00 0.16365848E+04</pdfrwt>
<pdfrwt beam="2">  1       -1 0.13121219E+00 0.16365848E+04</pdfrwt>
<totfact> 0.10799644E+01</totfact>
</mgrwt>
</event>
<event>
12    1  0.1496989E-007  0.2023478E+04  0.7818608E-02  0.8595722E-01
         -1   -1    0    0    0  501 -0.00000000000E+00  0.00000000000E+00  0.13849524964E+04  0.13849524964E+04  0.00000000000E+00 0.  1.
          1   -1    0    0  501    0  0.00000000000E+00 -0.00000000000E+00 -0.73909805503E+03  0.73909805503E+03  0.00000000000E+00 0. -1.
         23    2    1    2    0    0  0.35434575600E+03 -0.37571897767E+03 -0.40045101612E+03  0.65994117618E+03  0.91845929303E+02 0.  0.
        254    2    1    2    0    0 -0.35434575600E+03  0.37571897767E+03  0.10463054575E+04  0.14641093753E+04  0.88438424193E+03 0.  0.
        -24    2    4    4    0    0 -0.63789922841E+03  0.30429797116E+03  0.63857087765E+03  0.95596360641E+03  0.81123178837E+02 0.  0.
         24    2    4    4    0    0  0.28355347240E+03  0.71421006517E+02  0.40773457988E+03  0.50814576889E+03  0.80380986068E+02 0.  0.
         11    1    3    3    0    0  0.35530952288E+03 -0.35690797816E+03 -0.39581113142E+03  0.64054243707E+03  0.00000000000E+00 0. -1.
        -11    1    3    3    0    0 -0.96376687905E+00 -0.18810999514E+02 -0.46398846952E+01  0.19398739116E+02  0.00000000000E+00 0.  1.
          2    1    6    6  502    0  0.16408722758E+03  0.28833695983E+02  0.16614192458E+03  0.23528522985E+03  0.00000000000E+00 0. -1.
          1    1    5    5  503    0 -0.21444362428E+03  0.78589548182E+02  0.24901545003E+03  0.33789211212E+03  0.00000000000E+00 0. -1.
         -2    1    5    5    0  503 -0.42345560412E+03  0.22570842297E+03  0.38955542762E+03  0.61807149429E+03  0.00000000000E+00 0.  1.
         -1    1    6    6    0  502  0.11946624482E+03  0.42587310534E+02  0.24159265530E+03  0.27286053904E+03  0.00000000000E+00 0.  1.
<mgrwt>
<rscale>  0 0.20234779E+04</rscale>
<asrwt>0</asrwt>
<pdfrwt beam="1">  1        1 0.11370739E+00 0.20234779E+04</pdfrwt>
<pdfrwt beam="2">  1       -1 0.21306961E+00 0.20234779E+04</pdfrwt>
<totfact> 0.28423561E+00</totfact>
</mgrwt>
</event>
<event>
12    1  0.1496989E-007  0.1985558E+04  0.7818608E-02  0.8613403E-01
          2   -1    0    0  501    0  0.00000000000E+00  0.00000000000E+00  0.37449068200E+04  0.37449068200E+04  0.00000000000E+00 0. -1.
         -2   -1    0    0    0  501 -0.00000000000E+00 -0.00000000000E+00 -0.26318672021E+03  0.26318672021E+03  0.00000000000E+00 0.  1.
         23    2    1    2    0    0 -0.46294707741E+02 -0.18547331889E+03 -0.15129937619E+03  0.26045166340E+03  0.91651599825E+02 0.  0.
        254    2    1    2    0    0  0.46294707741E+02  0.18547331889E+03  0.36330194760E+04  0.37476418769E+04  0.89969193176E+03 0.  0.
        -24    2    4    4    0    0  0.11616091362E+03  0.52629675597E+03  0.18201715722E+04  0.18999983510E+04  0.80545318460E+02 0.  0.
         24    2    4    4    0    0 -0.69866205879E+02 -0.34082343708E+03  0.18128479038E+04  0.18476435259E+04  0.79543537207E+02 0.  0.
         11    1    3    3    0    0 -0.58056900038E+02 -0.14105798973E+03 -0.15080925480E+03  0.21450266069E+03  0.00000000000E+00 0.  1.
        -11    1    3    3    0    0  0.11762192297E+02 -0.44415329153E+02 -0.49012138960E+00  0.45949002714E+02  0.00000000000E+00 0. -1.
          4    1    6    6  502    0 -0.68175504531E+02 -0.31851402137E+03  0.17652363258E+04  0.17950371493E+04  0.00000000000E+00 0. -1.
          1    1    5    5  503    0  0.98507263910E+01  0.18515172302E+03  0.70524300156E+03  0.72920908428E+03  0.00000000000E+00 0. -1.
         -2    1    5    5    0  503  0.10631018723E+03  0.34114503295E+03  0.11149285706E+04  0.11707892667E+04  0.00000000000E+00 0.  1.
         -3    1    6    6    0  502 -0.16907013486E+01 -0.22309415709E+02  0.47611578011E+02  0.52606376619E+02  0.00000000000E+00 0.  1.
<mgrwt>
<rscale>  0 0.19855576E+04</rscale>
<asrwt>0</asrwt>
<pdfrwt beam="1">  1        2 0.57613947E+00 0.19855576E+04</pdfrwt>
<pdfrwt beam="2">  1       -2 0.40490268E-01 0.19855576E+04</pdfrwt>
<totfact> 0.29264381E+00</totfact>
</mgrwt>
</event>
<event>
12    1  0.1496989E-007  0.1783803E+04  0.7818608E-02  0.8714961E-01
          1   -1    0    0  501    0  0.00000000000E+00  0.00000000000E+00  0.43589786852E+03  0.43589786852E+03  0.00000000000E+00 0. -1.
         -1   -1    0    0    0  501 -0.00000000000E+00 -0.00000000000E+00 -0.18249417957E+04  0.18249417957E+04  0.00000000000E+00 0.  1.
         23    2    1    2    0    0 -0.99930341341E+02 -0.18547568069E+02  0.30682065918E+03  0.33533105520E+03  0.89319170862E+02 0.  0.
        254    2    1    2    0    0  0.99930341341E+02  0.18547568069E+02 -0.16958645863E+04  0.19255086090E+04  0.90625417114E+03 0.  0.
        -24    2    4    4    0    0  0.21131772601E+03 -0.35317341424E+03 -0.43671683450E+03  0.60537086643E+03  0.79785026929E+02 0.  0.
         24    2    4    4    0    0 -0.11138738467E+03  0.37172098231E+03 -0.12591477518E+04  0.13201377426E+04  0.82018048363E+02 0.  0.
         13    1    3    3    0    0 -0.11449646509E+03 -0.45154374986E+01  0.27028301240E+03  0.29356896377E+03  0.00000000000E+00 0. -1.
        -13    1    3    3    0    0  0.14566123746E+02 -0.14032130571E+02  0.36537646776E+02  0.41762091438E+02  0.00000000000E+00 0.  1.
          2    1    6    6  502    0 -0.10114954269E+03  0.19666219359E+03 -0.71811411661E+03  0.75139545703E+03  0.00000000000E+00 0. -1.
          1    1    5    5  503    0  0.47396852299E+02 -0.28353530973E+02 -0.52018770721E+02  0.75870526780E+02  0.00000000000E+00 0. -1.
         -2    1    5    5    0  503  0.16392087372E+03 -0.32481988327E+03 -0.38469806378E+03  0.52950033964E+03  0.00000000000E+00 0.  1.
         -1    1    6    6    0  502 -0.10237841987E+02  0.17505878872E+03 -0.54103363521E+03  0.56874228553E+03  0.00000000000E+00 0.  1.
<mgrwt>
<rscale>  0 0.17838029E+04</rscale>
<asrwt>0</asrwt>
<pdfrwt beam="1">  1        1 0.67061210E-01 0.17838029E+04</pdfrwt>
<pdfrwt beam="2">  1       -1 0.28076028E+00 0.17838029E+04</pdfrwt>
<totfact> 0.22244910E+00</totfact>
</mgrwt>
</event>
<event>
12    1  0.1496989E-007  0.1716154E+04  0.7818608E-02  0.8752204E-01
          2   -1    0    0  501    0  0.00000000000E+00  0.00000000000E+00  0.10249529170E+04  0.10249529170E+04  0.00000000000E+00 0. -1.
         -2   -1    0    0    0  501 -0.00000000000E+00 -0.00000000000E+00 -0.71837101887E+03  0.71837101887E+03  0.00000000000E+00 0.  1.
         23    2    1    2    0    0 -0.14832716954E+03 -0.28460262031E+03 -0.42597310183E+03  0.54064231780E+03  0.88551858292E+02 0.  0.
        254    2    1    2    0    0  0.14832716954E+03  0.28460262031E+03  0.73255499998E+03  0.12026816181E+04  0.89822416231E+03 0.  0.
        -24    2    4    4    0    0 -0.28055477263E+03 -0.14944768740E+03  0.17285179127E+03  0.37052950135E+03  0.79804623349E+02 0.  0.
         24    2    4    4    0    0  0.42888194218E+03  0.43405030771E+03  0.55970320870E+03  0.83215211672E+03  0.82885907014E+02 0.  0.
         13    1    3    3    0    0  0.51132865674E+01 -0.11759902436E+02 -0.48981713945E+02  0.50632492589E+02  0.00000000000E+00 0. -1.
        -13    1    3    3    0    0 -0.15344045611E+03 -0.27284271788E+03 -0.37699138788E+03  0.49000982522E+03  0.00000000000E+00 0.  1.
          2    1    6    6  502    0  0.38152522702E+03  0.41199723619E+03  0.52955731470E+03  0.77183817672E+03  0.00000000000E+00 0. -1.
          3    1    5    5  503    0 -0.17071970025E+03 -0.13293201545E+03  0.10664966292E+03  0.24122663075E+03  0.00000000000E+00 0. -1.
         -4    1    5    5    0  503 -0.10983507239E+03 -0.16515671954E+02  0.66202128354E+02  0.12930287060E+03  0.00000000000E+00 0.  1.
         -1    1    6    6    0  502  0.47356715156E+02  0.22053071519E+02  0.30145894004E+02  0.60313940006E+02  0.00000000000E+00 0.  1.
<mgrwt>
<rscale>  0 0.17161544E+04</rscale>
<asrwt>0</asrwt>
<pdfrwt beam="1">  1        2 0.15768506E+00 0.17161544E+04</pdfrwt>
<pdfrwt beam="2">  1       -2 0.11051862E+00 0.17161544E+04</pdfrwt>
<totfact> 0.14989832E+01</totfact>
</mgrwt>
</event>
<event>
12    1  0.1496989E-007  0.2492675E+04  0.7818608E-02  0.8405600E-01
         -2   -1    0    0    0  501 -0.00000000000E+00  0.00000000000E+00  0.11469753846E+04  0.11469753846E+04  0.00000000000E+00 0. -1.
          2   -1    0    0  501    0  0.00000000000E+00 -0.00000000000E+00 -0.13543067961E+04  0.13543067961E+04  0.00000000000E+00 0.  1.
         23    2    1    2    0    0 -0.52547657041E+03 -0.66429066880E+03  0.58792157588E+03  0.10346007854E+04  0.85669638905E+02 0.  0.
        254    2    1    2    0    0  0.52547657041E+03  0.66429066880E+03 -0.79525298737E+03  0.14666813954E+04  0.89516438881E+03 0.  0.
        -24    2    4    4    0    0 -0.45977322812E+02 -0.17614741700E+03 -0.51203456156E+02  0.20449416444E+03  0.77809013857E+02 0.  0.
         24    2    4    4    0    0  0.57145389322E+03  0.84043808580E+03 -0.74404953121E+03  0.12621872310E+04  0.81309119719E+02 0.  0.
         11    1    3    3    0    0 -0.12370346292E+03 -0.15851889188E+03  0.96775940567E+02  0.22315099931E+03  0.00000000000E+00 0.  1.
        -11    1    3    3    0    0 -0.40177310749E+03 -0.50577177692E+03  0.49114563531E+03  0.81144978607E+03  0.00000000000E+00 0. -1.
          2    1    6    6  502    0  0.42035546018E+03  0.64142615528E+03 -0.51991147513E+03  0.92651722464E+03  0.00000000000E+00 0. -1.
          1    1    5    5  503    0 -0.38183970566E+02 -0.16072899124E+03 -0.69593038396E+02  0.17926242000E+03  0.00000000000E+00 0. -1.
         -2    1    5    5    0  503 -0.77933522455E+01 -0.15418425767E+02  0.18389582240E+02  0.25231744436E+02  0.00000000000E+00 0.  1.
         -1    1    6    6    0  502  0.15109843304E+03  0.19901193053E+03 -0.22413805608E+03  0.33567000632E+03  0.00000000000E+00 0.  1.
<mgrwt>
<rscale>  0 0.24926745E+04</rscale>
<asrwt>0</asrwt>
<pdfrwt beam="1">  1        2 0.20835489E+00 0.24926745E+04</pdfrwt>
<pdfrwt beam="2">  1       -2 0.17645775E+00 0.24926745E+04</pdfrwt>
<totfact> 0.26331902E+00</totfact>
</mgrwt>
</event>
<event>
12    1  0.1496989E-007  0.1586109E+04  0.7818608E-02  0.8829127E-01
          2   -1    0    0  501    0  0.00000000000E+00  0.00000000000E+00  0.13260965486E+04  0.13260965486E+04  0.00000000000E+00 0.  1.
         -2   -1    0    0    0  501 -0.00000000000E+00 -0.00000000000E+00 -0.47427586167E+03  0.47427586167E+03  0.00000000000E+00 0. -1.
         23    2    1    2    0    0  0.46274363206E+03 -0.29608452479E+03  0.22260204334E+03  0.59995589659E+03  0.92723747386E+02 0.  0.
        254    2    1    2    0    0 -0.46274363206E+03  0.29608452479E+03  0.62921864357E+03  0.12004165136E+04  0.86214035400E+03 0.  0.
        -24    2    4    4    0    0 -0.60145033029E+03  0.47928276019E+03  0.53148173932E+03  0.93829106685E+03  0.80391684069E+02 0.  0.
         24    2    4    4    0    0  0.13870669824E+03 -0.18319823540E+03  0.97736904242E+02  0.26212544680E+03  0.79725189374E+02 0.  0.
         13    1    3    3    0    0  0.31011148164E+03 -0.17186741412E+03  0.10112633343E+03  0.36869238451E+03  0.00000000000E+00 0. -1.
        -13    1    3    3    0    0  0.15263215041E+03 -0.12421711067E+03  0.12147570991E+03  0.23126351208E+03  0.00000000000E+00 0.  1.
          2    1    6    6  502    0  0.14346274645E+03 -0.14950528824E+03  0.95132107700E+02  0.22799892269E+03  0.00000000000E+00 0. -1.
          1    1    5    5  503    0 -0.51715209891E+03  0.39208155009E+03  0.41628432462E+03  0.77101677949E+03  0.00000000000E+00 0. -1.
         -2    1    5    5    0  503 -0.84298231384E+02  0.87201210099E+02  0.11519741471E+03  0.16727428736E+03  0.00000000000E+00 0.  1.
         -1    1    6    6    0  502 -0.47560482199E+01 -0.33692947155E+02  0.26047965424E+01  0.34126524108E+02  0.00000000000E+00 0.  1.
<mgrwt>
<rscale>  0 0.15861092E+04</rscale>
<asrwt>0</asrwt>
<pdfrwt beam="1">  1        2 0.20401485E+00 0.15861092E+04</pdfrwt>
<pdfrwt beam="2">  1       -2 0.72965518E-01 0.15861092E+04</pdfrwt>
<totfact> 0.26004884E+01</totfact>
</mgrwt>
</event>
<event>
12    1  0.1496989E-007  0.1933506E+04  0.7818608E-02  0.8638356E-01
          4   -1    0    0  501    0  0.00000000000E+00  0.00000000000E+00  0.82179659896E+03  0.82179659896E+03  0.00000000000E+00 0. -1.
         -4   -1    0    0    0  501 -0.00000000000E+00 -0.00000000000E+00 -0.11372784302E+04  0.11372784302E+04  0.00000000000E+00 0.  1.
         23    2    1    2    0    0 -0.59183325927E+03 -0.44580122647E+03  0.18438923440E+02  0.74722574652E+03  0.94873505569E+02 0.  0.
        254    2    1    2    0    0  0.59183325927E+03  0.44580122647E+03 -0.33392075471E+03  0.12118492827E+04  0.89892729026E+03 0.  0.
        -24    2    4    4    0    0  0.31411017500E+03  0.61465368869E+03 -0.48162865622E+03  0.84535691293E+03  0.78726035585E+02 0.  0.
         24    2    4    4    0    0  0.27772308428E+03 -0.16885246222E+03  0.14770790151E+03  0.36649236974E+03  0.82811637903E+02 0.  0.
         11    1    3    3    0    0 -0.49059357639E+03 -0.32136352342E+03  0.94252466997E+01  0.58655383952E+03  0.00000000000E+00 0. -1.
        -11    1    3    3    0    0 -0.10123968289E+03 -0.12443770305E+03  0.90136767403E+01  0.16067190700E+03  0.00000000000E+00 0.  1.
          2    1    6    6  502    0  0.24459516221E+03 -0.12668571887E+03  0.14835215966E+03  0.31286487182E+03  0.00000000000E+00 0. -1.
          3    1    5    5  503    0  0.25636221750E+03  0.55338970485E+03 -0.41080553714E+03  0.73533865759E+03  0.00000000000E+00 0. -1.
         -4    1    5    5    0  503  0.57747957499E+02  0.61263983835E+02 -0.70823119083E+02  0.11001825534E+03  0.00000000000E+00 0.  1.
         -1    1    6    6    0  502  0.33127922071E+02 -0.42166743345E+02 -0.64425814926E+00  0.53627497924E+02  0.00000000000E+00 0.  1.
<mgrwt>
<rscale>  0 0.19335062E+04</rscale>
<asrwt>0</asrwt>
<pdfrwt beam="1">  1        4 0.12643025E+00 0.19335062E+04</pdfrwt>
<pdfrwt beam="2">  1       -4 0.17496591E+00 0.19335062E+04</pdfrwt>
<totfact> 0.16915349E-01</totfact>
</mgrwt>
</event>
<event>
12    1  0.1496989E-007  0.2151440E+04  0.7818608E-02  0.8538916E-01
          1   -1    0    0  501    0  0.00000000000E+00  0.00000000000E+00  0.16831188265E+04  0.16831188265E+04  0.00000000000E+00 0. -1.
         -1   -1    0    0    0  501 -0.00000000000E+00 -0.00000000000E+00 -0.68751742426E+03  0.68751742426E+03  0.00000000000E+00 0.  1.
         23    2    1    2    0    0 -0.16054400102E+03 -0.59335726573E+03 -0.28927708847E+03  0.68517961809E+03  0.89121569062E+02 0.  0.
        254    2    1    2    0    0  0.16054400102E+03  0.59335726573E+03  0.12848784907E+04  0.16854566327E+04  0.90111270310E+03 0.  0.
        -24    2    4    4    0    0 -0.25074509430E+03  0.74041952218E+02  0.84046632329E+03  0.88383919877E+03  0.80204586499E+02 0.  0.
         24    2    4    4    0    0  0.41128909532E+03  0.51931531351E+03  0.44441216746E+03  0.80161743393E+03  0.79001398912E+02 0.  0.
         11    1    3    3    0    0 -0.10054131368E+03 -0.28886702101E+03 -0.18659338996E+03  0.35828732152E+03  0.00000000000E+00 0. -1.
        -11    1    3    3    0    0 -0.60002687338E+02 -0.30449024472E+03 -0.10268369851E+03  0.32689229657E+03  0.00000000000E+00 0.  1.
          4    1    6    6  502    0  0.76670694585E+02  0.11133611740E+03  0.55525692134E+02  0.14614112677E+03  0.00000000000E+00 0. -1.
          1    1    5    5  503    0 -0.50205054998E+02  0.48755646403E+02  0.25676404183E+03  0.26613048263E+03  0.00000000000E+00 0. -1.
         -2    1    5    5    0  503 -0.20054003930E+03  0.25286305815E+02  0.58370228146E+03  0.61770871615E+03  0.00000000000E+00 0.  1.
         -3    1    6    6    0  502  0.33461840073E+03  0.40797919611E+03  0.38888647532E+03  0.65547630717E+03  0.00000000000E+00 0.  1.
<mgrwt>
<rscale>  0 0.21514400E+04</rscale>
<asrwt>0</asrwt>
<pdfrwt beam="1">  1        1 0.25894136E+00 0.21514400E+04</pdfrwt>
<pdfrwt beam="2">  1       -1 0.10577191E+00 0.21514400E+04</pdfrwt>
<totfact> 0.37499575E+00</totfact>
</mgrwt>
</event>
<event>
12    1  0.1496989E-007  0.1035835E+04  0.7818608E-02  0.9270091E-01
          1   -1    0    0  501    0  0.00000000000E+00  0.00000000000E+00  0.65203922298E+03  0.65203922298E+03  0.00000000000E+00 0. -1.
         -1   -1    0    0    0  501 -0.00000000000E+00 -0.00000000000E+00 -0.41138435773E+03  0.41138435773E+03  0.00000000000E+00 0.  1.
         23    2    1    2    0    0 -0.57469523789E+02 -0.18300212233E+02  0.10554408063E+03  0.15153150466E+03  0.90468779238E+02 0.  0.
        254    2    1    2    0    0  0.57469523789E+02  0.18300212233E+02  0.13511078462E+03  0.91189207605E+03  0.89980808526E+03 0.  0.
        -24    2    4    4    0    0 -0.43831526379E+02 -0.42453542804E+03  0.11582574434E+03  0.44931495020E+03  0.79478230085E+02 0.  0.
         24    2    4    4    0    0  0.10130105017E+03  0.44283564027E+03  0.19285040282E+02  0.46257712585E+03  0.85090407924E+02 0.  0.
         13    1    3    3    0    0 -0.43205628038E+02  0.54521522081E+01  0.11442904096E+03  0.12243552455E+03  0.00000000000E+00 0. -1.
        -13    1    3    3    0    0 -0.14263895751E+02 -0.23752364441E+02 -0.88849603280E+01  0.29095980110E+02  0.00000000000E+00 0.  1.
          4    1    6    6  502    0  0.76283712581E+02  0.40661688940E+03  0.36486850417E+02  0.41531649354E+03  0.00000000000E+00 0. -1.
          1    1    5    5  503    0 -0.84489313845E+01 -0.32169927136E+03  0.11113927249E+03  0.34046107491E+03  0.00000000000E+00 0. -1.
         -2    1    5    5    0  503 -0.35382594994E+02 -0.10283615667E+03  0.46864718522E+01  0.10885387529E+03  0.00000000000E+00 0.  1.
         -3    1    6    6    0  502  0.25017337587E+02  0.36218750871E+02 -0.17201810136E+02  0.47260632312E+02  0.00000000000E+00 0.  1.
<mgrwt>
<rscale>  0 0.10358354E+04</rscale>
<asrwt>0</asrwt>
<pdfrwt beam="1">  1        1 0.10031373E+00 0.10358354E+04</pdfrwt>
<pdfrwt beam="2">  1       -1 0.63289901E-01 0.10358354E+04</pdfrwt>
<totfact> 0.76816422E+01</totfact>
</mgrwt>
</event>
<event>
12    1  0.1496989E-007  0.1312420E+04  0.7818608E-02  0.9019774E-01
          2   -1    0    0  501    0  0.00000000000E+00  0.00000000000E+00  0.14194313770E+04  0.14194313770E+04  0.00000000000E+00 0. -1.
         -2   -1    0    0    0  501 -0.00000000000E+00 -0.00000000000E+00 -0.30336885476E+03  0.30336885476E+03  0.00000000000E+00 0.  1.
         23    2    1    2    0    0 -0.34948139984E+03 -0.95384212550E+02  0.34903061546E+03  0.51136338759E+03  0.91840877636E+02 0.  0.
        254    2    1    2    0    0  0.34948139984E+03  0.95384212550E+02  0.76703190680E+03  0.12114368442E+04  0.86487333442E+03 0.  0.
        -24    2    4    4    0    0 -0.15795896748E+03  0.17706860322E+03  0.62258754393E+03  0.67146218533E+03  0.83318010175E+02 0.  0.
         24    2    4    4    0    0  0.50744036731E+03 -0.81684390668E+02  0.14444436288E+03  0.53997465887E+03  0.80872691302E+02 0.  0.
         13    1    3    3    0    0 -0.24591178856E+03 -0.89738172222E+02  0.19834605077E+03  0.32843066721E+03  0.00000000000E+00 0. -1.
        -13    1    3    3    0    0 -0.10356961128E+03 -0.56460403276E+01  0.15068456469E+03  0.18293272038E+03  0.00000000000E+00 0.  1.
          2    1    6    6  502    0  0.46240721598E+03 -0.86072106065E+02  0.10982008646E+03  0.48300030250E+03  0.00000000000E+00 0. -1.
          3    1    5    5  503    0 -0.13809606132E+03  0.13879497418E+03  0.57412858156E+03  0.60659557794E+03  0.00000000000E+00 0. -1.
         -4    1    5    5    0  503 -0.19862906159E+02  0.38273629034E+02  0.48458962369E+02  0.64866607391E+02  0.00000000000E+00 0.  1.
         -1    1    6    6    0  502  0.45033151337E+02  0.43877153974E+01  0.34624276423E+02  0.56974356368E+02  0.00000000000E+00 0.  1.
<mgrwt>
<rscale>  0 0.13124196E+04</rscale>
<asrwt>0</asrwt>
<pdfrwt beam="1">  1        2 0.21837406E+00 0.13124196E+04</pdfrwt>
<pdfrwt beam="2">  1       -2 0.46672132E-01 0.13124196E+04</pdfrwt>
<totfact> 0.60096743E+01</totfact>
</mgrwt>
</event>
<event>
12    1  0.1496989E-007  0.1127692E+04  0.7818608E-02  0.9178614E-01
         -2   -1    0    0    0  501 -0.00000000000E+00  0.00000000000E+00  0.22416417653E+03  0.22416417653E+03  0.00000000000E+00 0. -1.
          2   -1    0    0  501    0  0.00000000000E+00 -0.00000000000E+00 -0.14182562580E+04  0.14182562580E+04  0.00000000000E+00 0.  1.
         23    2    1    2    0    0 -0.13987840645E+03 -0.11234244543E+03 -0.23232162618E+03  0.30719838239E+03  0.90612993085E+02 0.  0.
        254    2    1    2    0    0  0.13987840645E+03  0.11234244543E+03 -0.96177045528E+03  0.13352220521E+04  0.90864114270E+03 0.  0.
        -24    2    4    4    0    0 -0.20993318745E+03  0.38948767808E+02  0.70053808138E+02  0.24036971119E+03  0.85329434061E+02 0.  0.
         24    2    4    4    0    0  0.34981159390E+03  0.73393677620E+02 -0.10318242634E+04  0.10948523409E+04  0.79281490538E+02 0.  0.
         11    1    3    3    0    0 -0.90815028593E+01 -0.17052531961E+02  0.49973127264E+01  0.19955843128E+02  0.00000000000E+00 0. -1.
        -11    1    3    3    0    0 -0.13079690359E+03 -0.95289913467E+02 -0.23731893891E+03  0.28724253927E+03  0.00000000000E+00 0.  1.
          2    1    6    6  502    0  0.88072032832E+02 -0.14552322502E+02 -0.22343251961E+03  0.24060453835E+03  0.00000000000E+00 0. -1.
          3    1    5    5  503    0 -0.23889135136E+02  0.20655365207E+02 -0.15032255826E+02  0.34975757384E+02  0.00000000000E+00 0. -1.
         -4    1    5    5    0  503 -0.18604405231E+03  0.18293402602E+02  0.85086063964E+02  0.20539395380E+03  0.00000000000E+00 0.  1.
         -1    1    6    6    0  502  0.26173956107E+03  0.87946000122E+02 -0.80839174381E+03  0.85424780258E+03  0.00000000000E+00 0.  1.
<mgrwt>
<rscale>  0 0.11276919E+04</rscale>
<asrwt>0</asrwt>
<pdfrwt beam="1">  1        2 0.21819327E+00 0.11276919E+04</pdfrwt>
<pdfrwt beam="2">  1       -2 0.34486797E-01 0.11276919E+04</pdfrwt>
<totfact> 0.11025671E+02</totfact>
</mgrwt>
</event>
<event>
12    1  0.1496989E-007  0.1593218E+04  0.7818608E-02  0.8824725E-01
          2   -1    0    0  501    0  0.00000000000E+00  0.00000000000E+00  0.15328263854E+04  0.15328263854E+04  0.00000000000E+00 0. -1.
         -2   -1    0    0    0  501 -0.00000000000E+00 -0.00000000000E+00 -0.41399712946E+03  0.41399712946E+03  0.00000000000E+00 0.  1.
         23    2    1    2    0    0 -0.18810221520E+03 -0.93411556818E+01 -0.22623672034E+03  0.30370925574E+03  0.74743279570E+02 0.  0.
        254    2    1    2    0    0  0.18810221520E+03  0.93411556818E+01  0.13450659763E+04  0.16431142591E+04  0.92474444440E+03 0.  0.
        -24    2    4    4    0    0 -0.63762846341E+02  0.18980341804E+03 -0.43317276910E+02  0.21843335759E+03  0.75800442965E+02 0.  0.
         24    2    4    4    0    0  0.25186506154E+03 -0.18046226236E+03  0.13883832532E+04  0.14246809015E+04  0.78134346582E+02 0.  0.
         13    1    3    3    0    0 -0.17661466048E+03  0.93446654048E+01 -0.21690785462E+03  0.27987332575E+03  0.00000000000E+00 0.  1.
        -13    1    3    3    0    0 -0.11487554720E+02 -0.18685821087E+02 -0.93288657157E+01  0.23835929994E+02  0.00000000000E+00 0. -1.
          4    1    6    6  502    0  0.56600078551E+02 -0.52566589126E+01  0.22260135452E+03  0.22974456335E+03  0.00000000000E+00 0. -1.
          3    1    5    5  503    0 -0.66254530603E+02  0.12997128670E+03 -0.23974678146E+01  0.14590389317E+03  0.00000000000E+00 0. -1.
         -4    1    5    5    0  503  0.24916842614E+01  0.59832131345E+02 -0.40919809096E+02  0.72529464414E+02  0.00000000000E+00 0.  1.
         -3    1    6    6    0  502  0.19526498299E+03 -0.17520560345E+03  0.11657818987E+04  0.11949363382E+04  0.00000000000E+00 0.  1.
<mgrwt>
<rscale>  0 0.15932178E+04</rscale>
<asrwt>0</asrwt>
<pdfrwt beam="1">  1        2 0.23581944E+00 0.15932178E+04</pdfrwt>
<pdfrwt beam="2">  1       -2 0.63691867E-01 0.15932178E+04</pdfrwt>
<totfact> 0.26612340E+01</totfact>
</mgrwt>
</event>
<event>
12    1  0.1496989E-007  0.1630937E+04  0.7818608E-02  0.8801764E-01
          2   -1    0    0  501    0  0.00000000000E+00  0.00000000000E+00  0.14791899058E+04  0.14791899058E+04  0.00000000000E+00 0.  1.
         -2   -1    0    0    0  501 -0.00000000000E+00 -0.00000000000E+00 -0.44956299307E+03  0.44956299307E+03  0.00000000000E+00 0. -1.
         23    2    1    2    0    0  0.91888287620E+02  0.30686449430E+03  0.89517662076E+03  0.95512548012E+03  0.91182373049E+02 0.  0.
        254    2    1    2    0    0 -0.91888287620E+02 -0.30686449430E+03  0.13445029195E+03  0.97362741873E+03  0.90954065013E+03 0.  0.
        -24    2    4    4    0    0 -0.79544030281E+02  0.20668145846E+03 -0.23754750479E+03  0.33434741927E+03  0.79466355885E+02 0.  0.
         24    2    4    4    0    0 -0.12344257338E+02 -0.51354595276E+03  0.37199779674E+03  0.63927999946E+03  0.80092013582E+02 0.  0.
         11    1    3    3    0    0  0.10920860639E+03  0.23542771857E+03  0.70203579503E+03  0.74846976418E+03  0.00000000000E+00 0.  1.
        -11    1    3    3    0    0 -0.17320318770E+02  0.71436775725E+02  0.19314082573E+03  0.20665571594E+03  0.00000000000E+00 0. -1.
          4    1    6    6  502    0  0.34277838821E+02 -0.20650401884E+03  0.14788250926E+03  0.25629693049E+03  0.00000000000E+00 0. -1.
          1    1    5    5  503    0 -0.81198981909E+02  0.14448245150E+03 -0.13222423058E+03  0.21201816104E+03  0.00000000000E+00 0. -1.
         -2    1    5    5    0  503  0.16549516274E+01  0.62199006959E+02 -0.10532327421E+03  0.12232925824E+03  0.00000000000E+00 0.  1.
         -3    1    6    6    0  502 -0.46622096160E+02 -0.30704193392E+03  0.22411528748E+03  0.38298306897E+03  0.00000000000E+00 0.  1.
<mgrwt>
<rscale>  0 0.16309372E+04</rscale>
<asrwt>0</asrwt>
<pdfrwt beam="1">  1        2 0.22756768E+00 0.16309372E+04</pdfrwt>
<pdfrwt beam="2">  1       -2 0.69163538E-01 0.16309372E+04</pdfrwt>
<totfact> 0.23810139E+01</totfact>
</mgrwt>
</event>
<event>
12    1  0.1496989E-007  0.1027929E+04  0.7818608E-02  0.9278432E-01
         -2   -1    0    0    0  501 -0.00000000000E+00  0.00000000000E+00  0.83981102584E+02  0.83981102584E+02  0.00000000000E+00 0.  1.
          2   -1    0    0  501    0  0.00000000000E+00 -0.00000000000E+00 -0.31454624486E+04  0.31454624486E+04  0.00000000000E+00 0. -1.
         23    2    1    2    0    0 -0.12781926457E+02 -0.13560743296E+03 -0.52145131039E+03  0.54671620042E+03  0.91838887008E+02 0.  0.
        254    2    1    2    0    0  0.12781926457E+02  0.13560743296E+03 -0.25400300356E+04  0.26827273507E+04  0.85247915117E+03 0.  0.
        -24    2    4    4    0    0  0.25330324588E+02 -0.18513242674E+03 -0.11184762023E+03  0.23210184368E+03  0.80285334358E+02 0.  0.
         24    2    4    4    0    0 -0.12548398131E+02  0.32073985970E+03 -0.24281824154E+04  0.24506255071E+04  0.80399090296E+02 0.  0.
         13    1    3    3    0    0 -0.24115977106E+02 -0.13120106999E+03 -0.34570878992E+03  0.37055346247E+03  0.00000000000E+00 0.  1.
        -13    1    3    3    0    0  0.11334050648E+02 -0.44063629681E+01 -0.17574252047E+03  0.17616273795E+03  0.00000000000E+00 0. -1.
          2    1    6    6  502    0 -0.16083499302E+02  0.16294894824E+03 -0.15240313054E+04  0.15328021590E+04  0.00000000000E+00 0. -1.
          1    1    5    5  503    0 -0.12605979215E+02 -0.14874885957E+03 -0.69823259461E+02  0.16480419138E+03  0.00000000000E+00 0. -1.
         -2    1    5    5    0  503  0.37936303803E+02 -0.36383567167E+02 -0.42024360774E+02  0.67297652296E+02  0.00000000000E+00 0.  1.
         -1    1    6    6    0  502  0.35351011711E+01  0.15779091146E+03 -0.90415110994E+03  0.91782334808E+03  0.00000000000E+00 0.  1.
<mgrwt>
<rscale>  0 0.10279288E+04</rscale>
<asrwt>0</asrwt>
<pdfrwt beam="1">  1        2 0.48391724E+00 0.10279288E+04</pdfrwt>
<pdfrwt beam="2">  1       -2 0.12920171E-01 0.10279288E+04</pdfrwt>
<totfact> 0.64993382E+01</totfact>
</mgrwt>
</event>
<event>
12    1  0.1496989E-007  0.2211389E+04  0.7818608E-02  0.8513703E-01
          1   -1    0    0  501    0  0.00000000000E+00  0.00000000000E+00  0.27803103703E+04  0.27803103703E+04  0.00000000000E+00 0. -1.
         -1   -1    0    0    0  501 -0.00000000000E+00 -0.00000000000E+00 -0.43972075180E+03  0.43972075180E+03  0.00000000000E+00 0.  1.
         23    2    1    2    0    0  0.24361473717E+03  0.87978056538E+03  0.12027131639E+04  0.15126717495E+04  0.91076252702E+02 0.  0.
        254    2    1    2    0    0 -0.24361473717E+03 -0.87978056538E+03  0.11378764546E+04  0.17073593726E+04  0.88710270987E+03 0.  0.
        -24    2    4    4    0    0 -0.23290714703E+03 -0.35542735398E+03  0.10923914473E+04  0.11750909568E+04  0.83338703998E+02 0.  0.
         24    2    4    4    0    0 -0.10707590139E+02 -0.52435321140E+03  0.45485007359E+02  0.53226841581E+03  0.78611944298E+02 0.  0.
         11    1    3    3    0    0  0.15155597680E+03  0.58840526938E+03  0.86697738393E+03  0.10586971991E+04  0.00000000000E+00 0. -1.
        -11    1    3    3    0    0  0.92058760364E+02  0.29137529600E+03  0.33573577995E+03  0.45397455041E+03  0.00000000000E+00 0.  1.
          2    1    6    6  502    0  0.32344459686E+02 -0.14833461753E+03  0.10632348322E+02  0.15219188435E+03  0.00000000000E+00 0. -1.
          1    1    5    5  503    0  0.18919850600E+01 -0.20704450034E+02  0.93042870580E+02  0.95337451321E+02  0.00000000000E+00 0. -1.
         -2    1    5    5    0  503 -0.23479913209E+03 -0.33472290394E+03  0.99934857669E+03  0.10797535055E+04  0.00000000000E+00 0.  1.
         -1    1    6    6    0  502 -0.43052049825E+02 -0.37601859387E+03  0.34852659037E+02  0.38007653147E+03  0.00000000000E+00 0.  1.
<mgrwt>
<rscale>  0 0.22113889E+04</rscale>
<asrwt>0</asrwt>
<pdfrwt beam="1">  1        1 0.42774004E+00 0.22113889E+04</pdfrwt>
<pdfrwt beam="2">  1       -1 0.67649349E-01 0.22113889E+04</pdfrwt>
<totfact> 0.17354947E+00</totfact>
</mgrwt>
</event>
<event>
12    1  0.1496989E-007  0.2028816E+04  0.7818608E-02  0.8593266E-01
         -2   -1    0    0    0  501 -0.00000000000E+00  0.00000000000E+00  0.96130120240E+03  0.96130120240E+03  0.00000000000E+00 0.  1.
          2   -1    0    0  501    0  0.00000000000E+00 -0.00000000000E+00 -0.10704483132E+04  0.10704483132E+04  0.00000000000E+00 0. -1.
         23    2    1    2    0    0 -0.60936099377E+03 -0.95482703310E+01  0.49280427229E+03  0.78934964580E+03  0.93834014936E+02 0.  0.
        254    2    1    2    0    0  0.60936099377E+03  0.95482703310E+01 -0.60195138312E+03  0.12423998698E+04  0.89988887022E+03 0.  0.
        -24    2    4    4    0    0  0.36582273605E+03 -0.87636354855E+02  0.17090950773E+03  0.42236967631E+03  0.87633776188E+02 0.  0.
         24    2    4    4    0    0  0.24353825771E+03  0.97184625186E+02 -0.77286089085E+03  0.82003019353E+03  0.79873821384E+02 0.  0.
         11    1    3    3    0    0 -0.19755777694E+03 -0.40663179386E+02  0.13284393255E+03  0.24151621023E+03  0.00000000000E+00 0. -1.
        -11    1    3    3    0    0 -0.41180321683E+03  0.31114909055E+02  0.35996033973E+03  0.54783343558E+03  0.00000000000E+00 0.  1.
          4    1    6    6  502    0  0.15484267382E+03  0.34656552289E+02 -0.36538344624E+03  0.39834958646E+03  0.00000000000E+00 0. -1.
          3    1    5    5  503    0  0.15352738323E+03 -0.22263123279E+02  0.26388450956E+02  0.15736154042E+03  0.00000000000E+00 0. -1.
         -4    1    5    5    0  503  0.21229535282E+03 -0.65373231576E+02  0.14452105678E+03  0.26500813589E+03  0.00000000000E+00 0.  1.
         -3    1    6    6    0  502  0.88695583899E+02  0.62528072897E+02 -0.40747744461E+03  0.42168060706E+03  0.00000000000E+00 0.  1.
<mgrwt>
<rscale>  0 0.20288157E+04</rscale>
<asrwt>0</asrwt>
<pdfrwt beam="1">  1        2 0.16468435E+00 0.20288157E+04</pdfrwt>
<pdfrwt beam="2">  1       -2 0.14789249E+00 0.20288157E+04</pdfrwt>
<totfact> 0.65525079E+00</totfact>
</mgrwt>
</event>
<event>
12    1  0.1496989E-007  0.1201267E+04  0.7818608E-02  0.9111748E-01
         -2   -1    0    0    0  501 -0.00000000000E+00  0.00000000000E+00  0.22149647657E+03  0.22149647657E+03  0.00000000000E+00 0.  1.
          2   -1    0    0  501    0  0.00000000000E+00 -0.00000000000E+00 -0.16287420872E+04  0.16287420872E+04  0.00000000000E+00 0. -1.
         23    2    1    2    0    0 -0.29609868607E+02 -0.34476933301E+02  0.75890613338E+02  0.12751616847E+03  0.91845439618E+02 0.  0.
        254    2    1    2    0    0  0.29609868607E+02  0.34476933301E+02 -0.14831362240E+04  0.17227223953E+04  0.87522225134E+03 0.  0.
        -24    2    4    4    0    0  0.98685396912E+02  0.39393103319E+03 -0.39506744824E+03  0.57185451127E+03  0.77581099050E+02 0.  0.
         24    2    4    4    0    0 -0.69075528305E+02 -0.35945409989E+03 -0.10880687758E+04  0.11508678841E+04  0.81391321846E+02 0.  0.
         11    1    3    3    0    0  0.12028972611E+02 -0.66959010960E+01  0.76226044756E+02  0.77459287195E+02  0.00000000000E+00 0.  1.
        -11    1    3    3    0    0 -0.41638841218E+02 -0.27781032205E+02 -0.33543141816E+00  0.50056881271E+02  0.00000000000E+00 0. -1.
          2    1    6    6  502    0 -0.60063727009E+00  0.27250203677E+01 -0.92852428331E+00  0.29408601598E+01  0.00000000000E+00 0. -1.
          1    1    5    5  503    0  0.32809385048E+02  0.64889716094E+02 -0.38741705307E+02  0.82389627576E+02  0.00000000000E+00 0. -1.
         -2    1    5    5    0  503  0.65876011864E+02  0.32904131709E+03 -0.35632574293E+03  0.48946488369E+03  0.00000000000E+00 0.  1.
         -1    1    6    6    0  502 -0.68474891035E+02 -0.36217912025E+03 -0.10871402515E+04  0.11479270239E+04  0.00000000000E+00 0.  1.
<mgrwt>
<rscale>  0 0.12012671E+04</rscale>
<asrwt>0</asrwt>
<pdfrwt beam="1">  1        2 0.25057571E+00 0.12012671E+04</pdfrwt>
<pdfrwt beam="2">  1       -2 0.34076381E-01 0.12012671E+04</pdfrwt>
<totfact> 0.85459950E+01</totfact>
</mgrwt>
</event>
<event>
12    1  0.1496989E-007  0.2635052E+04  0.7818608E-02  0.8356391E-01
         -2   -1    0    0    0  501 -0.00000000000E+00  0.00000000000E+00  0.15931864649E+04  0.15931864649E+04  0.00000000000E+00 0.  1.
          2   -1    0    0  501    0  0.00000000000E+00 -0.00000000000E+00 -0.10895616816E+04  0.10895616816E+04  0.00000000000E+00 0. -1.
         23    2    1    2    0    0  0.49952851974E+03  0.35635334119E+03  0.11681899372E+04  0.13225043832E+04  0.88508013149E+02 0.  0.
        254    2    1    2    0    0 -0.49952851974E+03 -0.35635334119E+03 -0.66456515398E+03  0.13602437632E+04  0.10159231298E+04 0.  0.
        -24    2    4    4    0    0 -0.33042919050E+03 -0.25251023031E+03 -0.92865218400E+03  0.10206033498E+04  0.79318676936E+02 0.  0.
         24    2    4    4    0    0 -0.16909932924E+03 -0.10384311088E+03  0.26408703002E+03  0.33964041340E+03  0.78966297622E+02 0.  0.
         11    1    3    3    0    0  0.43265089084E+03  0.31584013906E+03  0.94842508935E+03  0.10892437454E+04  0.00000000000E+00 0.  1.
        -11    1    3    3    0    0  0.66877628897E+02  0.40513202128E+02  0.21976484788E+03  0.23326063782E+03  0.00000000000E+00 0. -1.
          2    1    6    6  502    0 -0.96675717371E+02 -0.42342961086E+02  0.19646916639E+03  0.22302298990E+03  0.00000000000E+00 0. -1.
          3    1    5    5  503    0 -0.56087310539E+02 -0.20684844722E+02 -0.87450813187E+02  0.10593060904E+03  0.00000000000E+00 0. -1.
         -4    1    5    5    0  503 -0.27434187996E+03 -0.23182538559E+03 -0.84120137081E+03  0.91467274080E+03  0.00000000000E+00 0.  1.
         -1    1    6    6    0  502 -0.72423611866E+02 -0.61500149792E+02  0.67617863634E+02  0.11661742350E+03  0.00000000000E+00 0.  1.
<mgrwt>
<rscale>  0 0.26350521E+04</rscale>
<asrwt>0</asrwt>
<pdfrwt beam="1">  1        2 0.16762487E+00 0.26350521E+04</pdfrwt>
<pdfrwt beam="2">  1       -2 0.24510561E+00 0.26350521E+04</pdfrwt>
<totfact> 0.13433774E+00</totfact>
</mgrwt>
</event>
<event>
12    1  0.1496989E-007  0.1577620E+04  0.7818608E-02  0.8834416E-01
          2   -1    0    0  501    0  0.00000000000E+00  0.00000000000E+00  0.58657282420E+03  0.58657282420E+03  0.00000000000E+00 0. -1.
         -2   -1    0    0    0  501 -0.00000000000E+00 -0.00000000000E+00 -0.10607738033E+04  0.10607738033E+04  0.00000000000E+00 0.  1.
         23    2    1    2    0    0  0.27684493185E+03 -0.15869107575E+03  0.27455647331E+03  0.43262165917E+03  0.99771083650E+02 0.  0.
        254    2    1    2    0    0 -0.27684493185E+03  0.15869107575E+03 -0.74875745242E+03  0.12147249683E+04  0.90171672511E+03 0.  0.
        -24    2    4    4    0    0 -0.10976303153E+03  0.52175849324E+03 -0.34035583497E+03  0.63773759581E+03  0.81162173208E+02 0.  0.
         24    2    4    4    0    0 -0.16708190032E+03 -0.36306741749E+03 -0.40840161745E+03  0.57698737253E+03  0.79926440306E+02 0.  0.
         11    1    3    3    0    0  0.16290171086E+03 -0.13825538945E+03  0.21220954956E+03  0.30113852799E+03  0.00000000000E+00 0. -1.
        -11    1    3    3    0    0  0.11394322099E+03 -0.20435686293E+02  0.62346923753E+02  0.13148313119E+03  0.00000000000E+00 0.  1.
          2    1    6    6  502    0 -0.64328966296E+02 -0.63612713067E+02 -0.10315572689E+03  0.13720749673E+03  0.00000000000E+00 0. -1.
          3    1    5    5  503    0  0.59996903203E+01  0.13991992985E+02 -0.23892500408E+02  0.28330614667E+02  0.00000000000E+00 0. -1.
         -4    1    5    5    0  503 -0.11576272185E+03  0.50776650025E+03 -0.31646333456E+03  0.60940698114E+03  0.00000000000E+00 0.  1.
         -1    1    6    6    0  502 -0.10275293403E+03 -0.29945470442E+03 -0.30524589056E+03  0.43977987580E+03  0.00000000000E+00 0.  1.
<mgrwt>
<rscale>  0 0.15776198E+04</rscale>
<asrwt>0</asrwt>
<pdfrwt beam="1">  1        2 0.90241974E-01 0.15776198E+04</pdfrwt>
<pdfrwt beam="2">  1       -2 0.16319597E+00 0.15776198E+04</pdfrwt>
<totfact> 0.11673314E+01</totfact>
</mgrwt>
</event>
<event>
12    1  0.1496989E-007  0.1850376E+04  0.7818608E-02  0.8679959E-01
          2   -1    0    0  501    0  0.00000000000E+00  0.00000000000E+00  0.81509830038E+03  0.81509830038E+03  0.00000000000E+00 0. -1.
         -2   -1    0    0    0  501 -0.00000000000E+00 -0.00000000000E+00 -0.10501471408E+04  0.10501471408E+04  0.00000000000E+00 0.  1.
         23    2    1    2    0    0 -0.56296067871E+03 -0.30685572842E+03 -0.36939338383E+03  0.74505348071E+03  0.86994558789E+02 0.  0.
        254    2    1    2    0    0  0.56296067871E+03  0.30685572842E+03  0.13434454344E+03  0.11201919604E+04  0.90867838537E+03 0.  0.
        -24    2    4    4    0    0  0.19100810730E+03 -0.24151034987E+03 -0.19553685489E+03  0.37549637117E+03  0.89171278952E+02 0.  0.
         24    2    4    4    0    0  0.37195257141E+03  0.54836607829E+03  0.32988139832E+03  0.74469558927E+03  0.81827333584E+02 0.  0.
         13    1    3    3    0    0 -0.34172970019E+03 -0.22083904770E+03 -0.26623913658E+03  0.48624309849E+03  0.00000000000E+00 0.  1.
        -13    1    3    3    0    0 -0.22123097852E+03 -0.86016680722E+02 -0.10315424726E+03  0.25881038222E+03  0.00000000000E+00 0. -1.
          4    1    6    6  502    0  0.20925567780E+03  0.23575637019E+03  0.15460452034E+03  0.35110050197E+03  0.00000000000E+00 0. -1.
          1    1    5    5  503    0 -0.10275218052E+01 -0.47538151440E+02 -0.26348677967E+02  0.54361608457E+02  0.00000000000E+00 0. -1.
         -2    1    5    5    0  503  0.19203562911E+03 -0.19397219843E+03 -0.16918817692E+03  0.32113476271E+03  0.00000000000E+00 0.  1.
         -3    1    6    6    0  502  0.16269689361E+03  0.31260970810E+03  0.17527687798E+03  0.39359508730E+03  0.00000000000E+00 0.  1.
<mgrwt>
<rscale>  0 0.18503763E+04</rscale>
<asrwt>0</asrwt>
<pdfrwt beam="1">  1        2 0.12539974E+00 0.18503763E+04</pdfrwt>
<pdfrwt beam="2">  1       -2 0.16156110E+00 0.18503763E+04</pdfrwt>
<totfact> 0.77453530E+00</totfact>
</mgrwt>
</event>
<event>
12    1  0.1496989E-007  0.2372411E+04  0.7818608E-02  0.8449905E-01
          2   -1    0    0  501    0  0.00000000000E+00  0.00000000000E+00  0.69572357752E+03  0.69572357752E+03  0.00000000000E+00 0. -1.
         -2   -1    0    0    0  501 -0.00000000000E+00 -0.00000000000E+00 -0.20224757232E+04  0.20224757232E+04  0.00000000000E+00 0.  1.
         23    2    1    2    0    0 -0.47405645673E+03 -0.25195392823E+03 -0.15545617071E+04  0.16470263345E+04  0.88449642564E+02 0.  0.
        254    2    1    2    0    0  0.47405645673E+03  0.25195392823E+03  0.22780956142E+03  0.10711729662E+04  0.89850098561E+03 0.  0.
        -24    2    4    4    0    0 -0.16391591069E+03  0.22640024418E+03 -0.14788314641E+03  0.32593334595E+03  0.78978634250E+02 0.  0.
         24    2    4    4    0    0  0.63797236742E+03  0.25553684053E+02  0.37569270783E+03  0.74523962026E+03  0.81088522758E+02 0.  0.
         11    1    3    3    0    0 -0.86113041037E+02 -0.18385982496E+02 -0.19299661532E+03  0.21213484795E+03  0.00000000000E+00 0. -1.
        -11    1    3    3    0    0 -0.38794341570E+03 -0.23356794573E+03 -0.13615650918E+04  0.14348914865E+04  0.00000000000E+00 0.  1.
          2    1    6    6  502    0  0.20800334322E+03 -0.92998327603E+01  0.84107037057E+02  0.22455705592E+03  0.00000000000E+00 0. -1.
          1    1    5    5  503    0 -0.21470813284E+02  0.80817519451E+02 -0.65518602805E+02  0.10623160823E+03  0.00000000000E+00 0. -1.
         -2    1    5    5    0  503 -0.14244509741E+03  0.14558272472E+03 -0.82364543607E+02  0.21970173772E+03  0.00000000000E+00 0.  1.
         -1    1    6    6    0  502  0.42996902420E+03  0.34853516814E+02  0.29158567077E+03  0.52068256434E+03  0.00000000000E+00 0.  1.
<mgrwt>
<rscale>  0 0.23724115E+04</rscale>
<asrwt>0</asrwt>
<pdfrwt beam="1">  1        2 0.10703440E+00 0.23724115E+04</pdfrwt>
<pdfrwt beam="2">  1       -2 0.31115011E+00 0.23724115E+04</pdfrwt>
<totfact> 0.10108203E+00</totfact>
</mgrwt>
</event>
<event>
12    1  0.1496989E-007  0.1927060E+04  0.7818608E-02  0.8641503E-01
         -2   -1    0    0    0  501 -0.00000000000E+00  0.00000000000E+00  0.29272274852E+03  0.29272274852E+03  0.00000000000E+00 0.  1.
          2   -1    0    0  501    0  0.00000000000E+00 -0.00000000000E+00 -0.31715668008E+04  0.31715668008E+04  0.00000000000E+00 0. -1.
         23    2    1    2    0    0 -0.21306391874E+03 -0.35541271342E+03 -0.23557198083E+04  0.23934840865E+04  0.87383217238E+02 0.  0.
        254    2    1    2    0    0  0.21306391874E+03  0.35541271342E+03 -0.52312424398E+03  0.10708054628E+04  0.83740726906E+03 0.  0.
        -24    2    4    4    0    0  0.36067457050E+03 -0.47559455773E+02  0.20761073024E+02  0.37359718424E+03  0.82436559139E+02 0.  0.
         24    2    4    4    0    0 -0.14761065176E+03  0.40297216919E+03 -0.54388531700E+03  0.69720827860E+03  0.78183579094E+02 0.  0.
         13    1    3    3    0    0 -0.41408368404E+02 -0.36422032948E+02 -0.19662035387E+03  0.20420769088E+03  0.00000000000E+00 0.  1.
        -13    1    3    3    0    0 -0.17165555034E+03 -0.31899068047E+03 -0.21590994545E+04  0.21892763956E+04  0.00000000000E+00 0. -1.
          4    1    6    6  502    0 -0.21139475005E+02  0.14067408430E+03 -0.21654998677E+03  0.25909452362E+03  0.00000000000E+00 0. -1.
          1    1    5    5  503    0  0.25537720358E+03 -0.30837048805E+02  0.52129838872E+02  0.26246134913E+03  0.00000000000E+00 0. -1.
         -2    1    5    5    0  503  0.10529736692E+03 -0.16722406968E+02 -0.31368765848E+02  0.11113583511E+03  0.00000000000E+00 0.  1.
         -3    1    6    6    0  502 -0.12647117675E+03  0.26229808490E+03 -0.32733533023E+03  0.43811375498E+03  0.00000000000E+00 0.  1.
<mgrwt>
<rscale>  0 0.19270597E+04</rscale>
<asrwt>0</asrwt>
<pdfrwt beam="1">  1        2 0.48793336E+00 0.19270597E+04</pdfrwt>
<pdfrwt beam="2">  1       -2 0.45034269E-01 0.19270597E+04</pdfrwt>
<totfact> 0.59369269E+00</totfact>
</mgrwt>
</event>
<event>
12    1  0.1496989E-007  0.1615851E+04  0.7818608E-02  0.8810869E-01
         -2   -1    0    0    0  501 -0.00000000000E+00  0.00000000000E+00  0.71562967371E+03  0.71562967371E+03  0.00000000000E+00 0.  1.
          2   -1    0    0  501    0  0.00000000000E+00 -0.00000000000E+00 -0.91212468115E+03  0.91212468115E+03  0.00000000000E+00 0. -1.
         23    2    1    2    0    0  0.41854542421E+02  0.47151065777E+03  0.22023214770E+03  0.52987227416E+03  0.90489363648E+02 0.  0.
        254    2    1    2    0    0 -0.41854542421E+02 -0.47151065777E+03 -0.41672715514E+03  0.10978820807E+04  0.89867092875E+03 0.  0.
        -24    2    4    4    0    0  0.21430076353E+03  0.15525420139E+03  0.36194902985E+02  0.27943291505E+03  0.82121852864E+02 0.  0.
         24    2    4    4    0    0 -0.25615530595E+03 -0.62676485916E+03 -0.45292205812E+03  0.81844916565E+03  0.79189119028E+02 0.  0.
         11    1    3    3    0    0 -0.99763155770E+01  0.20813442011E+02 -0.46211976067E+01  0.23538940251E+02  0.00000000000E+00 0. -1.
        -11    1    3    3    0    0  0.51830857998E+02  0.45069721576E+03  0.22485334531E+03  0.50633333391E+03  0.00000000000E+00 0.  1.
          4    1    6    6  502    0 -0.13046179702E+03 -0.26909578012E+03 -0.24135884921E+03  0.38430055094E+03  0.00000000000E+00 0. -1.
          3    1    5    5  503    0  0.18499397189E+03  0.97903168129E+02  0.45965018999E+02  0.21429088393E+03  0.00000000000E+00 0. -1.
         -4    1    5    5    0  503  0.29306791637E+02  0.57351033259E+02 -0.97701160139E+01  0.65142031123E+02  0.00000000000E+00 0.  1.
         -3    1    6    6    0  502 -0.12569350893E+03 -0.35766907904E+03 -0.21156320891E+03  0.43414861471E+03  0.00000000000E+00 0.  1.
<mgrwt>
<rscale>  0 0.16158508E+04</rscale>
<asrwt>0</asrwt>
<pdfrwt beam="1">  1        2 0.14032687E+00 0.16158508E+04</pdfrwt>
<pdfrwt beam="2">  1       -2 0.11009687E+00 0.16158508E+04</pdfrwt>
<totfact> 0.18070063E+01</totfact>
</mgrwt>
</event>
<event>
12    1  0.1496989E-007  0.1755512E+04  0.7818608E-02  0.8730322E-01
          1   -1    0    0  501    0  0.00000000000E+00  0.00000000000E+00  0.73772101789E+03  0.73772101789E+03  0.00000000000E+00 0. -1.
         -1   -1    0    0    0  501 -0.00000000000E+00 -0.00000000000E+00 -0.10443726620E+04  0.10443726620E+04  0.00000000000E+00 0.  1.
         23    2    1    2    0    0 -0.14607636154E+03 -0.34076374944E+03 -0.64530349780E+03  0.74975345310E+03  0.90859230804E+02 0.  0.
        254    2    1    2    0    0  0.14607636154E+03  0.34076374944E+03  0.33865185370E+03  0.10323402268E+04  0.90198837549E+03 0.  0.
        -24    2    4    4    0    0  0.19016812345E+03  0.32818349151E+03 -0.23387598838E+03  0.45244234935E+03  0.78343999555E+02 0.  0.
         24    2    4    4    0    0 -0.44091761914E+02  0.12580257932E+02  0.57252784208E+03  0.57989787744E+03  0.79944180215E+02 0.  0.
         13    1    3    3    0    0 -0.15337652925E+03 -0.32828689105E+03 -0.58822455305E+03  0.69087246824E+03  0.00000000000E+00 0.  1.
        -13    1    3    3    0    0  0.73001677072E+01 -0.12476858386E+02 -0.57078944747E+02  0.58880984852E+02  0.00000000000E+00 0. -1.
          2    1    6    6  502    0 -0.42598768211E+02  0.17226707648E+02  0.57314017137E+03  0.57497919141E+03  0.00000000000E+00 0. -1.
          3    1    5    5  503    0  0.11646333145E+03  0.23528159479E+03 -0.19709974371E+03  0.32828256943E+03  0.00000000000E+00 0. -1.
         -4    1    5    5    0  503  0.73704792008E+02  0.92901896713E+02 -0.36776244678E+02  0.12415977992E+03  0.00000000000E+00 0.  1.
         -1    1    6    6    0  502 -0.14929937023E+01 -0.46464497165E+01 -0.61232929438E+00  0.49186860368E+01  0.00000000000E+00 0.  1.
<mgrwt>
<rscale>  0 0.17555121E+04</rscale>
<asrwt>0</asrwt>
<pdfrwt beam="1">  1        1 0.11349554E+00 0.17555121E+04</pdfrwt>
<pdfrwt beam="2">  1       -1 0.16067272E+00 0.17555121E+04</pdfrwt>
<totfact> 0.68752427E+00</totfact>
</mgrwt>
</event>
<event>
12    1  0.1496989E-007  0.1490160E+04  0.7818608E-02  0.8891023E-01
         -2   -1    0    0    0  501 -0.00000000000E+00  0.00000000000E+00  0.18718736652E+04  0.18718736652E+04  0.00000000000E+00 0.  1.
          2   -1    0    0  501    0  0.00000000000E+00 -0.00000000000E+00 -0.29657151552E+03  0.29657151552E+03  0.00000000000E+00 0. -1.
         23    2    1    2    0    0  0.35661715620E+03 -0.19199590468E+03  0.65657175706E+03  0.77757695329E+03  0.97474215111E+02 0.  0.
        254    2    1    2    0    0 -0.35661715620E+03  0.19199590468E+03  0.91873039260E+03  0.13908682274E+04  0.96250229518E+03 0.  0.
        -24    2    4    4    0    0  0.19504550964E+03 -0.14846230371E+03  0.62260479588E+03  0.67381643064E+03  0.79423194927E+02 0.  0.
         24    2    4    4    0    0 -0.55166266584E+03  0.34045820839E+03  0.29612559672E+03  0.71705179677E+03  0.78926685466E+02 0.  0.
         13    1    3    3    0    0  0.51787271402E+02 -0.65041575573E+02  0.96186318012E+02  0.12713825469E+03  0.00000000000E+00 0. -1.
        -13    1    3    3    0    0  0.30482988480E+03 -0.12695432911E+03  0.56038543905E+03  0.65043869861E+03  0.00000000000E+00 0.  1.
          4    1    6    6  502    0 -0.38862769444E+03  0.27913209412E+03  0.22780860667E+03  0.52994619739E+03  0.00000000000E+00 0. -1.
          3    1    5    5  503    0 -0.65657488427E+01 -0.13170159933E+02  0.30526364057E+02  0.33888361911E+02  0.00000000000E+00 0. -1.
         -4    1    5    5    0  503  0.20161125848E+03 -0.13529214378E+03  0.59207843183E+03  0.63992806873E+03  0.00000000000E+00 0.  1.
         -3    1    6    6    0  502 -0.16303497140E+03  0.61326114267E+02  0.68316990044E+02  0.18710559938E+03  0.00000000000E+00 0.  1.
<mgrwt>
<rscale>  0 0.14901603E+04</rscale>
<asrwt>0</asrwt>
<pdfrwt beam="1">  1        2 0.45626388E-01 0.14901603E+04</pdfrwt>
<pdfrwt beam="2">  1       -2 0.28798056E+00 0.14901603E+04</pdfrwt>
<totfact> 0.40598751E+00</totfact>
</mgrwt>
</event>
<event>
12    1  0.1496989E-007  0.1366019E+04  0.7818608E-02  0.8978790E-01
         -2   -1    0    0    0  501 -0.00000000000E+00  0.00000000000E+00  0.33804553545E+03  0.33804553545E+03  0.00000000000E+00 0. -1.
          2   -1    0    0  501    0  0.00000000000E+00 -0.00000000000E+00 -0.13799972250E+04  0.13799972250E+04  0.00000000000E+00 0.  1.
         23    2    1    2    0    0 -0.16745482021E+03 -0.11048558042E+03  0.11150083600E+03  0.24759134793E+03  0.92848580240E+02 0.  0.
        254    2    1    2    0    0  0.16745482021E+03  0.11048558042E+03 -0.11534525256E+04  0.14704514126E+04  0.88967772121E+03 0.  0.
        -24    2    4    4    0    0  0.35329174746E+03 -0.22145303951E+03 -0.93030309661E+03  0.10225238677E+04  0.78960122844E+02 0.  0.
         24    2    4    4    0    0 -0.18583692725E+03  0.33193861994E+03 -0.22314942897E+03  0.44792754481E+03  0.78261145014E+02 0.  0.
         13    1    3    3    0    0 -0.84145555918E+02 -0.60231260425E+01  0.23401114450E+02  0.87546357923E+02  0.00000000000E+00 0.  1.
        -13    1    3    3    0    0 -0.83309264289E+02 -0.10446245438E+03  0.88099721545E+02  0.16004499001E+03  0.00000000000E+00 0. -1.
          4    1    6    6  502    0 -0.18141394385E+03  0.33256290129E+03 -0.20808212474E+03  0.43221206945E+03  0.00000000000E+00 0. -1.
          1    1    5    5  503    0  0.30910957837E+03 -0.21771214780E+03 -0.85950656514E+03  0.93898820348E+03  0.00000000000E+00 0. -1.
         -2    1    5    5    0  503  0.44182169085E+02 -0.37408917096E+01 -0.70796531464E+02  0.83535664259E+02  0.00000000000E+00 0.  1.
         -3    1    6    6    0  502 -0.44229833984E+01 -0.62428135512E+00 -0.15067304225E+02  0.15715475365E+02  0.00000000000E+00 0.  1.
<mgrwt>
<rscale>  0 0.13660189E+04</rscale>
<asrwt>0</asrwt>
<pdfrwt beam="1">  1        2 0.21230727E+00 0.13660189E+04</pdfrwt>
<pdfrwt beam="2">  1       -2 0.52007004E-01 0.13660189E+04</pdfrwt>
<totfact> 0.50594579E+01</totfact>
</mgrwt>
</event>
<event>
12    1  0.1496989E-007  0.1473859E+04  0.7818608E-02  0.8902025E-01
         -1   -1    0    0    0  501 -0.00000000000E+00  0.00000000000E+00  0.38547973371E+03  0.38547973371E+03  0.00000000000E+00 0.  1.
          1   -1    0    0  501    0  0.00000000000E+00 -0.00000000000E+00 -0.14088039127E+04  0.14088039127E+04  0.00000000000E+00 0. -1.
         23    2    1    2    0    0 -0.29820003507E+03 -0.16786167445E+03 -0.22898896195E+03  0.42147909486E+03  0.90043767395E+02 0.  0.
        254    2    1    2    0    0  0.29820003507E+03  0.16786167445E+03 -0.79433521704E+03  0.13728045516E+04  0.10660783729E+04 0.  0.
        -24    2    4    4    0    0  0.35700387892E+03 -0.24886367781E+03  0.29790558765E+02  0.44386108603E+03  0.82099248500E+02 0.  0.
         24    2    4    4    0    0 -0.58803843850E+02  0.41672535226E+03 -0.82412577581E+03  0.92894346552E+03  0.81454014777E+02 0.  0.
         13    1    3    3    0    0 -0.15738064278E+02 -0.17338691351E+02 -0.48923754803E+02  0.54238829900E+02  0.00000000000E+00 0. -1.
        -13    1    3    3    0    0 -0.28246197079E+03 -0.15052298310E+03 -0.18006520715E+03  0.36724026496E+03  0.00000000000E+00 0.  1.
          2    1    6    6  502    0  0.12469059738E+02  0.10176877472E+03 -0.25048695778E+03  0.27065859856E+03  0.00000000000E+00 0. -1.
          3    1    5    5  503    0  0.19233620456E+02 -0.21154706205E+02  0.22592484818E+02  0.36440007145E+02  0.00000000000E+00 0. -1.
         -4    1    5    5    0  503  0.33777025846E+03 -0.22770897160E+03  0.71980739471E+01  0.40742107889E+03  0.00000000000E+00 0.  1.
         -1    1    6    6    0  502 -0.71272903588E+02  0.31495657754E+03 -0.57363881803E+03  0.65828486696E+03  0.00000000000E+00 0.  1.
<mgrwt>
<rscale>  0 0.14738594E+04</rscale>
<asrwt>0</asrwt>
<pdfrwt beam="1">  1        1 0.21673907E+00 0.14738594E+04</pdfrwt>
<pdfrwt beam="2">  1       -1 0.59304574E-01 0.14738594E+04</pdfrwt>
<totfact> 0.21161358E+01</totfact>
</mgrwt>
</event>
<event>
12    1  0.1496989E-007  0.1806982E+04  0.7818608E-02  0.8702595E-01
          1   -1    0    0  501    0  0.00000000000E+00  0.00000000000E+00  0.61819430583E+03  0.61819430583E+03  0.00000000000E+00 0. -1.
         -1   -1    0    0    0  501 -0.00000000000E+00 -0.00000000000E+00 -0.13204520879E+04  0.13204520879E+04  0.00000000000E+00 0.  1.
         23    2    1    2    0    0 -0.25428828871E+03  0.27457378840E+03  0.33968895345E+03  0.51333963227E+03  0.89864864706E+02 0.  0.
        254    2    1    2    0    0  0.25428828871E+03 -0.27457378840E+03 -0.10419467355E+04  0.14253067614E+04  0.89765977158E+03 0.  0.
        -24    2    4    4    0    0  0.34233439600E+03 -0.54314932976E+03 -0.53519317444E+03  0.83951762971E+03  0.78447966952E+02 0.  0.
         24    2    4    4    0    0 -0.88046107291E+02  0.26857554136E+03 -0.50675356106E+03  0.58578913173E+03  0.80403959957E+02 0.  0.
         13    1    3    3    0    0 -0.19072406588E+02  0.12221029595E+02 -0.17132237885E+01  0.22716632522E+02  0.00000000000E+00 0.  1.
        -13    1    3    3    0    0 -0.23521588212E+03  0.26235275880E+03  0.34140217724E+03  0.49062299974E+03  0.00000000000E+00 0. -1.
          4    1    6    6  502    0 -0.12209226650E+02  0.10154987554E+03 -0.25112036058E+03  0.27115102422E+03  0.00000000000E+00 0. -1.
          3    1    5    5  503    0  0.42934186517E+02 -0.29893960089E+02 -0.36629453860E+02  0.63864779901E+02  0.00000000000E+00 0. -1.
         -4    1    5    5    0  503  0.29940020948E+03 -0.51325536967E+03 -0.49856372058E+03  0.77565284981E+03  0.00000000000E+00 0.  1.
         -3    1    6    6    0  502 -0.75836880641E+02  0.16702566582E+03 -0.25563320047E+03  0.31463810750E+03  0.00000000000E+00 0.  1.
<mgrwt>
<rscale>  0 0.18069820E+04</rscale>
<asrwt>0</asrwt>
<pdfrwt beam="1">  1        1 0.95106816E-01 0.18069820E+04</pdfrwt>
<pdfrwt beam="2">  1       -1 0.20314648E+00 0.18069820E+04</pdfrwt>
<totfact> 0.44269910E+00</totfact>
</mgrwt>
</event>
<event>
12    1  0.1496989E-007  0.2313729E+04  0.7818608E-02  0.8472527E-01
         -2   -1    0    0    0  501 -0.00000000000E+00  0.00000000000E+00  0.70236872641E+03  0.70236872641E+03  0.00000000000E+00 0. -1.
          2   -1    0    0  501    0  0.00000000000E+00 -0.00000000000E+00 -0.19054607590E+04  0.19054607590E+04  0.00000000000E+00 0.  1.
         23    2    1    2    0    0  0.50862693220E+02  0.49658872612E+03 -0.14331509026E+04  0.15203708320E+04  0.91752824305E+02 0.  0.
        254    2    1    2    0    0 -0.50862693220E+02 -0.49658872612E+03  0.23005886993E+03  0.10874586535E+04  0.93832396478E+03 0.  0.
        -24    2    4    4    0    0  0.20520551263E+03 -0.32996055483E+03 -0.28173999479E+03  0.48605202598E+03  0.76719470394E+02 0.  0.
         24    2    4    4    0    0 -0.25606820585E+03 -0.16662817130E+03  0.51179886472E+03  0.60140662748E+03  0.80099813570E+02 0.  0.
         11    1    3    3    0    0  0.45315467543E+02  0.26642345381E+03 -0.64626578359E+03  0.70049583252E+03  0.00000000000E+00 0.  1.
        -11    1    3    3    0    0  0.55472256766E+01  0.23016527231E+03 -0.78688511897E+03  0.81987499947E+03  0.00000000000E+00 0. -1.
          2    1    6    6  502    0 -0.18644073757E+02 -0.25051827602E+02  0.19526151049E+02  0.36830233874E+02  0.00000000000E+00 0. -1.
          1    1    5    5  503    0 -0.23719939968E+01 -0.33637104576E+02 -0.31524068233E+02  0.46161109581E+02  0.00000000000E+00 0. -1.
         -2    1    5    5    0  503  0.20757750662E+03 -0.29632345025E+03 -0.25021592656E+03  0.43989091640E+03  0.00000000000E+00 0.  1.
         -1    1    6    6    0  502 -0.23742413209E+03 -0.14157634369E+03  0.49227271367E+03  0.56457639361E+03  0.00000000000E+00 0.  1.
<mgrwt>
<rscale>  0 0.23137295E+04</rscale>
<asrwt>0</asrwt>
<pdfrwt beam="1">  1        2 0.29314780E+00 0.23137295E+04</pdfrwt>
<pdfrwt beam="2">  1       -2 0.10805673E+00 0.23137295E+04</pdfrwt>
<totfact> 0.46843578E+00</totfact>
</mgrwt>
</event>
<event>
12    1  0.1496989E-007  0.1378952E+04  0.7818608E-02  0.8969197E-01
          2   -1    0    0  501    0  0.00000000000E+00  0.00000000000E+00  0.28378088034E+04  0.28378088034E+04  0.00000000000E+00 0. -1.
         -2   -1    0    0    0  501 -0.00000000000E+00 -0.00000000000E+00 -0.16751545835E+03  0.16751545835E+03  0.00000000000E+00 0.  1.
         23    2    1    2    0    0  0.52753310679E+02  0.46133195216E+02 -0.72609710214E+02  0.13567873697E+03  0.90693804420E+02 0.  0.
        254    2    1    2    0    0 -0.52753310679E+02 -0.46133195216E+02  0.27429030552E+04  0.28696455247E+04  0.84049811651E+03 0.  0.
        -24    2    4    4    0    0  0.26026689862E+03 -0.14230789843E+03  0.22595258133E+04  0.22803104848E+04  0.79803571012E+02 0.  0.
         24    2    4    4    0    0 -0.31302020929E+03  0.96174703217E+02  0.48337724195E+03  0.58933503990E+03  0.80193554986E+02 0.  0.
         13    1    3    3    0    0  0.10585776834E+02  0.23461719321E+02  0.19216405332E+02  0.32121350821E+02  0.00000000000E+00 0. -1.
        -13    1    3    3    0    0  0.42167533845E+02  0.22671475895E+02 -0.91826115547E+02  0.10355738615E+03  0.00000000000E+00 0.  1.
          2    1    6    6  502    0 -0.15770733137E+02  0.13583496007E+02  0.73414854092E+01  0.22070903821E+02  0.00000000000E+00 0. -1.
          1    1    5    5  503    0  0.66417282404E+02 -0.58261063767E+02  0.45857787088E+03  0.46701099624E+03  0.00000000000E+00 0. -1.
         -2    1    5    5    0  503  0.19384961621E+03 -0.84046834666E+02  0.18009479424E+04  0.18132994886E+04  0.00000000000E+00 0.  1.
         -1    1    6    6    0  502 -0.29724947616E+03  0.82591207210E+02  0.47603575654E+03  0.56726413608E+03  0.00000000000E+00 0.  1.
<mgrwt>
<rscale>  0 0.13789515E+04</rscale>
<asrwt>0</asrwt>
<pdfrwt beam="1">  1        2 0.43658593E+00 0.13789515E+04</pdfrwt>
<pdfrwt beam="2">  1       -2 0.25771611E-01 0.13789515E+04</pdfrwt>
<totfact> 0.29238197E+01</totfact>
</mgrwt>
</event>
<event>
12    1  0.1496989E-007  0.1415895E+04  0.7818608E-02  0.8942393E-01
         -2   -1    0    0    0  501 -0.00000000000E+00  0.00000000000E+00  0.84497156628E+03  0.84497156628E+03  0.00000000000E+00 0. -1.
          2   -1    0    0  501    0  0.00000000000E+00 -0.00000000000E+00 -0.59314345203E+03  0.59314345203E+03  0.00000000000E+00 0.  1.
         23    2    1    2    0    0  0.36157834457E+03 -0.20481698449E+03  0.16656159819E+03  0.45728826020E+03  0.93171296702E+02 0.  0.
        254    2    1    2    0    0 -0.36157834457E+03  0.20481698449E+03  0.85266516050E+02  0.98082675810E+03  0.88434261135E+03 0.  0.
        -24    2    4    4    0    0 -0.22522897790E+03  0.35115495629E+03  0.41072456384E+03  0.59082616832E+03  0.79642940752E+02 0.  0.
         24    2    4    4    0    0 -0.13634936667E+03 -0.14633797180E+03 -0.32545804779E+03  0.39000058979E+03  0.78559323940E+02 0.  0.
         11    1    3    3    0    0  0.71962197830E+02 -0.42342877654E+02 -0.47427363660E+01  0.83629963248E+02  0.00000000000E+00 0.  1.
        -11    1    3    3    0    0  0.28961614674E+03 -0.16247410684E+03  0.17130433456E+03  0.37365829696E+03  0.00000000000E+00 0. -1.
          2    1    6    6  502    0 -0.74230620886E+02 -0.12523291236E+03 -0.25570521165E+03  0.29424245560E+03  0.00000000000E+00 0. -1.
          1    1    5    5  503    0 -0.11687598125E+03  0.21448766117E+03  0.28762766082E+03  0.37735212078E+03  0.00000000000E+00 0. -1.
         -2    1    5    5    0  503 -0.10835299665E+03  0.13666729512E+03  0.12309690302E+03  0.21347404753E+03  0.00000000000E+00 0.  1.
         -1    1    6    6    0  502 -0.62118745789E+02 -0.21105059444E+02 -0.69752836145E+02  0.95758134186E+02  0.00000000000E+00 0.  1.
<mgrwt>
<rscale>  0 0.14158946E+04</rscale>
<asrwt>0</asrwt>
<pdfrwt beam="1">  1        2 0.91252839E-01 0.14158946E+04</pdfrwt>
<pdfrwt beam="2">  1       -2 0.12999563E+00 0.14158946E+04</pdfrwt>
<totfact> 0.21227069E+01</totfact>
</mgrwt>
</event>
<event>
12    1  0.1496989E-007  0.1435739E+04  0.7818608E-02  0.8928347E-01
         -3   -1    0    0    0  501 -0.00000000000E+00  0.00000000000E+00  0.27109960802E+03  0.27109960802E+03  0.00000000000E+00 0.  1.
          3   -1    0    0  501    0  0.00000000000E+00 -0.00000000000E+00 -0.19009128122E+04  0.19009128122E+04  0.00000000000E+00 0. -1.
         23    2    1    2    0    0  0.30259318623E+03 -0.49324843908E+02 -0.44979444742E+02  0.32346738169E+03  0.92803124874E+02 0.  0.
        254    2    1    2    0    0 -0.30259318623E+03  0.49324843908E+02 -0.15848337594E+04  0.18485450385E+04  0.90079139531E+03 0.  0.
        -24    2    4    4    0    0  0.17742468939E+03 -0.18700774945E+03 -0.13630867944E+03  0.30240711019E+03  0.80116074793E+02 0.  0.
         24    2    4    4    0    0 -0.48001787562E+03  0.23633259336E+03 -0.14485250800E+04  0.15461379283E+04  0.77764583980E+02 0.  0.
         13    1    3    3    0    0  0.30333262654E+03 -0.51222705375E+02 -0.30825561400E+02  0.30916769415E+03  0.00000000000E+00 0.  1.
        -13    1    3    3    0    0 -0.73944030628E+00  0.18978614673E+01 -0.14153883342E+02  0.14299687541E+02  0.00000000000E+00 0. -1.
          2    1    6    6  502    0 -0.82652108927E+02  0.10912167688E+02 -0.24697249833E+03  0.26066426960E+03  0.00000000000E+00 0. -1.
          3    1    5    5  503    0  0.11253265982E+02 -0.39948725445E+02 -0.48325469615E+02  0.63701551579E+02  0.00000000000E+00 0. -1.
         -4    1    5    5    0  503  0.16617142341E+03 -0.14705902400E+03 -0.87983209829E+02  0.23870555861E+03  0.00000000000E+00 0.  1.
         -1    1    6    6    0  502 -0.39736576669E+03  0.22542042567E+03 -0.12015525816E+04  0.12854736587E+04  0.00000000000E+00 0.  1.
<mgrwt>
<rscale>  0 0.14357391E+04</rscale>
<asrwt>0</asrwt>
<pdfrwt beam="1">  1        3 0.29244814E+00 0.14357391E+04</pdfrwt>
<pdfrwt beam="2">  1       -3 0.41707630E-01 0.14357391E+04</pdfrwt>
<totfact> 0.62286352E-01</totfact>
</mgrwt>
</event>
<event>
12    1  0.1496989E-007  0.1383237E+04  0.7818608E-02  0.8966043E-01
         -2   -1    0    0    0  501 -0.00000000000E+00  0.00000000000E+00  0.53715815733E+03  0.53715815733E+03  0.00000000000E+00 0.  1.
          2   -1    0    0  501    0  0.00000000000E+00 -0.00000000000E+00 -0.89049389347E+03  0.89049389347E+03  0.00000000000E+00 0. -1.
         23    2    1    2    0    0 -0.14772512316E+03  0.17213162410E+03 -0.42985268255E+03  0.49465893643E+03  0.91989818281E+02 0.  0.
        254    2    1    2    0    0  0.14772512316E+03 -0.17213162410E+03  0.76516946401E+02  0.93299311437E+03  0.90175900348E+03 0.  0.
        -24    2    4    4    0    0  0.17727424645E+03  0.34815328420E+03  0.64019419916E+02  0.40403859193E+03  0.80695910022E+02 0.  0.
         24    2    4    4    0    0 -0.29549123289E+02 -0.52028490830E+03  0.12497526484E+02  0.52895452244E+03  0.89817382225E+02 0.  0.
         13    1    3    3    0    0 -0.51356927200E+02  0.17020233530E+02 -0.15937922729E+03  0.16831209230E+03  0.00000000000E+00 0. -1.
        -13    1    3    3    0    0 -0.96368195959E+02  0.15511139057E+03 -0.27047345525E+03  0.32634684413E+03  0.00000000000E+00 0.  1.
          4    1    6    6  502    0 -0.59184462756E+02 -0.39105753227E+03  0.21273044313E+02  0.39608248711E+03  0.00000000000E+00 0. -1.
          3    1    5    5  503    0  0.17319915308E+03  0.32927525794E+03  0.41475378815E+02  0.37435324116E+03  0.00000000000E+00 0. -1.
         -4    1    5    5    0  503  0.40750933664E+01  0.18878026254E+02  0.22544041101E+02  0.29685350771E+02  0.00000000000E+00 0.  1.
         -3    1    6    6    0  502  0.29635339467E+02 -0.12922737603E+03 -0.87755178291E+01  0.13287203534E+03  0.00000000000E+00 0.  1.
<mgrwt>
<rscale>  0 0.13832369E+04</rscale>
<asrwt>0</asrwt>
<pdfrwt beam="1">  1        2 0.13699906E+00 0.13832369E+04</pdfrwt>
<pdfrwt beam="2">  1       -2 0.82639717E-01 0.13832369E+04</pdfrwt>
<totfact> 0.37265935E+01</totfact>
</mgrwt>
</event>
<event>
12    1  0.1496989E-007  0.2272549E+04  0.7818608E-02  0.8488824E-01
         -1   -1    0    0    0  501 -0.00000000000E+00  0.00000000000E+00  0.76371505488E+03  0.76371505488E+03  0.00000000000E+00 0.  1.
          1   -1    0    0  501    0  0.00000000000E+00 -0.00000000000E+00 -0.16905782474E+04  0.16905782474E+04  0.00000000000E+00 0. -1.
         23    2    1    2    0    0  0.67445416780E+03  0.67410408404E+03 -0.32050096603E+03  0.10101108780E+04  0.91095422586E+02 0.  0.
        254    2    1    2    0    0 -0.67445416780E+03 -0.67410408404E+03 -0.60636222652E+03  0.14441824243E+04  0.89926802703E+03 0.  0.
        -24    2    4    4    0    0  0.58298556085E+02 -0.39941288298E+03 -0.50517030212E+03  0.65148086009E+03  0.79378234940E+02 0.  0.
         24    2    4    4    0    0 -0.73275272388E+03 -0.27469120106E+03 -0.10119192439E+03  0.79270156425E+03  0.75856140813E+02 0.  0.
         11    1    3    3    0    0  0.54373276319E+03  0.49173556527E+03 -0.25809184512E+03  0.77721334551E+03  0.00000000000E+00 0.  1.
        -11    1    3    3    0    0  0.13072140461E+03  0.18236851877E+03 -0.62409120911E+02  0.23289753248E+03  0.00000000000E+00 0. -1.
          4    1    6    6  502    0 -0.13946490249E+03 -0.56108666464E+02 -0.49719390608E+02  0.15833716962E+03  0.00000000000E+00 0. -1.
          1    1    5    5  503    0  0.53270239408E+01 -0.44525607427E+01  0.12695196276E+01  0.70579147996E+01  0.00000000000E+00 0. -1.
         -2    1    5    5    0  503  0.52971532144E+02 -0.39496032224E+03 -0.50643982175E+03  0.64442294529E+03  0.00000000000E+00 0.  1.
         -3    1    6    6    0  502 -0.59328782139E+03 -0.21858253459E+03 -0.51472533784E+02  0.63436439463E+03  0.00000000000E+00 0.  1.
<mgrwt>
<rscale>  0 0.22725493E+04</rscale>
<asrwt>0</asrwt>
<pdfrwt beam="1">  1        1 0.26008896E+00 0.22725493E+04</pdfrwt>
<pdfrwt beam="2">  1       -1 0.11749462E+00 0.22725493E+04</pdfrwt>
<totfact> 0.28562735E+00</totfact>
</mgrwt>
</event>
<event>
12    1  0.1496989E-007  0.2052888E+04  0.7818608E-02  0.8582285E-01
          3   -1    0    0  501    0  0.00000000000E+00  0.00000000000E+00  0.15836077708E+04  0.15836077708E+04  0.00000000000E+00 0. -1.
         -3   -1    0    0    0  501 -0.00000000000E+00 -0.00000000000E+00 -0.66530801019E+03  0.66530801019E+03  0.00000000000E+00 0.  1.
         23    2    1    2    0    0 -0.16509317950E+03 -0.41325090578E+03 -0.39235268934E+03  0.60061407509E+03  0.93619257194E+02 0.  0.
        254    2    1    2    0    0  0.16509317950E+03  0.41325090578E+03  0.13106524500E+04  0.16483017059E+04  0.89501765353E+03 0.  0.
        -24    2    4    4    0    0 -0.44465484144E+02  0.14953311432E+03 -0.95979364407E+02  0.19971796115E+03  0.79610891554E+02 0.  0.
         24    2    4    4    0    0  0.20955866364E+03  0.26371779146E+03  0.14066318144E+04  0.14485837448E+04  0.79497782429E+02 0.  0.
         13    1    3    3    0    0  0.91427877391E+01 -0.36404441516E+02 -0.18173643303E+02  0.41703180222E+02  0.00000000000E+00 0. -1.
        -13    1    3    3    0    0 -0.17423596724E+03 -0.37684646427E+03 -0.37417904603E+03  0.55891089486E+03  0.00000000000E+00 0.  1.
          4    1    6    6  502    0  0.81159125721E+02  0.11576213387E+03  0.43493045132E+03  0.45733157863E+03  0.00000000000E+00 0. -1.
          1    1    5    5  503    0 -0.37060628828E+02  0.19190248309E+02 -0.85705670588E+01  0.42605286749E+02  0.00000000000E+00 0. -1.
         -2    1    5    5    0  503 -0.74048553158E+01  0.13034286602E+03 -0.87408797348E+02  0.15711267440E+03  0.00000000000E+00 0.  1.
         -3    1    6    6    0  502  0.12839953792E+03  0.14795565759E+03  0.97170136305E+03  0.99125216615E+03  0.00000000000E+00 0.  1.
<mgrwt>
<rscale>  0 0.20528877E+04</rscale>
<asrwt>0</asrwt>
<pdfrwt beam="1">  1        3 0.24363196E+00 0.20528877E+04</pdfrwt>
<pdfrwt beam="2">  1       -3 0.10235508E+00 0.20528877E+04</pdfrwt>
<totfact> 0.16079723E-01</totfact>
</mgrwt>
</event>
<event>
12    1  0.1496989E-007  0.1431764E+04  0.7818608E-02  0.8931142E-01
          2   -1    0    0  501    0  0.00000000000E+00  0.00000000000E+00  0.34039114839E+04  0.34039114839E+04  0.00000000000E+00 0. -1.
         -2   -1    0    0    0  501 -0.00000000000E+00 -0.00000000000E+00 -0.15055821752E+03  0.15055821752E+03  0.00000000000E+00 0.  1.
         23    2    1    2    0    0 -0.27711713539E+03 -0.32729485314E+03  0.96096501314E+03  0.10560786651E+04  0.89064936245E+02 0.  0.
        254    2    1    2    0    0  0.27711713539E+03  0.32729485314E+03  0.22923882532E+04  0.24983910362E+04  0.89610157845E+03 0.  0.
        -24    2    4    4    0    0  0.49617902154E+03  0.23214785150E+03  0.72892791583E+03  0.91504233204E+03  0.76683222279E+02 0.  0.
         24    2    4    4    0    0 -0.21906188614E+03  0.95147001641E+02  0.15634603374E+04  0.15833487042E+04  0.74456904725E+02 0.  0.
         13    1    3    3    0    0 -0.23040455730E+03 -0.29870873393E+03  0.77047161206E+03  0.85786926320E+03  0.00000000000E+00 0.  1.
        -13    1    3    3    0    0 -0.46712578089E+02 -0.28586119210E+02  0.19049340108E+03  0.19820940194E+03  0.00000000000E+00 0. -1.
          2    1    6    6  502    0 -0.21305286301E+03  0.92744879743E+02  0.15568610144E+04  0.15741058901E+04  0.00000000000E+00 0. -1.
          1    1    5    5  503    0  0.28784381909E+03  0.96477377789E+02  0.42720963861E+03  0.52408970981E+03  0.00000000000E+00 0. -1.
         -2    1    5    5    0  503  0.20833520245E+03  0.13567047371E+03  0.30171827722E+03  0.39095262222E+03  0.00000000000E+00 0.  1.
         -1    1    6    6    0  502 -0.60090231322E+01  0.24021218977E+01  0.65993230285E+01  0.92428141304E+01  0.00000000000E+00 0.  1.
<mgrwt>
<rscale>  0 0.14317637E+04</rscale>
<asrwt>0</asrwt>
<pdfrwt beam="1">  1        2 0.52367863E+00 0.14317637E+04</pdfrwt>
<pdfrwt beam="2">  1       -2 0.23162805E-01 0.14317637E+04</pdfrwt>
<totfact> 0.15372750E+01</totfact>
</mgrwt>
</event>
<event>
12    1  0.1496989E-007  0.1310260E+04  0.7818608E-02  0.9021468E-01
         -1   -1    0    0    0  501 -0.00000000000E+00  0.00000000000E+00  0.19749743555E+03  0.19749743555E+03  0.00000000000E+00 0.  1.
          1   -1    0    0  501    0  0.00000000000E+00 -0.00000000000E+00 -0.21731699120E+04  0.21731699120E+04  0.00000000000E+00 0. -1.
         23    2    1    2    0    0  0.92024446265E+02  0.81557033896E+02  0.42669054107E+02  0.15829505131E+03  0.90092322667E+02 0.  0.
        254    2    1    2    0    0 -0.92024446265E+02 -0.81557033896E+02 -0.20183415306E+04  0.22123722962E+04  0.89764614112E+03 0.  0.
        -24    2    4    4    0    0 -0.41238299629E+03 -0.29110367638E+03 -0.12434033098E+04  0.13443893378E+04  0.80807269873E+02 0.  0.
         24    2    4    4    0    0  0.32035855003E+03  0.20954664249E+03 -0.77493822078E+03  0.86798295841E+03  0.79534735163E+02 0.  0.
         13    1    3    3    0    0  0.60034071427E+02  0.40766840019E+02  0.69015395458E+02  0.10014564288E+03  0.00000000000E+00 0.  1.
        -13    1    3    3    0    0  0.31990374838E+02  0.40790193877E+02 -0.26346341351E+02  0.58149408435E+02  0.00000000000E+00 0. -1.
          4    1    6    6  502    0  0.22668874597E+02 -0.36538807888E+01 -0.69209820958E+02  0.72919325541E+02  0.00000000000E+00 0. -1.
          3    1    5    5  503    0 -0.27367004807E+03 -0.14524296861E+03 -0.76627464874E+03  0.82653956496E+03  0.00000000000E+00 0. -1.
         -4    1    5    5    0  503 -0.13871294823E+03 -0.14586070778E+03 -0.47712866105E+03  0.51784977288E+03  0.00000000000E+00 0.  1.
         -3    1    6    6    0  502  0.29768967543E+03  0.21320052328E+03 -0.70572839983E+03  0.79506363286E+03  0.00000000000E+00 0.  1.
<mgrwt>
<rscale>  0 0.13102603E+04</rscale>
<asrwt>0</asrwt>
<pdfrwt beam="1">  1        1 0.33433384E+00 0.13102603E+04</pdfrwt>
<pdfrwt beam="2">  1       -1 0.30384220E-01 0.13102603E+04</pdfrwt>
<totfact> 0.22307615E+01</totfact>
</mgrwt>
</event>
<event>
12    1  0.1496989E-007  0.2273179E+04  0.7818608E-02  0.8488572E-01
         -2   -1    0    0    0  501 -0.00000000000E+00  0.00000000000E+00  0.13579454817E+04  0.13579454817E+04  0.00000000000E+00 0.  1.
          2   -1    0    0  501    0  0.00000000000E+00 -0.00000000000E+00 -0.95131665887E+03  0.95131665887E+03  0.00000000000E+00 0. -1.
         23    2    1    2    0    0 -0.24911103647E+03  0.22362005173E+03  0.10817944042E+04  0.11360609876E+04  0.91067000227E+02 0.  0.
        254    2    1    2    0    0  0.24911103647E+03 -0.22362005173E+03 -0.67516558130E+03  0.11732011530E+04  0.89916080170E+03 0.  0.
        -24    2    4    4    0    0  0.55189633551E+03 -0.26859443914E+03 -0.31748784385E+03  0.69556645495E+03  0.79256699189E+02 0.  0.
         24    2    4    4    0    0 -0.30278529904E+03  0.44974387409E+02 -0.35767773745E+03  0.47763469810E+03  0.80622007697E+02 0.  0.
         11    1    3    3    0    0 -0.38585362547E+02  0.12158490447E+02  0.66617086604E+02  0.77939048753E+02  0.00000000000E+00 0. -1.
        -11    1    3    3    0    0 -0.21052567393E+03  0.21146156129E+03  0.10151773176E+04  0.10581219388E+04  0.00000000000E+00 0.  1.
          4    1    6    6  502    0 -0.24160319644E+03  0.15225155558E+02 -0.23516504330E+03  0.33750038146E+03  0.00000000000E+00 0. -1.
          3    1    5    5  503    0  0.42575743133E+03 -0.22444397450E+03 -0.27978181043E+03  0.55670669968E+03  0.00000000000E+00 0. -1.
         -4    1    5    5    0  503  0.12613890419E+03 -0.44150464644E+02 -0.37706033419E+02  0.13885975527E+03  0.00000000000E+00 0.  1.
         -3    1    6    6    0  502 -0.61182102600E+02  0.29749231851E+02 -0.12251269415E+03  0.14013431664E+03  0.00000000000E+00 0.  1.
<mgrwt>
<rscale>  0 0.22731794E+04</rscale>
<asrwt>0</asrwt>
<pdfrwt beam="1">  1        2 0.14635641E+00 0.22731794E+04</pdfrwt>
<pdfrwt beam="2">  1       -2 0.20891469E+00 0.22731794E+04</pdfrwt>
<totfact> 0.28640787E+00</totfact>
</mgrwt>
</event>
<event>
12    1  0.1496989E-007  0.1364564E+04  0.7818608E-02  0.8979876E-01
          2   -1    0    0  501    0  0.00000000000E+00  0.00000000000E+00  0.45694171807E+03  0.45694171807E+03  0.00000000000E+00 0. -1.
         -2   -1    0    0    0  501 -0.00000000000E+00 -0.00000000000E+00 -0.10187480627E+04  0.10187480627E+04  0.00000000000E+00 0.  1.
         23    2    1    2    0    0  0.11886813714E+03 -0.15949977378E+03 -0.51506054364E+03  0.55974196933E+03  0.91945074673E+02 0.  0.
        254    2    1    2    0    0 -0.11886813714E+03  0.15949977378E+03 -0.46745801020E+02  0.91594781147E+03  0.89286360187E+03 0.  0.
        -24    2    4    4    0    0 -0.44265304951E+03  0.83539850765E+02  0.19372905008E+03  0.49687771525E+03  0.80223999877E+02 0.  0.
         24    2    4    4    0    0  0.32378491237E+03  0.75959923018E+02 -0.24047485109E+03  0.41907009622E+03  0.84764451000E+02 0.  0.
         13    1    3    3    0    0  0.21209327087E+02 -0.18246986616E+02 -0.16605298790E+02  0.32534966174E+02  0.00000000000E+00 0. -1.
        -13    1    3    3    0    0  0.97658810053E+02 -0.14125278717E+03 -0.49845524485E+03  0.52720700316E+03  0.00000000000E+00 0.  1.
          4    1    6    6  502    0  0.29813355660E+03  0.89711835509E+02 -0.23341766657E+03  0.38912162375E+03  0.00000000000E+00 0. -1.
          3    1    5    5  503    0 -0.34205500812E+03  0.83512492160E+02  0.17969562255E+03  0.39530555484E+03  0.00000000000E+00 0. -1.
         -4    1    5    5    0  503 -0.10059804139E+03  0.27358605108E-01  0.14033427523E+02  0.10157216040E+03  0.00000000000E+00 0.  1.
         -3    1    6    6    0  502  0.25651355767E+02 -0.13751912491E+02 -0.70571845258E+01  0.29948472470E+02  0.00000000000E+00 0.  1.
<mgrwt>
<rscale>  0 0.13645637E+04</rscale>
<asrwt>0</asrwt>
<pdfrwt beam="1">  1        2 0.70298727E-01 0.13645637E+04</pdfrwt>
<pdfrwt beam="2">  1       -2 0.15673047E+00 0.13645637E+04</pdfrwt>
<totfact> 0.17746795E+01</totfact>
</mgrwt>
</event>
<event>
12    1  0.1496989E-007  0.3380613E+04  0.7818608E-02  0.8142681E-01
         -1   -1    0    0    0  501 -0.00000000000E+00  0.00000000000E+00  0.17923927352E+04  0.17923927352E+04  0.00000000000E+00 0.  1.
          1   -1    0    0  501    0  0.00000000000E+00 -0.00000000000E+00 -0.15940348698E+04  0.15940348698E+04  0.00000000000E+00 0. -1.
         23    2    1    2    0    0  0.83829051294E+03 -0.10641258561E+04  0.88478592828E+03  0.16207052665E+04  0.93512568276E+02 0.  0.
        254    2    1    2    0    0 -0.83829051294E+03  0.10641258561E+04 -0.68642806292E+03  0.17657223384E+04  0.90083132116E+03 0.  0.
        -24    2    4    4    0    0 -0.30768997737E+03 -0.10861791242E+03 -0.16876022721E+03  0.37605444613E+03  0.80411187634E+02 0.  0.
         24    2    4    4    0    0 -0.53060053557E+03  0.11727437685E+04 -0.51766783571E+03  0.13896678923E+04  0.79573788531E+02 0.  0.
         11    1    3    3    0    0  0.15682471147E+03 -0.14496535510E+03  0.14609901336E+03  0.25875445119E+03  0.00000000000E+00 0. -1.
        -11    1    3    3    0    0  0.68146580147E+03 -0.91916050099E+03  0.73868691492E+03  0.13619508153E+04  0.00000000000E+00 0.  1.
          4    1    6    6  502    0 -0.40053371070E+03  0.96115704845E+03 -0.41589160913E+03  0.11212564184E+04  0.00000000000E+00 0. -1.
          3    1    5    5  503    0 -0.22074419113E+03 -0.11280666215E+03 -0.11118770252E+03  0.27169108586E+03  0.00000000000E+00 0. -1.
         -4    1    5    5    0  503 -0.86945786242E+02  0.41887497268E+01 -0.57572524688E+02  0.10436336028E+03  0.00000000000E+00 0.  1.
         -3    1    6    6    0  502 -0.13006682487E+03  0.21158672006E+03 -0.10177622658E+03  0.26841147393E+03  0.00000000000E+00 0.  1.
<mgrwt>
<rscale>  0 0.33806133E+04</rscale>
<asrwt>0</asrwt>
<pdfrwt beam="1">  1        1 0.24523614E+00 0.33806133E+04</pdfrwt>
<pdfrwt beam="2">  1       -1 0.27575273E+00 0.33806133E+04</pdfrwt>
<totfact> 0.22009237E-01</totfact>
</mgrwt>
</event>
<event>
12    1  0.1496989E-007  0.1914687E+04  0.7818608E-02  0.8647580E-01
          2   -1    0    0  501    0  0.00000000000E+00  0.00000000000E+00  0.45018353101E+03  0.45018353101E+03  0.00000000000E+00 0.  1.
         -2   -1    0    0    0  501 -0.00000000000E+00 -0.00000000000E+00 -0.20358515697E+04  0.20358515697E+04  0.00000000000E+00 0. -1.
         23    2    1    2    0    0 -0.18615149332E+03  0.18993869914E+03  0.27751218187E+03  0.39539063240E+03  0.92691171127E+02 0.  0.
        254    2    1    2    0    0  0.18615149332E+03 -0.18993869914E+03 -0.18631802206E+04  0.20906444683E+04  0.91028823495E+03 0.  0.
        -24    2    4    4    0    0  0.53797125204E+03 -0.21390318493E+03 -0.10772679636E+04  0.12256208549E+04  0.80452307932E+02 0.  0.
         24    2    4    4    0    0 -0.35181975873E+03  0.23964485790E+02 -0.78591225692E+03  0.86502361344E+03  0.79097010191E+02 0.  0.
         11    1    3    3    0    0 -0.17271053537E+03  0.19502848682E+03  0.23618909539E+03  0.35163948652E+03  0.00000000000E+00 0.  1.
        -11    1    3    3    0    0 -0.13440957944E+02 -0.50897876796E+01  0.41323086479E+02  0.43751145873E+02  0.00000000000E+00 0. -1.
          4    1    6    6  502    0 -0.21323301499E+03  0.51868867405E+02 -0.45384798982E+03  0.50411972383E+03  0.00000000000E+00 0. -1.
          1    1    5    5  503    0  0.39821941967E+03 -0.17404323789E+03 -0.73655561294E+03  0.85520987238E+03  0.00000000000E+00 0. -1.
         -2    1    5    5    0  503  0.13975183238E+03 -0.39859947038E+02 -0.34071235070E+03  0.37041098249E+03  0.00000000000E+00 0.  1.
         -3    1    6    6    0  502 -0.13858674373E+03 -0.27904381615E+02 -0.33206426710E+03  0.36090388961E+03  0.00000000000E+00 0.  1.
<mgrwt>
<rscale>  0 0.19146873E+04</rscale>
<asrwt>0</asrwt>
<pdfrwt beam="1">  1        2 0.69259005E-01 0.19146873E+04</pdfrwt>
<pdfrwt beam="2">  1       -2 0.31320793E+00 0.19146873E+04</pdfrwt>
<totfact> 0.17177232E+00</totfact>
</mgrwt>
</event>
<event>
12    1  0.1496989E-007  0.1659183E+04  0.7818608E-02  0.8784993E-01
         -2   -1    0    0    0  501 -0.00000000000E+00  0.00000000000E+00  0.40133299036E+03  0.40133299036E+03  0.00000000000E+00 0.  1.
          2   -1    0    0  501    0  0.00000000000E+00 -0.00000000000E+00 -0.17148398905E+04  0.17148398905E+04  0.00000000000E+00 0. -1.
         23    2    1    2    0    0 -0.19869156634E+03 -0.29591191587E+03 -0.10658862316E+04  0.11281185705E+04  0.97446652193E+02 0.  0.
        254    2    1    2    0    0  0.19869156634E+03  0.29591191587E+03 -0.24762066856E+03  0.98805431032E+03  0.88763344020E+03 0.  0.
        -24    2    4    4    0    0  0.24170977977E+03  0.14036569818E-01  0.27811952738E+03  0.37717770271E+03  0.80553895495E+02 0.  0.
         24    2    4    4    0    0 -0.43018213437E+02  0.29589787930E+03 -0.52574019594E+03  0.61087660761E+03  0.85798335865E+02 0.  0.
         11    1    3    3    0    0 -0.19973823994E+03 -0.27782417372E+03 -0.10488336391E+04  0.11032377978E+04  0.00000000000E+00 0. -1.
        -11    1    3    3    0    0  0.10466736040E+01 -0.18087742156E+02 -0.17052592524E+02  0.24880772772E+02  0.00000000000E+00 0.  1.
          4    1    6    6  502    0 -0.38792733375E+02  0.29836733610E+03 -0.49144854558E+03  0.57623746526E+03  0.00000000000E+00 0. -1.
          3    1    5    5  503    0  0.12714745665E+03 -0.40203985067E+02  0.14387117055E+03  0.19616765754E+03  0.00000000000E+00 0. -1.
         -4    1    5    5    0  503  0.11456232312E+03  0.40218021636E+02  0.13424835683E+03  0.18101004518E+03  0.00000000000E+00 0.  1.
         -3    1    6    6    0  502 -0.42254800615E+01 -0.24694567970E+01 -0.34291650358E+02  0.34639142353E+02  0.00000000000E+00 0.  1.
<mgrwt>
<rscale>  0 0.16591827E+04</rscale>
<asrwt>0</asrwt>
<pdfrwt beam="1">  1        2 0.26382153E+00 0.16591827E+04</pdfrwt>
<pdfrwt beam="2">  1       -2 0.61743536E-01 0.16591827E+04</pdfrwt>
<totfact> 0.22382611E+01</totfact>
</mgrwt>
</event>
<event>
12    1  0.1496989E-007  0.2078421E+04  0.7818608E-02  0.8570809E-01
         -2   -1    0    0    0  501 -0.00000000000E+00  0.00000000000E+00  0.82780626526E+03  0.82780626526E+03  0.00000000000E+00 0.  1.
          2   -1    0    0  501    0  0.00000000000E+00 -0.00000000000E+00 -0.13046027706E+04  0.13046027706E+04  0.00000000000E+00 0. -1.
         23    2    1    2    0    0 -0.27502420243E+03 -0.28370866678E+03 -0.95516128893E+03  0.10389911162E+04  0.10507393670E+03 0.  0.
        254    2    1    2    0    0  0.27502420243E+03  0.28370866678E+03  0.47836478359E+03  0.10934179196E+04  0.90033380547E+03 0.  0.
        -24    2    4    4    0    0 -0.19903769796E+02  0.45347610094E+03 -0.45869015984E+02  0.46301005380E+03  0.78978535791E+02 0.  0.
         24    2    4    4    0    0  0.29492797223E+03 -0.16976743416E+03  0.52423379957E+03  0.63040786584E+03  0.82398484186E+02 0.  0.
         13    1    3    3    0    0 -0.11893834877E+03 -0.77339352752E+02 -0.24435840250E+03  0.28255749002E+03  0.00000000000E+00 0.  1.
        -13    1    3    3    0    0 -0.15608585366E+03 -0.20636931402E+03 -0.71080288643E+03  0.75643362619E+03  0.00000000000E+00 0. -1.
          4    1    6    6  502    0  0.21109577675E+03 -0.16151922775E+03  0.39171177140E+03  0.47337934022E+03  0.00000000000E+00 0. -1.
          1    1    5    5  503    0 -0.40242152098E+02  0.37630235755E+03 -0.55970766762E+02  0.38256453290E+03  0.00000000000E+00 0. -1.
         -2    1    5    5    0  503  0.20338382302E+02  0.77173743391E+02  0.10101750778E+02  0.80445520898E+02  0.00000000000E+00 0.  1.
         -3    1    6    6    0  502  0.83832195476E+02 -0.82482064111E+01  0.13252202817E+03  0.15702852562E+03  0.00000000000E+00 0.  1.
<mgrwt>
<rscale>  0 0.20784209E+04</rscale>
<asrwt>0</asrwt>
<pdfrwt beam="1">  1        2 0.20070812E+00 0.20784209E+04</pdfrwt>
<pdfrwt beam="2">  1       -2 0.12735481E+00 0.20784209E+04</pdfrwt>
<totfact> 0.69398178E+00</totfact>
</mgrwt>
</event>
<event>
12    1  0.1496989E-007  0.1506034E+04  0.7818608E-02  0.8880450E-01
         -2   -1    0    0    0  501 -0.00000000000E+00  0.00000000000E+00  0.75030126652E+03  0.75030126652E+03  0.00000000000E+00 0.  1.
          2   -1    0    0  501    0  0.00000000000E+00 -0.00000000000E+00 -0.75574267533E+03  0.75574267533E+03  0.00000000000E+00 0. -1.
         23    2    1    2    0    0 -0.14635178066E+03 -0.64529238648E+00  0.45283902709E+03  0.48439376129E+03  0.90304326669E+02 0.  0.
        254    2    1    2    0    0  0.14635178066E+03  0.64529238648E+00 -0.45828043590E+03  0.10216501806E+04  0.90129288991E+03 0.  0.
        -24    2    4    4    0    0 -0.30521324826E+02  0.84300345133E+01 -0.70422390736E+03  0.70944362958E+03  0.79851957502E+02 0.  0.
         24    2    4    4    0    0  0.17687310549E+03 -0.77847421268E+01  0.24594347146E+03  0.31220655097E+03  0.75100210795E+02 0.  0.
         13    1    3    3    0    0 -0.69174866374E+02  0.44290188543E+02  0.23594266026E+03  0.24983138688E+03  0.00000000000E+00 0.  1.
        -13    1    3    3    0    0 -0.77176914286E+02 -0.44935480929E+02  0.21689636683E+03  0.23456237441E+03  0.00000000000E+00 0. -1.
          4    1    6    6  502    0  0.41344231731E+02  0.25068416911E+02  0.95680528652E+02  0.10720323963E+03  0.00000000000E+00 0. -1.
          1    1    5    5  503    0 -0.66591980621E+00 -0.31192409533E+02 -0.39860802319E+03  0.39982717018E+03  0.00000000000E+00 0. -1.
         -2    1    5    5    0  503 -0.29855405020E+02  0.39622444046E+02 -0.30561588416E+03  0.30961645940E+03  0.00000000000E+00 0.  1.
         -3    1    6    6    0  502  0.13552887375E+03 -0.32853159038E+02  0.15026294281E+03  0.20500331134E+03  0.00000000000E+00 0.  1.
<mgrwt>
<rscale>  0 0.15060341E+04</rscale>
<asrwt>0</asrwt>
<pdfrwt beam="1">  1        2 0.11626810E+00 0.15060341E+04</pdfrwt>
<pdfrwt beam="2">  1       -2 0.11543096E+00 0.15060341E+04</pdfrwt>
<totfact> 0.20950965E+01</totfact>
</mgrwt>
</event>
<event>
12    1  0.1496989E-007  0.1230491E+04  0.7818608E-02  0.9086579E-01
         -2   -1    0    0    0  501 -0.00000000000E+00  0.00000000000E+00  0.29799284236E+03  0.29799284236E+03  0.00000000000E+00 0.  1.
          2   -1    0    0  501    0  0.00000000000E+00 -0.00000000000E+00 -0.12702546512E+04  0.12702546512E+04  0.00000000000E+00 0. -1.
         23    2    1    2    0    0 -0.26971839513E+03  0.36395242253E+02 -0.25251270908E+03  0.38220539260E+03  0.90805658182E+02 0.  0.
        254    2    1    2    0    0  0.26971839513E+03 -0.36395242253E+02 -0.71974909973E+03  0.11860421009E+04  0.90254333540E+03 0.  0.
        -24    2    4    4    0    0 -0.32846692849E+03 -0.62007633726E+01 -0.26706263139E+03  0.43118200929E+03  0.81648658722E+02 0.  0.
         24    2    4    4    0    0  0.59818532361E+03 -0.30194478880E+02 -0.45268646834E+03  0.75486009164E+03  0.78430423894E+02 0.  0.
         13    1    3    3    0    0 -0.18934672669E+03  0.31351492182E+02 -0.11760742018E+03  0.22509243491E+03  0.00000000000E+00 0. -1.
        -13    1    3    3    0    0 -0.80371668431E+02  0.50437500708E+01 -0.13490528890E+03  0.15711295769E+03  0.00000000000E+00 0.  1.
          2    1    6    6  502    0  0.10917930072E+02 -0.12205131813E+02 -0.15034654552E+02  0.22230773202E+02  0.00000000000E+00 0. -1.
          1    1    5    5  503    0 -0.96626132319E+02  0.20973188201E+02 -0.43695389611E+02  0.10810074534E+03  0.00000000000E+00 0. -1.
         -2    1    5    5    0  503 -0.23184079617E+03 -0.27173951574E+02 -0.22336724178E+03  0.32308126394E+03  0.00000000000E+00 0.  1.
         -1    1    6    6    0  502  0.58726739354E+03 -0.17989347067E+02 -0.43765181379E+03  0.73262931844E+03  0.00000000000E+00 0.  1.
<mgrwt>
<rscale>  0 0.12304906E+04</rscale>
<asrwt>0</asrwt>
<pdfrwt beam="1">  1        2 0.19542379E+00 0.12304906E+04</pdfrwt>
<pdfrwt beam="2">  1       -2 0.45845053E-01 0.12304906E+04</pdfrwt>
<totfact> 0.76422413E+01</totfact>
</mgrwt>
</event>
<event>
12    1  0.1496989E-007  0.3159003E+04  0.7818608E-02  0.8199729E-01
          2   -1    0    0  501    0  0.00000000000E+00  0.00000000000E+00  0.18364470703E+04  0.18364470703E+04  0.00000000000E+00 0. -1.
         -2   -1    0    0    0  501 -0.00000000000E+00 -0.00000000000E+00 -0.13585065992E+04  0.13585065992E+04  0.00000000000E+00 0.  1.
         23    2    1    2    0    0 -0.71074040033E+03  0.12660625192E+04  0.14681431535E+03  0.14621515173E+04  0.90919730189E+02 0.  0.
        254    2    1    2    0    0  0.71074040033E+03 -0.12660625192E+04  0.33112615577E+03  0.17328021521E+04  0.88594161678E+03 0.  0.
        -24    2    4    4    0    0  0.34230251610E+03 -0.12746968190E+04  0.22592718482E+03  0.13411247151E+04  0.74494400862E+02 0.  0.
         24    2    4    4    0    0  0.36843788423E+03  0.86342998716E+01  0.10519897095E+03  0.39167743700E+03  0.80767354120E+02 0.  0.
         13    1    3    3    0    0 -0.39064636342E+03  0.71619218583E+03  0.12667559367E+03  0.82558011987E+03  0.00000000000E+00 0. -1.
        -13    1    3    3    0    0 -0.32009403692E+03  0.54987033333E+03  0.20138721679E+02  0.63657139745E+03  0.00000000000E+00 0.  1.
          4    1    6    6  502    0  0.31403024662E+03  0.86942513265E+00  0.58234523071E+02  0.31938536499E+03  0.00000000000E+00 0. -1.
          1    1    5    5  503    0  0.14009996471E+03 -0.44730096830E+03  0.49864554921E+02  0.47137313265E+03  0.00000000000E+00 0. -1.
         -2    1    5    5    0  503  0.20220255139E+03 -0.82739585073E+03  0.17606262990E+03  0.86975158248E+03  0.00000000000E+00 0.  1.
         -3    1    6    6    0  502  0.54407637610E+02  0.77648747390E+01  0.46964447881E+02  0.72292072005E+02  0.00000000000E+00 0.  1.
<mgrwt>
<rscale>  0 0.31590033E+04</rscale>
<asrwt>0</asrwt>
<pdfrwt beam="1">  1        2 0.28253032E+00 0.31590033E+04</pdfrwt>
<pdfrwt beam="2">  1       -2 0.20900101E+00 0.31590033E+04</pdfrwt>
<totfact> 0.80880474E-01</totfact>
</mgrwt>
</event>
<event>
12    1  0.1496989E-007  0.1672926E+04  0.7818608E-02  0.8776958E-01
          2   -1    0    0  501    0  0.00000000000E+00  0.00000000000E+00  0.11794125274E+04  0.11794125274E+04  0.00000000000E+00 0. -1.
         -2   -1    0    0    0  501 -0.00000000000E+00 -0.00000000000E+00 -0.59323641513E+03  0.59323641513E+03  0.00000000000E+00 0.  1.
         23    2    1    2    0    0  0.14732656086E+02 -0.11886941116E+03  0.77742386199E+03  0.79183815425E+03  0.90955006866E+02 0.  0.
        254    2    1    2    0    0 -0.14732656086E+02  0.11886941116E+03 -0.19124774976E+03  0.98081078823E+03  0.95449835645E+03 0.  0.
        -24    2    4    4    0    0 -0.48007612058E+02  0.12388976024E+03 -0.57093662659E+03  0.59155598188E+03  0.79476063138E+02 0.  0.
         24    2    4    4    0    0  0.33274955972E+02 -0.50203490786E+01  0.37968887683E+03  0.38925480635E+03  0.78887479861E+02 0.  0.
         13    1    3    3    0    0 -0.12321902126E+02 -0.11940019713E+03  0.68860802542E+03  0.69899159439E+03  0.00000000000E+00 0. -1.
        -13    1    3    3    0    0  0.27054558212E+02  0.53078597042E+00  0.88815836564E+02  0.92846559863E+02  0.00000000000E+00 0.  1.
          2    1    6    6  502    0  0.43845296049E+02 -0.33615967875E+02  0.23975179840E+03  0.24603529852E+03  0.00000000000E+00 0. -1.
          1    1    5    5  503    0  0.69856963443E+01  0.63179233443E+01 -0.16726149342E+03  0.16752648534E+03  0.00000000000E+00 0. -1.
         -2    1    5    5    0  503 -0.54993308402E+02  0.11757183689E+03 -0.40367513316E+03  0.42402949654E+03  0.00000000000E+00 0.  1.
         -1    1    6    6    0  502 -0.10570340077E+02  0.28595618797E+02  0.13993707842E+03  0.14321950783E+03  0.00000000000E+00 0.  1.
<mgrwt>
<rscale>  0 0.16729261E+04</rscale>
<asrwt>0</asrwt>
<pdfrwt beam="1">  1        2 0.18144808E+00 0.16729261E+04</pdfrwt>
<pdfrwt beam="2">  1       -2 0.91267141E-01 0.16729261E+04</pdfrwt>
<totfact> 0.19016461E+01</totfact>
</mgrwt>
</event>
<event>
12    1  0.1496989E-007  0.1296741E+04  0.7818608E-02  0.9032154E-01
         -2   -1    0    0    0  501 -0.00000000000E+00  0.00000000000E+00  0.43920491754E+03  0.43920491754E+03  0.00000000000E+00 0.  1.
          2   -1    0    0  501    0  0.00000000000E+00 -0.00000000000E+00 -0.95714830423E+03  0.95714830423E+03  0.00000000000E+00 0. -1.
         23    2    1    2    0    0  0.28150907198E+03  0.63658296763E+02 -0.27125788475E+03  0.40685873971E+03  0.93023962962E+02 0.  0.
        254    2    1    2    0    0 -0.28150907198E+03 -0.63658296763E+02 -0.24668550193E+03  0.98949448206E+03  0.91375371781E+03 0.  0.
        -24    2    4    4    0    0  0.40589959741E+02  0.32681365161E+03  0.12076492764E+03  0.35888557035E+03  0.75894513267E+02 0.  0.
         24    2    4    4    0    0 -0.32209903172E+03 -0.39047194838E+03 -0.36745042957E+03  0.63060891172E+03  0.80197584989E+02 0.  0.
         13    1    3    3    0    0  0.26195782010E+03  0.53759041719E+02 -0.27614484831E+03  0.38440591999E+03  0.00000000000E+00 0. -1.
        -13    1    3    3    0    0  0.19551251876E+02  0.98992550442E+01  0.48869635571E+01  0.22452819715E+02  0.00000000000E+00 0.  1.
          4    1    6    6  502    0 -0.16860970202E+03 -0.25622451881E+03 -0.19421436663E+03  0.36304194780E+03  0.00000000000E+00 0. -1.
          1    1    5    5  503    0 -0.15769968182E+02  0.17988381581E+03  0.62871973360E+02  0.19120607762E+03  0.00000000000E+00 0. -1.
         -2    1    5    5    0  503  0.56359927923E+02  0.14692983581E+03  0.57892954279E+02  0.16767949273E+03  0.00000000000E+00 0.  1.
         -3    1    6    6    0  502 -0.15348932970E+03 -0.13424742957E+03 -0.17323606294E+03  0.26756696392E+03  0.00000000000E+00 0.  1.
<mgrwt>
<rscale>  0 0.12967409E+04</rscale>
<asrwt>0</asrwt>
<pdfrwt beam="1">  1        2 0.14725358E+00 0.12967409E+04</pdfrwt>
<pdfrwt beam="2">  1       -2 0.67569988E-01 0.12967409E+04</pdfrwt>
<totfact> 0.52876604E+01</totfact>
</mgrwt>
</event>
<event>
12    1  0.1496989E-007  0.1545065E+04  0.7818608E-02  0.8855026E-01
          2   -1    0    0  501    0  0.00000000000E+00  0.00000000000E+00  0.26375368003E+04  0.26375368003E+04  0.00000000000E+00 0. -1.
         -2   -1    0    0    0  501 -0.00000000000E+00 -0.00000000000E+00 -0.22627412050E+03  0.22627412050E+03  0.00000000000E+00 0.  1.
         23    2    1    2    0    0  0.22095883114E+03 -0.33069083962E+03  0.21574820563E+03  0.46389990664E+03  0.10235525724E+03 0.  0.
        254    2    1    2    0    0 -0.22095883114E+03  0.33069083962E+03  0.21955144742E+04  0.23999110141E+04  0.88380418257E+03 0.  0.
        -24    2    4    4    0    0  0.18915851194E+03 -0.18724938734E+03  0.42252234824E+03  0.50611256983E+03  0.82350002286E+02 0.  0.
         24    2    4    4    0    0 -0.41011734307E+03  0.51794022696E+03  0.17729921259E+04  0.18937984443E+04  0.80704122255E+02 0.  0.
         13    1    3    3    0    0 -0.42563325933E+01 -0.60698244073E+01  0.23252263320E+02  0.24405468342E+02  0.00000000000E+00 0. -1.
        -13    1    3    3    0    0  0.22521516373E+03 -0.32462101521E+03  0.19249594231E+03  0.43949443830E+03  0.00000000000E+00 0.  1.
          4    1    6    6  502    0 -0.36806940178E+03  0.49121191972E+03  0.16737468539E+04  0.17827486546E+04  0.00000000000E+00 0. -1.
          1    1    5    5  503    0  0.18683655715E+03 -0.19519127944E+03  0.40704681458E+03  0.48856385859E+03  0.00000000000E+00 0. -1.
         -2    1    5    5    0  503  0.23219547881E+01  0.79418920987E+01  0.15475533662E+02  0.17548711242E+02  0.00000000000E+00 0.  1.
         -3    1    6    6    0  502 -0.42047941296E+02  0.26728307246E+02  0.99245272020E+02  0.11104978971E+03  0.00000000000E+00 0.  1.
<mgrwt>
<rscale>  0 0.15450648E+04</rscale>
<asrwt>0</asrwt>
<pdfrwt beam="1">  1        2 0.40577487E+00 0.15450648E+04</pdfrwt>
<pdfrwt beam="2">  1       -2 0.34811405E-01 0.15450648E+04</pdfrwt>
<totfact> 0.21630544E+01</totfact>
</mgrwt>
</event>
<event>
12    1  0.1496989E-007  0.1819689E+04  0.7818608E-02  0.8695899E-01
         -1   -1    0    0    0  501 -0.00000000000E+00  0.00000000000E+00  0.34215532939E+03  0.34215532939E+03  0.00000000000E+00 0.  1.
          1   -1    0    0  501    0  0.00000000000E+00 -0.00000000000E+00 -0.24194188564E+04  0.24194188564E+04  0.00000000000E+00 0. -1.
         23    2    1    2    0    0  0.51302360227E+03 -0.65514909811E+02 -0.10058806292E+03  0.53465420174E+03  0.90839072780E+02 0.  0.
        254    2    1    2    0    0 -0.51302360227E+03  0.65514909811E+02 -0.19766754640E+04  0.22269199840E+04  0.88568691142E+03 0.  0.
        -24    2    4    4    0    0 -0.45886311614E+03 -0.88320463968E+02 -0.19880913081E+04  0.20438046279E+04  0.79211390080E+02 0.  0.
         24    2    4    4    0    0 -0.54160486132E+02  0.15383537378E+03  0.11415844012E+02  0.18311535605E+03  0.82475642730E+02 0.  0.
         11    1    3    3    0    0  0.10354349514E+03 -0.22650916805E+02 -0.57777832358E+02  0.12071701343E+03  0.00000000000E+00 0. -1.
        -11    1    3    3    0    0  0.40948010713E+03 -0.42863993006E+02 -0.42810230566E+02  0.41393718832E+03  0.00000000000E+00 0.  1.
          2    1    6    6  502    0 -0.62760551570E+02  0.13389339429E+03 -0.15327203468E+02  0.14866489510E+03  0.00000000000E+00 0. -1.
          1    1    5    5  503    0 -0.29890872043E+03 -0.22920320667E+02 -0.11851339523E+04  0.12224623713E+04  0.00000000000E+00 0. -1.
         -2    1    5    5    0  503 -0.15995439571E+03 -0.65400143302E+02 -0.80295735573E+03  0.82134225665E+03  0.00000000000E+00 0.  1.
         -1    1    6    6    0  502  0.86000654374E+01  0.19941979486E+02  0.26743047480E+02  0.34450460953E+02  0.00000000000E+00 0.  1.
<mgrwt>
<rscale>  0 0.18196890E+04</rscale>
<asrwt>0</asrwt>
<pdfrwt beam="1">  1        1 0.37221829E+00 0.18196890E+04</pdfrwt>
<pdfrwt beam="2">  1       -1 0.52639280E-01 0.18196890E+04</pdfrwt>
<totfact> 0.52820894E+00</totfact>
</mgrwt>
</event>
<event>
12    1  0.1496989E-007  0.1098105E+04  0.7818608E-02  0.9207041E-01
          2   -1    0    0  501    0  0.00000000000E+00  0.00000000000E+00  0.11293771283E+04  0.11293771283E+04  0.00000000000E+00 0. -1.
         -2   -1    0    0    0  501 -0.00000000000E+00 -0.00000000000E+00 -0.26692470613E+03  0.26692470613E+03  0.00000000000E+00 0.  1.
         23    2    1    2    0    0  0.63153869250E+02  0.86909566974E+01 -0.39334956397E+02  0.12046454330E+03  0.94342585657E+02 0.  0.
        254    2    1    2    0    0 -0.63153869250E+02 -0.86909566974E+01  0.90178737857E+03  0.12758372911E+04  0.90026461297E+03 0.  0.
        -24    2    4    4    0    0  0.42004585996E+02  0.19680218537E+03  0.99059521456E+03  0.10139805661E+04  0.79888822570E+02 0.  0.
         24    2    4    4    0    0 -0.10515845525E+03 -0.20549314206E+03 -0.88807835987E+02  0.26185672500E+03  0.86002212474E+02 0.  0.
         11    1    3    3    0    0  0.13951887270E+02 -0.34854401698E+02  0.93488090360E+01  0.38689594293E+02  0.00000000000E+00 0. -1.
        -11    1    3    3    0    0  0.49201981980E+02  0.43545358396E+02 -0.48683765433E+02  0.81774949009E+02  0.00000000000E+00 0.  1.
          4    1    6    6  502    0 -0.62740613775E+02 -0.15949254631E+03 -0.99795886816E+02  0.19832669001E+03  0.00000000000E+00 0. -1.
          3    1    5    5  503    0  0.13176799797E+02  0.14499157711E+03  0.83246926470E+03  0.84510429070E+03  0.00000000000E+00 0. -1.
         -4    1    5    5    0  503  0.28827786199E+02  0.51810608253E+02  0.15812594986E+03  0.16887627543E+03  0.00000000000E+00 0.  1.
         -3    1    6    6    0  502 -0.42417841471E+02 -0.46000595757E+02  0.10988050829E+02  0.63530034992E+02  0.00000000000E+00 0.  1.
<mgrwt>
<rscale>  0 0.10981050E+04</rscale>
<asrwt>0</asrwt>
<pdfrwt beam="1">  1        2 0.17375032E+00 0.10981050E+04</pdfrwt>
<pdfrwt beam="2">  1       -2 0.41065340E-01 0.10981050E+04</pdfrwt>
<totfact> 0.11646811E+02</totfact>
</mgrwt>
</event>
<event>
12    1  0.1496989E-007  0.1554125E+04  0.7818608E-02  0.8849237E-01
          1   -1    0    0  501    0  0.00000000000E+00  0.00000000000E+00  0.21208891477E+03  0.21208891477E+03  0.00000000000E+00 0. -1.
         -1   -1    0    0    0  501 -0.00000000000E+00 -0.00000000000E+00 -0.28470420026E+04  0.28470420026E+04  0.00000000000E+00 0.  1.
         23    2    1    2    0    0 -0.20967237201E+03 -0.67293339729E+02  0.29903155191E+02  0.24006799118E+03  0.90815992764E+02 0.  0.
        254    2    1    2    0    0  0.20967237201E+03  0.67293339729E+02 -0.26648562430E+04  0.28190629262E+04  0.89284158097E+03 0.  0.
        -24    2    4    4    0    0  0.53445730855E+03  0.38104216060E+02 -0.12030576977E+04  0.13192457756E+04  0.77233714149E+02 0.  0.
         24    2    4    4    0    0 -0.32478493654E+03  0.29189123669E+02 -0.14617985453E+04  0.14998171505E+04  0.79115346451E+02 0.  0.
         11    1    3    3    0    0 -0.12460474861E+03 -0.11802621488E+02  0.52978912657E+02  0.13591324600E+03  0.00000000000E+00 0. -1.
        -11    1    3    3    0    0 -0.85067623398E+02 -0.55490718240E+02 -0.23075757467E+02  0.10415474518E+03  0.00000000000E+00 0.  1.
          2    1    6    6  502    0 -0.16329165374E+03 -0.23290430953E+02 -0.66847632800E+03  0.68852538766E+03  0.00000000000E+00 0. -1.
          3    1    5    5  503    0  0.43197269096E+03  0.61215353606E+02 -0.96736211173E+03  0.10611961084E+04  0.00000000000E+00 0. -1.
         -4    1    5    5    0  503  0.10248461759E+03 -0.23111137546E+02 -0.23569558594E+03  0.25804966722E+03  0.00000000000E+00 0.  1.
         -1    1    6    6    0  502 -0.16149328280E+03  0.52479554622E+02 -0.79332221731E+03  0.81129176288E+03  0.00000000000E+00 0.  1.
<mgrwt>
<rscale>  0 0.15541249E+04</rscale>
<asrwt>0</asrwt>
<pdfrwt beam="1">  1        1 0.32629064E-01 0.15541249E+04</pdfrwt>
<pdfrwt beam="2">  1       -1 0.43800645E+00 0.15541249E+04</pdfrwt>
<totfact> 0.52267960E-01</totfact>
</mgrwt>
</event>
<event>
12    1  0.1496989E-007  0.1427055E+04  0.7818608E-02  0.8934464E-01
         -2   -1    0    0    0  501 -0.00000000000E+00  0.00000000000E+00  0.48386365362E+03  0.48386365362E+03  0.00000000000E+00 0.  1.
          2   -1    0    0  501    0  0.00000000000E+00 -0.00000000000E+00 -0.10522002948E+04  0.10522002948E+04  0.00000000000E+00 0. -1.
         23    2    1    2    0    0  0.33973923308E+03  0.22312563405E+03 -0.51989991367E+02  0.41999334573E+03  0.92106765183E+02 0.  0.
        254    2    1    2    0    0 -0.33973923308E+03 -0.22312563405E+03 -0.51634664986E+03  0.11160706027E+04  0.90210416938E+03 0.  0.
        -24    2    4    4    0    0  0.15266429468E+03 -0.28875439847E+03  0.69380620907E+02  0.34417863706E+03  0.83425260798E+02 0.  0.
         24    2    4    4    0    0 -0.49240352777E+03  0.65628764429E+02 -0.58572727077E+03  0.77189196568E+03  0.77281317836E+02 0.  0.
         13    1    3    3    0    0  0.24794725013E+03  0.16791229855E+03 -0.78645430795E+02  0.30960859587E+03  0.00000000000E+00 0. -1.
        -13    1    3    3    0    0  0.91791982956E+02  0.55213335495E+02  0.26655439428E+02  0.11038474986E+03  0.00000000000E+00 0.  1.
          4    1    6    6  502    0 -0.28741866868E+03  0.24261675722E+02 -0.39314058213E+03  0.48760397592E+03  0.00000000000E+00 0. -1.
          1    1    5    5  503    0  0.13076120481E+03 -0.26313389490E+03  0.34797755370E+02  0.29588650376E+03  0.00000000000E+00 0. -1.
         -2    1    5    5    0  503  0.21903089876E+02 -0.25620503570E+02  0.34582865537E+02  0.48292133294E+02  0.00000000000E+00 0.  1.
         -1    1    6    6    0  502 -0.20498485909E+03  0.41367088708E+02 -0.19258668863E+03  0.28428798976E+03  0.00000000000E+00 0.  1.
<mgrwt>
<rscale>  0 0.14270550E+04</rscale>
<asrwt>0</asrwt>
<pdfrwt beam="1">  1        2 0.16187697E+00 0.14270550E+04</pdfrwt>
<pdfrwt beam="2">  1       -2 0.74440562E-01 0.14270550E+04</pdfrwt>
<totfact> 0.36807996E+01</totfact>
</mgrwt>
</event>
<event>
12    1  0.1496989E-007  0.1456517E+04  0.7818608E-02  0.8913895E-01
          2   -1    0    0  501    0  0.00000000000E+00  0.00000000000E+00  0.95220615331E+03  0.95220615331E+03  0.00000000000E+00 0. -1.
         -2   -1    0    0    0  501 -0.00000000000E+00 -0.00000000000E+00 -0.55698062565E+03  0.55698062565E+03  0.00000000000E+00 0.  1.
         23    2    1    2    0    0 -0.24943805714E+03  0.27946731119E+03 -0.11722056949E+03  0.40296968201E+03  0.91228177282E+02 0.  0.
        254    2    1    2    0    0  0.24943805714E+03 -0.27946731119E+03  0.51244609715E+03  0.11062170970E+04  0.90597678819E+03 0.  0.
        -24    2    4    4    0    0  0.40055550151E+03 -0.84265733389E+02  0.67995155356E+03  0.79777229759E+03  0.81000617239E+02 0.  0.
         24    2    4    4    0    0 -0.15111744437E+03 -0.19520157780E+03 -0.16750545641E+03  0.30844479937E+03  0.78358014036E+02 0.  0.
         13    1    3    3    0    0 -0.18189814604E+03  0.25254054297E+03 -0.10914705791E+03  0.32981319202E+03  0.00000000000E+00 0.  1.
        -13    1    3    3    0    0 -0.67539911103E+02  0.26926768218E+02 -0.80735115786E+01  0.73156489990E+02  0.00000000000E+00 0. -1.
          2    1    6    6  502    0 -0.72415699588E+02 -0.85304164920E+02 -0.12265300029E+03  0.16602587925E+03  0.00000000000E+00 0. -1.
          3    1    5    5  503    0  0.36856586769E+03 -0.65693787047E+02  0.57166959214E+03  0.68334661414E+03  0.00000000000E+00 0. -1.
         -4    1    5    5    0  503  0.31989633827E+02 -0.18571946342E+02  0.10828196142E+03  0.11442568345E+03  0.00000000000E+00 0.  1.
         -1    1    6    6    0  502 -0.78701744784E+02 -0.10989741288E+03 -0.44852456120E+02  0.14241892013E+03  0.00000000000E+00 0.  1.
<mgrwt>
<rscale>  0 0.14565169E+04</rscale>
<asrwt>0</asrwt>
<pdfrwt beam="1">  1        2 0.14649325E+00 0.14565169E+04</pdfrwt>
<pdfrwt beam="2">  1       -2 0.85689327E-01 0.14565169E+04</pdfrwt>
<totfact> 0.31034814E+01</totfact>
</mgrwt>
</event>
<event>
12    1  0.1496989E-007  0.1044017E+04  0.7818608E-02  0.9261543E-01
          2   -1    0    0  501    0  0.00000000000E+00  0.00000000000E+00  0.10350527678E+04  0.10350527678E+04  0.00000000000E+00 0. -1.
         -2   -1    0    0    0  501 -0.00000000000E+00 -0.00000000000E+00 -0.26326452804E+03  0.26326452804E+03  0.00000000000E+00 0.  1.
         23    2    1    2    0    0 -0.42848748974E+02  0.76695767132E+02 -0.79019630548E+01  0.12704192439E+03  0.91427312926E+02 0.  0.
        254    2    1    2    0    0  0.42848748974E+02 -0.76695767132E+02  0.77969020278E+03  0.11712753714E+04  0.86962688976E+03 0.  0.
        -24    2    4    4    0    0 -0.18940302369E+03 -0.24282277413E+03  0.81252800853E+03  0.87265463473E+03  0.80547761284E+02 0.  0.
         24    2    4    4    0    0  0.23225177266E+03  0.16612700700E+03 -0.32837805753E+02  0.29862073669E+03  0.80975024150E+02 0.  0.
         13    1    3    3    0    0  0.11135987105E+02 -0.74871005402E+01 -0.22279146862E+02  0.26008215398E+02  0.00000000000E+00 0.  1.
        -13    1    3    3    0    0 -0.53984736079E+02  0.84182867672E+02  0.14377183807E+02  0.10103370899E+03  0.00000000000E+00 0. -1.
          2    1    6    6  502    0  0.10175937551E+03  0.66608655832E+02 -0.54152381339E+02  0.13313212963E+03  0.00000000000E+00 0. -1.
          3    1    5    5  503    0 -0.16605055017E+03 -0.23781658384E+03  0.70173122366E+03  0.75931299411E+03  0.00000000000E+00 0. -1.
         -4    1    5    5    0  503 -0.23352473519E+02 -0.50061902850E+01  0.11079678487E+03  0.11334164062E+03  0.00000000000E+00 0.  1.
         -3    1    6    6    0  502  0.13049239715E+03  0.99518351166E+02  0.21314575586E+02  0.16548860706E+03  0.00000000000E+00 0.  1.
<mgrwt>
<rscale>  0 0.10440166E+04</rscale>
<asrwt>0</asrwt>
<pdfrwt beam="1">  1        2 0.15923888E+00 0.10440166E+04</pdfrwt>
<pdfrwt beam="2">  1       -2 0.40502236E-01 0.10440166E+04</pdfrwt>
<totfact> 0.13740633E+02</totfact>
</mgrwt>
</event>
<event>
12    1  0.1699456E-007  0.2388233E+04  0.7818608E-02  0.8443922E-01
          2   -1    0    0  501    0  0.00000000000E+00  0.00000000000E+00  0.10066162354E+04  0.10066162354E+04  0.00000000000E+00 0. -1.
         -2   -1    0    0    0  501 -0.00000000000E+00 -0.00000000000E+00 -0.14165426125E+04  0.14165426125E+04  0.00000000000E+00 0.  1.
         23    2    1    2    0    0 -0.80851606953E+03 -0.30075433535E+02 -0.80103293027E+03  0.11421582387E+04  0.90933604772E+02 0.  0.
        254    2    1    2    0    0  0.80851606953E+03  0.30075433535E+02  0.39110655321E+03  0.12810006092E+04  0.91290495588E+03 0.  0.
        -24    2    4    4    0    0  0.31075116596E+03  0.32459787996E+03 -0.15448737973E+03  0.48205222115E+03  0.81104393210E+02 0.  0.
         24    2    4    4    0    0  0.49776490357E+03 -0.29452244643E+03  0.54559393294E+03  0.79894838807E+03  0.78309746972E+02 0.  0.
         11    1    3    3    0    0 -0.22863866075E+03  0.32447742260E+02 -0.22814525537E+03  0.32462093388E+03  0.00000000000E+00 0. -1.
        -11    1    3    3    0    0 -0.57987740878E+03 -0.62523175795E+02 -0.57288767490E+03  0.81753730482E+03  0.00000000000E+00 0.  1.
          4    1    6    6  502    0  0.47783917579E+01 -0.15992365436E+02  0.95398458429E+01  0.19224917132E+02  0.00000000000E+00 0. -1.
          1    1    5    5  503    0  0.61347108880E+02  0.94244019142E+02 -0.94039551247E+01  0.11284430550E+03  0.00000000000E+00 0. -1.
         -2    1    5    5    0  503  0.24940405708E+03  0.23035386082E+03 -0.14508342460E+03  0.36920791565E+03  0.00000000000E+00 0.  1.
         -3    1    6    6    0  502  0.49298651181E+03 -0.27853008099E+03  0.53605408710E+03  0.77972347094E+03  0.00000000000E+00 0.  1.
<mgrwt>
<rscale>  0 0.23882335E+04</rscale>
<asrwt>0</asrwt>
<pdfrwt beam="1">  1        2 0.15486404E+00 0.23882335E+04</pdfrwt>
<pdfrwt beam="2">  1       -2 0.21792963E+00 0.23882335E+04</pdfrwt>
<totfact> 0.22867161E+00</totfact>
</mgrwt>
</event>
<event>
12    1  0.1496989E-007  0.2527426E+04  0.7818608E-02  0.8393279E-01
         -2   -1    0    0    0  501 -0.00000000000E+00  0.00000000000E+00  0.44328513522E+03  0.44328513522E+03  0.00000000000E+00 0.  1.
          2   -1    0    0  501    0  0.00000000000E+00 -0.00000000000E+00 -0.36025817622E+04  0.36025817622E+04  0.00000000000E+00 0. -1.
         23    2    1    2    0    0 -0.76727053579E+03  0.27235195137E+03 -0.25562499481E+04  0.26844141860E+04  0.93734006029E+02 0.  0.
        254    2    1    2    0    0  0.76727053579E+03 -0.27235195137E+03 -0.60304667883E+03  0.13614527115E+04  0.90940009248E+03 0.  0.
        -24    2    4    4    0    0  0.36145586074E+03 -0.10736979133E+03  0.20649775958E+03  0.43733842316E+03  0.80280510129E+02 0.  0.
         24    2    4    4    0    0  0.40581467504E+03 -0.16498216004E+03 -0.80954443841E+03  0.92411428830E+03  0.81977780357E+02 0.  0.
         11    1    3    3    0    0 -0.18609621079E+03  0.37191028824E+02 -0.69291664666E+03  0.71843472321E+03  0.00000000000E+00 0.  1.
        -11    1    3    3    0    0 -0.58117432500E+03  0.23516092254E+03 -0.18633333015E+04  0.19659794627E+04  0.00000000000E+00 0. -1.
          4    1    6    6  502    0  0.34339736173E+03 -0.11760922142E+03 -0.71023300738E+03  0.79761181146E+03  0.00000000000E+00 0. -1.
          3    1    5    5  503    0  0.12641109725E+03 -0.54239946534E+02  0.11597504446E+03  0.17992206159E+03  0.00000000000E+00 0. -1.
         -2    1    5    5    0  503  0.23504476349E+03 -0.53129844798E+02  0.90522715114E+02  0.25741636157E+03  0.00000000000E+00 0.  1.
         -3    1    6    6    0  502  0.62417313317E+02 -0.47372938611E+02 -0.99311431027E+02  0.12650247684E+03  0.00000000000E+00 0.  1.
<mgrwt>
<rscale>  0 0.25274263E+04</rscale>
<asrwt>0</asrwt>
<pdfrwt beam="1">  1        2 0.55424333E+00 0.25274263E+04</pdfrwt>
<pdfrwt beam="2">  1       -2 0.68197715E-01 0.25274263E+04</pdfrwt>
<totfact> 0.12054975E+00</totfact>
</mgrwt>
</event>
<event>
12    1  0.1496989E-007  0.1316247E+04  0.7818608E-02  0.9016779E-01
          2   -1    0    0  501    0  0.00000000000E+00  0.00000000000E+00  0.18172611616E+04  0.18172611616E+04  0.00000000000E+00 0. -1.
         -2   -1    0    0    0  501 -0.00000000000E+00 -0.00000000000E+00 -0.23834026927E+03  0.23834026927E+03  0.00000000000E+00 0.  1.
         23    2    1    2    0    0  0.18156605246E+03  0.37399192076E+03  0.68526162602E+03  0.80608767996E+03  0.85776823716E+02 0.  0.
        254    2    1    2    0    0 -0.18156605246E+03 -0.37399192076E+03  0.89365926630E+03  0.12495137509E+04  0.76799839925E+03 0.  0.
        -24    2    4    4    0    0 -0.40775762400E+03 -0.17027145475E+03  0.80760522439E+03  0.92434352810E+03  0.83223261490E+02 0.  0.
         24    2    4    4    0    0  0.22619157154E+03 -0.20372046601E+03  0.86054041907E+02  0.32517022280E+03  0.75270979531E+02 0.  0.
         13    1    3    3    0    0  0.52792319350E+02  0.40177259653E+02  0.11963231105E+03  0.13679594666E+03  0.00000000000E+00 0.  1.
        -13    1    3    3    0    0  0.12877373311E+03  0.33381466111E+03  0.56562931498E+03  0.66929173330E+03  0.00000000000E+00 0. -1.
          4    1    6    6  502    0  0.19827627942E+03 -0.20487619118E+03  0.72861259749E+02  0.29427283236E+03  0.00000000000E+00 0. -1.
          1    1    5    5  503    0 -0.30512180969E+03 -0.14614053015E+03  0.54635066522E+03  0.64261607721E+03  0.00000000000E+00 0. -1.
         -2    1    5    5    0  503 -0.10263581431E+03 -0.24130924602E+02  0.26125455917E+03  0.28172745090E+03  0.00000000000E+00 0.  1.
         -3    1    6    6    0  502  0.27915292115E+02  0.11557251723E+01  0.13192782158E+02  0.30897390434E+02  0.00000000000E+00 0.  1.
<mgrwt>
<rscale>  0 0.13162470E+04</rscale>
<asrwt>0</asrwt>
<pdfrwt beam="1">  1        2 0.27957863E+00 0.13162470E+04</pdfrwt>
<pdfrwt beam="2">  1       -2 0.36667735E-01 0.13162470E+04</pdfrwt>
<totfact> 0.57894361E+01</totfact>
</mgrwt>
</event>
<event>
12    1  0.1496989E-007  0.1596142E+04  0.7818608E-02  0.8822921E-01
          2   -1    0    0  501    0  0.00000000000E+00  0.00000000000E+00  0.13130598492E+04  0.13130598492E+04  0.00000000000E+00 0. -1.
         -2   -1    0    0    0  501 -0.00000000000E+00 -0.00000000000E+00 -0.48506359425E+03  0.48506359425E+03  0.00000000000E+00 0.  1.
         23    2    1    2    0    0  0.31358640954E+03 -0.57055133048E+02 -0.21308856424E+03  0.39386787340E+03  0.90185592150E+02 0.  0.
        254    2    1    2    0    0 -0.31358640954E+03  0.57055133048E+02  0.10410848192E+04  0.14042555700E+04  0.88683954623E+03 0.  0.
        -24    2    4    4    0    0 -0.19317819099E+03  0.42031755037E+03  0.27417004237E+03  0.54355100079E+03  0.79333610168E+02 0.  0.
         24    2    4    4    0    0 -0.12040821855E+03 -0.36326241732E+03  0.76691477679E+03  0.86070456922E+03  0.78716946593E+02 0.  0.
         13    1    3    3    0    0  0.31859000694E+02  0.27231982570E+01 -0.59319689712E+02  0.67388703219E+02  0.00000000000E+00 0. -1.
        -13    1    3    3    0    0  0.28172740884E+03 -0.59778331305E+02 -0.15376887453E+03  0.32647917018E+03  0.00000000000E+00 0.  1.
          4    1    6    6  502    0 -0.69400940184E+02 -0.25001617820E+03  0.59010142555E+03  0.64462723515E+03  0.00000000000E+00 0. -1.
          3    1    5    5  503    0 -0.87520656254E+02  0.14618536854E+03  0.62634398973E+02  0.18152987407E+03  0.00000000000E+00 0. -1.
         -4    1    5    5    0  503 -0.10565753474E+03  0.27413218184E+03  0.21153564340E+03  0.36202112672E+03  0.00000000000E+00 0.  1.
         -3    1    6    6    0  502 -0.51007278361E+02 -0.11324623913E+03  0.17681335124E+03  0.21607733407E+03  0.00000000000E+00 0.  1.
<mgrwt>
<rscale>  0 0.15961423E+04</rscale>
<asrwt>0</asrwt>
<pdfrwt beam="1">  1        2 0.20200921E+00 0.15961423E+04</pdfrwt>
<pdfrwt beam="2">  1       -2 0.74625169E-01 0.15961423E+04</pdfrwt>
<totfact> 0.25159906E+01</totfact>
</mgrwt>
</event>
<event>
12    1  0.1496989E-007  0.1955779E+04  0.7818608E-02  0.8627579E-01
          2   -1    0    0  501    0  0.00000000000E+00  0.00000000000E+00  0.26591207337E+04  0.26591207337E+04  0.00000000000E+00 0. -1.
         -2   -1    0    0    0  501 -0.00000000000E+00 -0.00000000000E+00 -0.35961793464E+03  0.35961793464E+03  0.00000000000E+00 0.  1.
         23    2    1    2    0    0  0.50183383046E+03 -0.23445626196E+03  0.10774484419E+03  0.57194226829E+03  0.93284911073E+02 0.  0.
        254    2    1    2    0    0 -0.50183383046E+03  0.23445626196E+03  0.21917579548E+04  0.24467964000E+04  0.93605702730E+03 0.  0.
        -24    2    4    4    0    0 -0.45763037667E+03  0.18665480367E+03  0.22656466066E+04  0.23203331563E+04  0.80782624666E+02 0.  0.
         24    2    4    4    0    0 -0.44203453795E+02  0.47801458290E+02 -0.73888651809E+02  0.12646324375E+03  0.79337849811E+02 0.  0.
         13    1    3    3    0    0  0.16640075357E+03 -0.12713691353E+03  0.34761090476E+02  0.21227656249E+03  0.00000000000E+00 0. -1.
        -13    1    3    3    0    0  0.33543307689E+03 -0.10731934843E+03  0.72983753710E+02  0.35966570579E+03  0.00000000000E+00 0.  1.
          4    1    6    6  502    0 -0.47372794395E+02  0.65202680638E+02 -0.73020266588E+02  0.10875445069E+03  0.00000000000E+00 0. -1.
          1    1    5    5  503    0 -0.45324623717E+03  0.18915092116E+03  0.21844569653E+04  0.22389869262E+04  0.00000000000E+00 0. -1.
         -2    1    5    5    0  503 -0.43841394944E+01 -0.24961174883E+01  0.81189641320E+02  0.81346230026E+02  0.00000000000E+00 0.  1.
         -3    1    6    6    0  502  0.31693406001E+01 -0.17401222348E+02 -0.86838522029E+00  0.17708793069E+02  0.00000000000E+00 0.  1.
<mgrwt>
<rscale>  0 0.19557786E+04</rscale>
<asrwt>0</asrwt>
<pdfrwt beam="1">  1        2 0.40909549E+00 0.19557786E+04</pdfrwt>
<pdfrwt beam="2">  1       -2 0.55325838E-01 0.19557786E+04</pdfrwt>
<totfact> 0.80504744E+00</totfact>
</mgrwt>
</event>
<event>
12    1  0.1496989E-007  0.1614171E+04  0.7818608E-02  0.8811889E-01
         -2   -1    0    0    0  501 -0.00000000000E+00  0.00000000000E+00  0.27307149040E+03  0.27307149040E+03  0.00000000000E+00 0.  1.
          2   -1    0    0  501    0  0.00000000000E+00 -0.00000000000E+00 -0.23854092934E+04  0.23854092934E+04  0.00000000000E+00 0. -1.
         23    2    1    2    0    0  0.73876002656E+02  0.37139473110E+03 -0.73958338967E+02  0.39663583907E+03  0.91969793291E+02 0.  0.
        254    2    1    2    0    0 -0.73876002656E+02 -0.37139473110E+03 -0.20383794641E+04  0.22618449448E+04  0.90419024800E+03 0.  0.
        -24    2    4    4    0    0  0.31423182242E+03 -0.28310627350E+02 -0.13915117581E+04  0.14291467775E+04  0.81316719202E+02 0.  0.
         24    2    4    4    0    0 -0.38810782507E+03 -0.34308410375E+03 -0.64686770592E+03  0.83269816724E+03  0.81326641564E+02 0.  0.
         11    1    3    3    0    0  0.18170470067E+02  0.41748592578E+02  0.19450722202E+02  0.49512034485E+02  0.00000000000E+00 0. -1.
        -11    1    3    3    0    0  0.55705532589E+02  0.32964613852E+03 -0.93409061169E+02  0.34712380459E+03  0.00000000000E+00 0.  1.
          4    1    6    6  502    0 -0.10728657235E+03 -0.51252226132E+02 -0.16162115633E+03  0.20064545214E+03  0.00000000000E+00 0. -1.
          3    1    5    5  503    0  0.24124075590E+03 -0.54192076443E+02 -0.10066323759E+04  0.10365532421E+04  0.00000000000E+00 0. -1.
         -4    1    5    5    0  503  0.72991066520E+02  0.25881449092E+02 -0.38487938222E+03  0.39259353542E+03  0.00000000000E+00 0.  1.
         -3    1    6    6    0  502 -0.28082125273E+03 -0.29183187762E+03 -0.48524654959E+03  0.63205271510E+03  0.00000000000E+00 0.  1.
<mgrwt>
<rscale>  0 0.16141713E+04</rscale>
<asrwt>0</asrwt>
<pdfrwt beam="1">  1        2 0.36698606E+00 0.16141713E+04</pdfrwt>
<pdfrwt beam="2">  1       -2 0.42010997E-01 0.16141713E+04</pdfrwt>
<totfact> 0.20876805E+01</totfact>
</mgrwt>
</event>
<event>
12    1  0.1496989E-007  0.1825268E+04  0.7818608E-02  0.8692976E-01
         -2   -1    0    0    0  501 -0.00000000000E+00  0.00000000000E+00  0.24267841643E+03  0.24267841643E+03  0.00000000000E+00 0.  1.
          2   -1    0    0  501    0  0.00000000000E+00 -0.00000000000E+00 -0.34321180393E+04  0.34321180393E+04  0.00000000000E+00 0. -1.
         23    2    1    2    0    0  0.21126560735E+03 -0.34768747562E+03 -0.97221195552E+02  0.42773144147E+03  0.89344768208E+02 0.  0.
        254    2    1    2    0    0 -0.21126560735E+03  0.34768747562E+03 -0.30922184273E+04  0.32470650143E+04  0.90338068778E+03 0.  0.
        -24    2    4    4    0    0 -0.19195934324E+03  0.57224762811E+02 -0.96564751087E+02  0.23626826277E+03  0.79842832525E+02 0.  0.
         24    2    4    4    0    0 -0.19306264116E+02  0.29046271281E+03 -0.29956536762E+04  0.30107967515E+04  0.78834075811E+02 0.  0.
         13    1    3    3    0    0  0.63752203306E+02 -0.42512682228E+02 -0.68402300723E+01  0.76931530104E+02  0.00000000000E+00 0. -1.
        -13    1    3    3    0    0  0.14751340405E+03 -0.30517479339E+03 -0.90380965480E+02  0.35079991137E+03  0.00000000000E+00 0.  1.
          4    1    6    6  502    0 -0.27847099886E+02  0.26153992356E+03 -0.23976623067E+04  0.24120454244E+04  0.00000000000E+00 0. -1.
          1    1    5    5  503    0 -0.18559674280E+03  0.69870802471E+02 -0.78421834001E+02  0.21325586516E+03  0.00000000000E+00 0. -1.
         -2    1    5    5    0  503 -0.63626004317E+01 -0.12646039660E+02 -0.18142917086E+02  0.23012397609E+02  0.00000000000E+00 0.  1.
         -3    1    6    6    0  502  0.85408357699E+01  0.28922789252E+02 -0.59799136953E+03  0.59875132706E+03  0.00000000000E+00 0.  1.
<mgrwt>
<rscale>  0 0.18252682E+04</rscale>
<asrwt>0</asrwt>
<pdfrwt beam="1">  1        2 0.52801813E+00 0.18252682E+04</pdfrwt>
<pdfrwt beam="2">  1       -2 0.37335143E-01 0.18252682E+04</pdfrwt>
<totfact> 0.58173340E+00</totfact>
</mgrwt>
</event>
<event>
12    1  0.1496989E-007  0.3259287E+04  0.7818608E-02  0.8173333E-01
          2   -1    0    0  501    0  0.00000000000E+00  0.00000000000E+00  0.16425773687E+04  0.16425773687E+04  0.00000000000E+00 0. -1.
         -2   -1    0    0    0  501 -0.00000000000E+00 -0.00000000000E+00 -0.16168117282E+04  0.16168117282E+04  0.00000000000E+00 0.  1.
         23    2    1    2    0    0 -0.43665125960E+03  0.80711922745E+03  0.11946132836E+04  0.15099750825E+04  0.10401001189E+03 0.  0.
        254    2    1    2    0    0  0.43665125960E+03 -0.80711922745E+03 -0.11688476431E+04  0.17494140144E+04  0.92311365027E+03 0.  0.
        -24    2    4    4    0    0  0.27028559419E+03 -0.74008145582E+03 -0.28119205076E+03  0.84039644263E+03  0.80139551493E+02 0.  0.
         24    2    4    4    0    0  0.16636566541E+03 -0.67037771631E+02 -0.88765559233E+03  0.90901757180E+03  0.78796559490E+02 0.  0.
         11    1    3    3    0    0 -0.20000853009E+03  0.30367960097E+03  0.40780818889E+03  0.54638103104E+03  0.00000000000E+00 0. -1.
        -11    1    3    3    0    0 -0.23664272950E+03  0.50343962647E+03  0.78680509467E+03  0.96359405142E+03  0.00000000000E+00 0.  1.
          2    1    6    6  502    0  0.62266040493E+02 -0.27110061731E+02 -0.53142291294E+03  0.53574464779E+03  0.00000000000E+00 0. -1.
          3    1    5    5  503    0  0.19622141629E+03 -0.50335570712E+03 -0.22976915100E+03  0.58708063743E+03  0.00000000000E+00 0. -1.
         -4    1    5    5    0  503  0.74064177898E+02 -0.23672574870E+03 -0.51422899759E+02  0.25331580520E+03  0.00000000000E+00 0.  1.
         -1    1    6    6    0  502  0.10409962492E+03 -0.39927709900E+02 -0.35623267939E+03  0.37327292400E+03  0.00000000000E+00 0.  1.
<mgrwt>
<rscale>  0 0.32592873E+04</rscale>
<asrwt>0</asrwt>
<pdfrwt beam="1">  1        2 0.25270421E+00 0.32592873E+04</pdfrwt>
<pdfrwt beam="2">  1       -2 0.24874026E+00 0.32592873E+04</pdfrwt>
<totfact> 0.57876764E-01</totfact>
</mgrwt>
</event>
<event>
12    1  0.1496989E-007  0.1477253E+04  0.7818608E-02  0.8899722E-01
         -2   -1    0    0    0  501 -0.00000000000E+00  0.00000000000E+00  0.16676438120E+03  0.16676438120E+03  0.00000000000E+00 0.  1.
          2   -1    0    0  501    0  0.00000000000E+00 -0.00000000000E+00 -0.32714958798E+04  0.32714958798E+04  0.00000000000E+00 0. -1.
         23    2    1    2    0    0 -0.11181312519E+03 -0.97549003123E+02  0.29151773716E+02  0.17569665243E+03  0.89451130738E+02 0.  0.
        254    2    1    2    0    0  0.11181312519E+03  0.97549003123E+02 -0.31338832723E+04  0.32625636086E+04  0.89503014051E+03 0.  0.
        -24    2    4    4    0    0  0.48104721021E+02 -0.22437724823E+03 -0.21175996593E+03  0.32100477638E+03  0.74448435728E+02 0.  0.
         24    2    4    4    0    0  0.63708404171E+02  0.32192625135E+03 -0.29221233064E+04  0.29415588322E+04  0.79173691194E+02 0.  0.
         13    1    3    3    0    0 -0.10778765120E+03 -0.10213394297E+03  0.47864380857E+02  0.15601448334E+03  0.00000000000E+00 0.  1.
        -13    1    3    3    0    0 -0.40254739925E+01  0.45849398446E+01 -0.18712607141E+02  0.19682169094E+02  0.00000000000E+00 0. -1.
          4    1    6    6  502    0  0.56042299405E+02  0.26583888223E+03 -0.26304496332E+04  0.26444425355E+04  0.00000000000E+00 0. -1.
          1    1    5    5  503    0  0.36009921415E+02 -0.13834284547E+03 -0.17677989281E+03  0.22734684479E+03  0.00000000000E+00 0. -1.
         -2    1    5    5    0  503  0.12094799606E+02 -0.86034402755E+02 -0.34980073124E+02  0.93657931595E+02  0.00000000000E+00 0.  1.
         -3    1    6    6    0  502  0.76661047655E+01  0.56087369123E+02 -0.29167367317E+03  0.29711629669E+03  0.00000000000E+00 0.  1.
<mgrwt>
<rscale>  0 0.14772528E+04</rscale>
<asrwt>0</asrwt>
<pdfrwt beam="1">  1        2 0.50330706E+00 0.14772528E+04</pdfrwt>
<pdfrwt beam="2">  1       -2 0.25656059E-01 0.14772528E+04</pdfrwt>
<totfact> 0.15587095E+01</totfact>
</mgrwt>
</event>
<event>
12    1  0.1496989E-007  0.1153605E+04  0.7818608E-02  0.9154465E-01
          2   -1    0    0  501    0  0.00000000000E+00  0.00000000000E+00  0.10959175835E+04  0.10959175835E+04  0.00000000000E+00 0. -1.
         -2   -1    0    0    0  501 -0.00000000000E+00 -0.00000000000E+00 -0.30358199231E+03  0.30358199231E+03  0.00000000000E+00 0.  1.
         23    2    1    2    0    0  0.28211449513E+02 -0.21395058173E+03  0.13458612790E+03  0.26969967680E+03  0.89742701850E+02 0.  0.
        254    2    1    2    0    0 -0.28211449513E+02  0.21395058173E+03  0.65774946333E+03  0.11297998991E+04  0.89288449314E+03 0.  0.
        -24    2    4    4    0    0  0.21513953611E+03 -0.27847775547E+03  0.21800504254E+03  0.42151699728E+03  0.79470121028E+02 0.  0.
         24    2    4    4    0    0 -0.24335098562E+03  0.49242833720E+03  0.43974442079E+03  0.70828290178E+03  0.81142737535E+02 0.  0.
         11    1    3    3    0    0  0.24555338262E+02 -0.12114935094E+03  0.25112032888E+02  0.12613779793E+03  0.00000000000E+00 0. -1.
        -11    1    3    3    0    0  0.36561112511E+01 -0.92801230787E+02  0.10947409501E+03  0.14356187887E+03  0.00000000000E+00 0.  1.
          4    1    6    6  502    0 -0.20898269321E+03  0.36232634569E+03  0.35999809966E+03  0.55186300709E+03  0.00000000000E+00 0. -1.
          3    1    5    5  503    0  0.14825900560E+03 -0.13129459955E+03  0.10389953968E+03  0.22363836647E+03  0.00000000000E+00 0. -1.
         -4    1    5    5    0  503  0.66880530505E+02 -0.14718315593E+03  0.11410550286E+03  0.19787863081E+03  0.00000000000E+00 0.  1.
         -3    1    6    6    0  502 -0.34368292409E+02  0.13010199152E+03  0.79746321129E+02  0.15641989468E+03  0.00000000000E+00 0.  1.
<mgrwt>
<rscale>  0 0.11536045E+04</rscale>
<asrwt>0</asrwt>
<pdfrwt beam="1">  1        2 0.16860270E+00 0.11536045E+04</pdfrwt>
<pdfrwt beam="2">  1       -2 0.46704922E-01 0.11536045E+04</pdfrwt>
<totfact> 0.94210299E+01</totfact>
</mgrwt>
</event>
<event>
12    1  0.1496989E-007  0.1258769E+04  0.7818608E-02  0.9062916E-01
          2   -1    0    0  501    0  0.00000000000E+00  0.00000000000E+00  0.12966793523E+04  0.12966793523E+04  0.00000000000E+00 0. -1.
         -2   -1    0    0    0  501 -0.00000000000E+00 -0.00000000000E+00 -0.30549195501E+03  0.30549195501E+03  0.00000000000E+00 0.  1.
         23    2    1    2    0    0 -0.55588543006E+02  0.69835764929E+02 -0.10733067206E+03  0.16606194715E+03  0.89942075520E+02 0.  0.
        254    2    1    2    0    0  0.55588543006E+02 -0.69835764929E+02  0.10985180693E+04  0.14361093602E+04  0.92070680756E+03 0.  0.
        -24    2    4    4    0    0  0.34194298904E+03 -0.23244183724E+03  0.99605384880E+03  0.10811548073E+04  0.76277337318E+02 0.  0.
         24    2    4    4    0    0 -0.28635444604E+03  0.16260607231E+03  0.10246422053E+03  0.35495455285E+03  0.83989371845E+02 0.  0.
         13    1    3    3    0    0 -0.58264321161E+00 -0.20660466308E+02 -0.20541753096E+02  0.29140315054E+02  0.00000000000E+00 0. -1.
        -13    1    3    3    0    0 -0.55005899794E+02  0.90496231237E+02 -0.86788918962E+02  0.13692163209E+03  0.00000000000E+00 0.  1.
          2    1    6    6  502    0 -0.22961991879E+03  0.16501525815E+03  0.90785564185E+02  0.29698040540E+03  0.00000000000E+00 0. -1.
          3    1    5    5  503    0  0.16475350508E+03 -0.15219722330E+03  0.58069285289E+03  0.62250453943E+03  0.00000000000E+00 0. -1.
         -4    1    5    5    0  503  0.17718948397E+03 -0.80244613938E+02  0.41536099591E+03  0.45865026787E+03  0.00000000000E+00 0.  1.
         -1    1    6    6    0  502 -0.56734527247E+02 -0.24091858426E+01  0.11678656348E+02  0.57974147449E+02  0.00000000000E+00 0.  1.
<mgrwt>
<rscale>  0 0.12587694E+04</rscale>
<asrwt>0</asrwt>
<pdfrwt beam="1">  1        2 0.19948913E+00 0.12587694E+04</pdfrwt>
<pdfrwt beam="2">  1       -2 0.46998763E-01 0.12587694E+04</pdfrwt>
<totfact> 0.70015030E+01</totfact>
</mgrwt>
</event>
<event>
12    1  0.1496989E-007  0.1477084E+04  0.7818608E-02  0.8899836E-01
          2   -1    0    0  501    0  0.00000000000E+00  0.00000000000E+00  0.64768503440E+03  0.64768503440E+03  0.00000000000E+00 0. -1.
         -2   -1    0    0    0  501 -0.00000000000E+00 -0.00000000000E+00 -0.84214453198E+03  0.84214453198E+03  0.00000000000E+00 0.  1.
         23    2    1    2    0    0  0.15848375702E+03 -0.21949686402E+03  0.30426172043E+03  0.41785508250E+03  0.93443570653E+02 0.  0.
        254    2    1    2    0    0 -0.15848375702E+03  0.21949686402E+03 -0.49872121800E+03  0.10719744839E+04  0.90945613762E+03 0.  0.
        -24    2    4    4    0    0 -0.48870551840E+03 -0.22373517897E+02 -0.12314319883E+03  0.51071676091E+03  0.79584574151E+02 0.  0.
         24    2    4    4    0    0  0.33022176138E+03  0.24187038191E+03 -0.37557801918E+03  0.56125772297E+03  0.80023057722E+02 0.  0.
         11    1    3    3    0    0  0.15927245840E+03 -0.22073799693E+03  0.30964310049E+03  0.41227639876E+03  0.00000000000E+00 0. -1.
        -11    1    3    3    0    0 -0.78870138202E+00  0.12411329149E+01 -0.53813800640E+01  0.55786837315E+01  0.00000000000E+00 0.  1.
          2    1    6    6  502    0  0.57859855845E+02  0.83521340799E+02 -0.10261911221E+03  0.14441003939E+03  0.00000000000E+00 0. -1.
          3    1    5    5  503    0 -0.50076600301E+02  0.87115258701E+01 -0.36388582166E+02  0.62511482887E+02  0.00000000000E+00 0. -1.
         -4    1    5    5    0  503 -0.43862891810E+03 -0.31085043767E+02 -0.86754616660E+02  0.44820527803E+03  0.00000000000E+00 0.  1.
         -1    1    6    6    0  502  0.27236190553E+03  0.15834904111E+03 -0.27295890697E+03  0.41684768357E+03  0.00000000000E+00 0.  1.
<mgrwt>
<rscale>  0 0.14770842E+04</rscale>
<asrwt>0</asrwt>
<pdfrwt beam="1">  1        2 0.99643853E-01 0.14770842E+04</pdfrwt>
<pdfrwt beam="2">  1       -2 0.12956070E+00 0.14770842E+04</pdfrwt>
<totfact> 0.19139941E+01</totfact>
</mgrwt>
</event>
<event>
12    1  0.1496989E-007  0.1571804E+04  0.7818608E-02  0.8838060E-01
          1   -1    0    0  501    0  0.00000000000E+00  0.00000000000E+00  0.25316068053E+04  0.25316068053E+04  0.00000000000E+00 0. -1.
         -1   -1    0    0    0  501 -0.00000000000E+00 -0.00000000000E+00 -0.24397226937E+03  0.24397226937E+03  0.00000000000E+00 0.  1.
         23    2    1    2    0    0 -0.34074117006E+03  0.35715202962E+03  0.48652189480E+03  0.70288563313E+03  0.11697239804E+03 0.  0.
        254    2    1    2    0    0  0.34074117006E+03 -0.35715202962E+03  0.18011126412E+04  0.20726934416E+04  0.89910468765E+03 0.  0.
        -24    2    4    4    0    0 -0.27281831448E+03 -0.12810031108E+03  0.29784610775E+03  0.43115766486E+03  0.79656171425E+02 0.  0.
         24    2    4    4    0    0  0.61355948454E+03 -0.22905171854E+03  0.15032665334E+04  0.16415357767E+04  0.76873304506E+02 0.  0.
         13    1    3    3    0    0 -0.31812019760E+02  0.91003845721E+02  0.12561283298E+03  0.15834231382E+03  0.00000000000E+00 0. -1.
        -13    1    3    3    0    0 -0.30892915030E+03  0.26614818390E+03  0.36090906182E+03  0.54454331931E+03  0.00000000000E+00 0.  1.
          2    1    6    6  502    0  0.28819822430E+03 -0.14760482218E+03  0.75946488749E+03  0.82561026844E+03  0.00000000000E+00 0. -1.
          3    1    5    5  503    0 -0.13050640466E+03 -0.39097286350E+02  0.86953763926E+02  0.16162139870E+03  0.00000000000E+00 0. -1.
         -4    1    5    5    0  503 -0.14231190982E+03 -0.89003024732E+02  0.21089234383E+03  0.26953626615E+03  0.00000000000E+00 0.  1.
         -1    1    6    6    0  502  0.32536126024E+03 -0.81446896359E+02  0.74380164591E+03  0.81592550827E+03  0.00000000000E+00 0.  1.
<mgrwt>
<rscale>  0 0.15718039E+04</rscale>
<asrwt>0</asrwt>
<pdfrwt beam="1">  1        1 0.38947795E+00 0.15718039E+04</pdfrwt>
<pdfrwt beam="2">  1       -1 0.37534197E-01 0.15718039E+04</pdfrwt>
<totfact> 0.84922311E+00</totfact>
</mgrwt>
</event>
<event>
12    1  0.1496989E-007  0.1956397E+04  0.7818608E-02  0.8627282E-01
          2   -1    0    0  501    0  0.00000000000E+00  0.00000000000E+00  0.89692158736E+03  0.89692158736E+03  0.00000000000E+00 0. -1.
         -2   -1    0    0    0  501 -0.00000000000E+00 -0.00000000000E+00 -0.10668408354E+04  0.10668408354E+04  0.00000000000E+00 0.  1.
         23    2    1    2    0    0  0.19482151078E+03 -0.55109456126E+03  0.44368323240E+03  0.74036074553E+03  0.98074391636E+02 0.  0.
        254    2    1    2    0    0 -0.19482151078E+03  0.55109456126E+03 -0.61360248045E+03  0.12234016772E+04  0.88235085049E+03 0.  0.
        -24    2    4    4    0    0  0.22221936995E+03  0.36815205375E+03 -0.62229381351E+03  0.76053430188E+03  0.79028165481E+02 0.  0.
         24    2    4    4    0    0 -0.41704088073E+03  0.18294250751E+03  0.86913330661E+01  0.46286737536E+03  0.82338391126E+02 0.  0.
         13    1    3    3    0    0  0.98406296602E+02 -0.38221588532E+03  0.33438177887E+03  0.51728517883E+03  0.00000000000E+00 0. -1.
        -13    1    3    3    0    0  0.96415214177E+02 -0.16887867594E+03  0.10930145353E+03  0.22307556669E+03  0.00000000000E+00 0.  1.
          4    1    6    6  502    0 -0.49927007887E+02  0.44015822269E+02 -0.19437601494E+02  0.69339159776E+02  0.00000000000E+00 0. -1.
          1    1    5    5  503    0  0.32983013114E+02  0.64140531234E+02 -0.59625767353E+02  0.93579479767E+02  0.00000000000E+00 0. -1.
         -2    1    5    5    0  503  0.18923635683E+03  0.30401152251E+03 -0.56266804616E+03  0.66695482211E+03  0.00000000000E+00 0.  1.
         -3    1    6    6    0  502 -0.36711387284E+03  0.13892668524E+03  0.28128934560E+02  0.39352821559E+03  0.00000000000E+00 0.  1.
<mgrwt>
<rscale>  0 0.19563973E+04</rscale>
<asrwt>0</asrwt>
<pdfrwt beam="1">  1        2 0.13798794E+00 0.19563973E+04</pdfrwt>
<pdfrwt beam="2">  1       -2 0.16412936E+00 0.19563973E+04</pdfrwt>
<totfact> 0.64509356E+00</totfact>
</mgrwt>
</event>
<event>
12    1  0.1496989E-007  0.1242614E+04  0.7818608E-02  0.9076353E-01
         -1   -1    0    0    0  501 -0.00000000000E+00  0.00000000000E+00  0.85196919530E+03  0.85196919530E+03  0.00000000000E+00 0.  1.
          1   -1    0    0  501    0  0.00000000000E+00 -0.00000000000E+00 -0.45309396884E+03  0.45309396884E+03  0.00000000000E+00 0. -1.
         23    2    1    2    0    0 -0.70638447388E+02  0.25786360157E+03 -0.87786712964E+01  0.28256166981E+03  0.90997829162E+02 0.  0.
        254    2    1    2    0    0  0.70638447388E+02 -0.25786360157E+03  0.40765389776E+03  0.10225014943E+04  0.89880152331E+03 0.  0.
        -24    2    4    4    0    0  0.42825800833E+03 -0.34890205414E+03  0.21295670491E+03  0.59744022723E+03  0.80291356076E+02 0.  0.
         24    2    4    4    0    0 -0.35761956094E+03  0.91038452570E+02  0.19469719285E+03  0.42506126711E+03  0.81180870135E+02 0.  0.
         11    1    3    3    0    0 -0.79673790472E+02  0.20070802810E+03 -0.35469681032E+02  0.21883720823E+03  0.00000000000E+00 0. -1.
        -11    1    3    3    0    0  0.90353430845E+01  0.57155573468E+02  0.26691009736E+02  0.63724461581E+02  0.00000000000E+00 0.  1.
          2    1    6    6  502    0 -0.11795597418E+03 -0.83557955789E+01  0.55599378647E+02  0.13067027998E+03  0.00000000000E+00 0. -1.
          3    1    5    5  503    0  0.60249116358E+02 -0.55200090481E+02  0.26241364188E+01  0.81755073867E+02  0.00000000000E+00 0. -1.
         -4    1    5    5    0  503  0.36800889197E+03 -0.29370196366E+03  0.21033256849E+03  0.51568515336E+03  0.00000000000E+00 0.  1.
         -1    1    6    6    0  502 -0.23966358677E+03  0.99394248149E+02  0.13909781420E+03  0.29439098713E+03  0.00000000000E+00 0.  1.
<mgrwt>
<rscale>  0 0.12426135E+04</rscale>
<asrwt>0</asrwt>
<pdfrwt beam="1">  1        1 0.69706765E-01 0.12426135E+04</pdfrwt>
<pdfrwt beam="2">  1       -1 0.13107218E+00 0.12426135E+04</pdfrwt>
<totfact> 0.24868814E+01</totfact>
</mgrwt>
</event>
<event>
12    1  0.1496989E-007  0.1354467E+04  0.7818608E-02  0.8987453E-01
          2   -1    0    0  501    0  0.00000000000E+00  0.00000000000E+00  0.21243283265E+04  0.21243283265E+04  0.00000000000E+00 0. -1.
         -2   -1    0    0    0  501 -0.00000000000E+00 -0.00000000000E+00 -0.21590142144E+03  0.21590142144E+03  0.00000000000E+00 0.  1.
         23    2    1    2    0    0  0.36256444566E+03  0.32921840245E+02  0.46528659327E+03  0.59787709672E+03  0.91807320386E+02 0.  0.
        254    2    1    2    0    0 -0.36256444566E+03 -0.32921840245E+02  0.14431403118E+04  0.17423526512E+04  0.90587083895E+03 0.  0.
        -24    2    4    4    0    0 -0.64322390334E+03  0.91164563204E+02  0.88938134161E+03  0.11042784321E+04  0.79898168444E+02 0.  0.
         24    2    4    4    0    0  0.28065945767E+03 -0.12408640345E+03  0.55375897014E+03  0.63807421911E+03  0.79514435049E+02 0.  0.
         13    1    3    3    0    0  0.50898767982E+02  0.20783971374E+02  0.30763688437E+02  0.63000496621E+02  0.00000000000E+00 0. -1.
        -13    1    3    3    0    0  0.31166567768E+03  0.12137868871E+02  0.43452290483E+03  0.53487660009E+03  0.00000000000E+00 0.  1.
          4    1    6    6  502    0  0.27314229767E+03 -0.10056510516E+03  0.52391648485E+03  0.59934008563E+03  0.00000000000E+00 0. -1.
          1    1    5    5  503    0 -0.51606552198E+03  0.45706276522E+02  0.67486909920E+03  0.85080020436E+03  0.00000000000E+00 0. -1.
         -2    1    5    5    0  503 -0.12715838136E+03  0.45458286682E+02  0.21451224241E+03  0.25347822771E+03  0.00000000000E+00 0.  1.
         -3    1    6    6    0  502  0.75171600012E+01 -0.23521298291E+02  0.29842485296E+02  0.38734133480E+02  0.00000000000E+00 0.  1.
<mgrwt>
<rscale>  0 0.13544674E+04</rscale>
<asrwt>0</asrwt>
<pdfrwt beam="1">  1        2 0.32681973E+00 0.13544674E+04</pdfrwt>
<pdfrwt beam="2">  1       -2 0.33215605E-01 0.13544674E+04</pdfrwt>
<totfact> 0.47132274E+01</totfact>
</mgrwt>
</event>
<event>
12    1  0.1496989E-007  0.3317514E+04  0.7818608E-02  0.8158453E-01
         -3   -1    0    0    0  501 -0.00000000000E+00  0.00000000000E+00  0.62564511960E+03  0.62564511960E+03  0.00000000000E+00 0.  1.
          3   -1    0    0  501    0  0.00000000000E+00 -0.00000000000E+00 -0.43978206361E+04  0.43978206361E+04  0.00000000000E+00 0. -1.
         23    2    1    2    0    0 -0.11162438795E+04 -0.17789063639E+03 -0.33257478676E+04  0.35137384757E+04  0.90076185924E+02 0.  0.
        254    2    1    2    0    0  0.11162438795E+04  0.17789063639E+03 -0.44642764883E+03  0.15097272800E+04  0.89573061651E+03 0.  0.
        -24    2    4    4    0    0  0.43451056896E+03 -0.10384986858E+03 -0.60014608748E+03  0.75256122566E+03  0.81171684118E+02 0.  0.
         24    2    4    4    0    0  0.68173331052E+03  0.28174050497E+03  0.15371843865E+03  0.75716605435E+03  0.74384518934E+02 0.  0.
         11    1    3    3    0    0 -0.12920678420E+03 -0.30813652687E+02 -0.31315279805E+03  0.34015959372E+03  0.00000000000E+00 0.  1.
        -11    1    3    3    0    0 -0.98703709528E+03 -0.14707698371E+03 -0.30125950696E+04  0.31735788820E+04  0.00000000000E+00 0. -1.
          4    1    6    6  502    0  0.36849962141E+03  0.19222512076E+03  0.86955816285E+02  0.42462192833E+03  0.00000000000E+00 0. -1.
          1    1    5    5  503    0  0.11486717298E+03 -0.17064865710E+02 -0.10323255600E+03  0.15537901303E+03  0.00000000000E+00 0. -1.
         -2    1    5    5    0  503  0.31964339598E+03 -0.86785002870E+02 -0.49691353148E+03  0.59718221264E+03  0.00000000000E+00 0.  1.
         -3    1    6    6    0  502  0.31323368911E+03  0.89515384213E+02  0.66762622368E+02  0.33254412602E+03  0.00000000000E+00 0.  1.
<mgrwt>
<rscale>  0 0.33175141E+04</rscale>
<asrwt>0</asrwt>
<pdfrwt beam="1">  1        3 0.67658779E+00 0.33175141E+04</pdfrwt>
<pdfrwt beam="2">  1       -3 0.96253095E-01 0.33175141E+04</pdfrwt>
<totfact> 0.93068737E-04</totfact>
</mgrwt>
</event>
<event>
12    1  0.1496989E-007  0.1148865E+04  0.7818608E-02  0.9158831E-01
          1   -1    0    0  501    0  0.00000000000E+00  0.00000000000E+00  0.88499314104E+03  0.88499314104E+03  0.00000000000E+00 0. -1.
         -1   -1    0    0    0  501 -0.00000000000E+00 -0.00000000000E+00 -0.37285336984E+03  0.37285336984E+03  0.00000000000E+00 0.  1.
         23    2    1    2    0    0 -0.13914298417E+03 -0.14326507466E+03 -0.71480493521E+02  0.23105642804E+03  0.91607643378E+02 0.  0.
        254    2    1    2    0    0  0.13914298417E+03  0.14326507466E+03  0.58362026472E+03  0.10267900828E+04  0.82085297657E+03 0.  0.
        -24    2    4    4    0    0  0.45510893646E+03  0.37764297062E+02  0.18137059172E+03  0.49845012700E+03  0.83707534845E+02 0.  0.
         24    2    4    4    0    0 -0.31596595229E+03  0.10550077760E+03  0.40224967301E+03  0.52833995583E+03  0.79833654607E+02 0.  0.
         11    1    3    3    0    0 -0.74541796708E+02 -0.10742153782E+03 -0.84999105534E+02  0.15595099931E+03  0.00000000000E+00 0.  1.
        -11    1    3    3    0    0 -0.64601187460E+02 -0.35843536841E+02  0.13518612013E+02  0.75105428734E+02  0.00000000000E+00 0. -1.
          4    1    6    6  502    0 -0.21100507374E+03  0.30297764003E+02  0.26034400341E+03  0.33648193972E+03  0.00000000000E+00 0. -1.
          3    1    5    5  503    0  0.35985201777E+03  0.62508626551E+02  0.15328928453E+03  0.39610403664E+03  0.00000000000E+00 0. -1.
         -4    1    5    5    0  503  0.95256918688E+02 -0.24744329488E+02  0.28081307187E+02  0.10234609037E+03  0.00000000000E+00 0.  1.
         -3    1    6    6    0  502 -0.10496087855E+03  0.75203013593E+02  0.14190566960E+03  0.19185801611E+03  0.00000000000E+00 0.  1.
<mgrwt>
<rscale>  0 0.11488650E+04</rscale>
<asrwt>0</asrwt>
<pdfrwt beam="1">  1        1 0.13615279E+00 0.11488650E+04</pdfrwt>
<pdfrwt beam="2">  1       -1 0.57362057E-01 0.11488650E+04</pdfrwt>
<totfact> 0.57232211E+01</totfact>
</mgrwt>
</event>
<event>
12    1  0.1496989E-007  0.2269908E+04  0.7818608E-02  0.8489881E-01
          2   -1    0    0  501    0  0.00000000000E+00  0.00000000000E+00  0.26692246918E+04  0.26692246918E+04  0.00000000000E+00 0. -1.
         -2   -1    0    0    0  501 -0.00000000000E+00 -0.00000000000E+00 -0.48258221371E+03  0.48258221371E+03  0.00000000000E+00 0.  1.
         23    2    1    2    0    0 -0.79543171373E+02  0.11938891357E+03 -0.37016196899E+03  0.40743732595E+03  0.91675855535E+02 0.  0.
        254    2    1    2    0    0  0.79543171373E+02 -0.11938891357E+03  0.25568044471E+04  0.27443695796E+04  0.98677990445E+03 0.  0.
        -24    2    4    4    0    0 -0.22050992258E+03 -0.47232902979E+03  0.13653033295E+04  0.14636007742E+04  0.79716412533E+02 0.  0.
         24    2    4    4    0    0  0.30005309396E+03  0.35294011622E+03  0.11915011176E+04  0.12807688054E+04  0.78071984186E+02 0.  0.
         11    1    3    3    0    0 -0.16614326656E+02  0.79229400392E+01 -0.16218450374E+03  0.16322567838E+03  0.00000000000E+00 0. -1.
        -11    1    3    3    0    0 -0.62928844717E+02  0.11146597353E+03 -0.20797746525E+03  0.24421164756E+03  0.00000000000E+00 0.  1.
          2    1    6    6  502    0  0.14386356505E+03  0.13579023185E+03  0.59537172749E+03  0.62737804098E+03  0.00000000000E+00 0. -1.
          1    1    5    5  503    0 -0.12063610668E+03 -0.17848936909E+03  0.61519970060E+03  0.65182988328E+03  0.00000000000E+00 0. -1.
         -2    1    5    5    0  503 -0.99873815902E+02 -0.29383966069E+03  0.75010362888E+03  0.81177089093E+03  0.00000000000E+00 0.  1.
         -1    1    6    6    0  502  0.15618952890E+03  0.21714988437E+03  0.59612939015E+03  0.65339076441E+03  0.00000000000E+00 0.  1.
<mgrwt>
<rscale>  0 0.22699078E+04</rscale>
<asrwt>0</asrwt>
<pdfrwt beam="1">  1        2 0.41064994E+00 0.22699078E+04</pdfrwt>
<pdfrwt beam="2">  1       -2 0.74243419E-01 0.22699078E+04</pdfrwt>
<totfact> 0.41119538E+00</totfact>
</mgrwt>
</event>
<event>
12    1  0.1496989E-007  0.3002220E+04  0.7818608E-02  0.8243097E-01
          2   -1    0    0  501    0  0.00000000000E+00  0.00000000000E+00  0.10332760273E+04  0.10332760273E+04  0.00000000000E+00 0. -1.
         -2   -1    0    0    0  501 -0.00000000000E+00 -0.00000000000E+00 -0.21807642140E+04  0.21807642140E+04  0.00000000000E+00 0.  1.
         23    2    1    2    0    0 -0.99656756060E+02  0.15741557707E+03 -0.19723557671E+04  0.19831983185E+04  0.90427680119E+02 0.  0.
        254    2    1    2    0    0  0.99656756060E+02 -0.15741557707E+03  0.82486758052E+03  0.12308419228E+04  0.89434567179E+03 0.  0.
        -24    2    4    4    0    0 -0.33059203630E+03 -0.28469544928E+02  0.66456771463E+03  0.74705483882E+03  0.79618310830E+02 0.  0.
         24    2    4    4    0    0  0.43024879236E+03 -0.12894603215E+03  0.16029986589E+03  0.48378708400E+03  0.81319082051E+02 0.  0.
         13    1    3    3    0    0 -0.59198084020E+02  0.14233687055E+03 -0.12357474210E+04  0.12453256146E+04  0.00000000000E+00 0.  1.
        -13    1    3    3    0    0 -0.40458672040E+02  0.15078706522E+02 -0.73660834615E+03  0.73787270390E+03  0.00000000000E+00 0. -1.
          2    1    6    6  502    0  0.31783782861E+03 -0.12439149792E+03  0.97605036726E+02  0.35499418762E+03  0.00000000000E+00 0. -1.
          1    1    5    5  503    0 -0.30313139913E+03 -0.25907414077E+01  0.60121646738E+03  0.67331760539E+03  0.00000000000E+00 0. -1.
         -2    1    5    5    0  503 -0.27460637167E+02 -0.25878803520E+02  0.63351247252E+02  0.73737233428E+02  0.00000000000E+00 0.  1.
         -1    1    6    6    0  502  0.11241096375E+03 -0.45545342249E+01  0.62694829164E+02  0.12879289638E+03  0.00000000000E+00 0.  1.
<mgrwt>
<rscale>  0 0.30022201E+04</rscale>
<asrwt>0</asrwt>
<pdfrwt beam="1">  1        2 0.15896554E+00 0.30022201E+04</pdfrwt>
<pdfrwt beam="2">  1       -2 0.33550219E+00 0.30022201E+04</pdfrwt>
<totfact> 0.39372115E-01</totfact>
</mgrwt>
</event>
<event>
12    1  0.1496989E-007  0.1402979E+04  0.7818608E-02  0.8951665E-01
          2   -1    0    0  501    0  0.00000000000E+00  0.00000000000E+00  0.61419828539E+03  0.61419828539E+03  0.00000000000E+00 0. -1.
         -2   -1    0    0    0  501 -0.00000000000E+00 -0.00000000000E+00 -0.80118720943E+03  0.80118720943E+03  0.00000000000E+00 0.  1.
         23    2    1    2    0    0  0.11457758173E+03 -0.11201375156E+02 -0.43886422161E+03  0.46266046398E+03  0.90550576351E+02 0.  0.
        254    2    1    2    0    0 -0.11457758173E+03  0.11201375156E+02  0.25187529757E+03  0.95272503083E+03  0.91158670778E+03 0.  0.
        -24    2    4    4    0    0  0.15751609115E+03 -0.65057177832E+02  0.52164051607E+03  0.55425326117E+03  0.77743772403E+02 0.  0.
         24    2    4    4    0    0 -0.27209367289E+03  0.76258552988E+02 -0.26976521850E+03  0.39847176966E+03  0.78461101050E+02 0.  0.
         11    1    3    3    0    0 -0.15683278951E+02  0.42781554716E+00 -0.47111024217E+02  0.49654776885E+02  0.00000000000E+00 0. -1.
        -11    1    3    3    0    0  0.13026086069E+03 -0.11629190703E+02 -0.39175319740E+03  0.41300568710E+03  0.00000000000E+00 0.  1.
          2    1    6    6  502    0 -0.41174820249E+02  0.20392575600E+02 -0.88218435716E+02  0.99467157204E+02  0.00000000000E+00 0. -1.
          3    1    5    5  503    0  0.14399048366E+02 -0.32302048569E+02  0.16167899696E+03  0.16550182172E+03  0.00000000000E+00 0. -1.
         -2    1    5    5    0  503  0.14311704279E+03 -0.32755129262E+02  0.35996151912E+03  0.38875143945E+03  0.00000000000E+00 0.  1.
         -1    1    6    6    0  502 -0.23091885264E+03  0.55865977388E+02 -0.18154678278E+03  0.29900461246E+03  0.00000000000E+00 0.  1.
<mgrwt>
<rscale>  0 0.14029794E+04</rscale>
<asrwt>0</asrwt>
<pdfrwt beam="1">  1        2 0.94492044E-01 0.14029794E+04</pdfrwt>
<pdfrwt beam="2">  1       -2 0.12325957E+00 0.14029794E+04</pdfrwt>
<totfact> 0.23290854E+01</totfact>
</mgrwt>
</event>
<event>
12    1  0.1496989E-007  0.2396514E+04  0.7818608E-02  0.8440810E-01
         -1   -1    0    0    0  501 -0.00000000000E+00  0.00000000000E+00  0.70104020495E+03  0.70104020495E+03  0.00000000000E+00 0.  1.
          1   -1    0    0  501    0  0.00000000000E+00 -0.00000000000E+00 -0.20481272949E+04  0.20481272949E+04  0.00000000000E+00 0. -1.
         23    2    1    2    0    0 -0.74763831073E+03 -0.10634616232E+03  0.21417550786E+03  0.79029443887E+03  0.91769286941E+02 0.  0.
        254    2    1    2    0    0  0.74763831073E+03  0.10634616232E+03 -0.15612625978E+04  0.19588730610E+04  0.91069765554E+03 0.  0.
        -24    2    4    4    0    0  0.49893280901E+03 -0.19461997242E+03 -0.14446030196E+04  0.15429997014E+04  0.84612722170E+02 0.  0.
         24    2    4    4    0    0  0.24870550171E+03  0.30096613475E+03 -0.11665957822E+03  0.41587335957E+03  0.83103268081E+02 0.  0.
         13    1    3    3    0    0 -0.58929851361E+03 -0.84681420597E+02  0.12887891821E+03  0.60914157360E+03  0.00000000000E+00 0.  1.
        -13    1    3    3    0    0 -0.15833979712E+03 -0.21664741724E+02  0.85296589652E+02  0.18115286526E+03  0.00000000000E+00 0. -1.
          4    1    6    6  502    0  0.12953808648E+02  0.12514217593E+02 -0.27405243084E+02  0.32794117597E+02  0.00000000000E+00 0. -1.
          1    1    5    5  503    0  0.23660835369E+03 -0.13706538187E+03 -0.70868392234E+03  0.75960735498E+03  0.00000000000E+00 0. -1.
         -2    1    5    5    0  503  0.26232445532E+03 -0.57554590552E+02 -0.73591909724E+03  0.78339234643E+03  0.00000000000E+00 0.  1.
         -3    1    6    6    0  502  0.23575169306E+03  0.28845191715E+03 -0.89254335133E+02  0.38307924197E+03  0.00000000000E+00 0.  1.
<mgrwt>
<rscale>  0 0.23965138E+04</rscale>
<asrwt>0</asrwt>
<pdfrwt beam="1">  1        1 0.31509651E+00 0.23965138E+04</pdfrwt>
<pdfrwt beam="2">  1       -1 0.10785234E+00 0.23965138E+04</pdfrwt>
<totfact> 0.19805272E+00</totfact>
</mgrwt>
</event>
<event>
12    1  0.1496989E-007  0.1374258E+04  0.7818608E-02  0.8972666E-01
          2   -1    0    0  501    0  0.00000000000E+00  0.00000000000E+00  0.13839507828E+04  0.13839507828E+04  0.00000000000E+00 0. -1.
         -2   -1    0    0    0  501 -0.00000000000E+00 -0.00000000000E+00 -0.34115817300E+03  0.34115817300E+03  0.00000000000E+00 0.  1.
         23    2    1    2    0    0 -0.26791281758E+03 -0.22328432387E+03  0.10360244744E+03  0.37540465691E+03  0.92531195844E+02 0.  0.
        254    2    1    2    0    0  0.26791281758E+03  0.22328432387E+03  0.93919016234E+03  0.13497042989E+04  0.90442819850E+03 0.  0.
        -24    2    4    4    0    0 -0.86718809923E+02  0.49323386484E+03  0.41001240928E+03  0.65215623592E+03  0.79986141728E+02 0.  0.
         24    2    4    4    0    0  0.35463162750E+03 -0.26994954096E+03  0.52917775305E+03  0.69754806294E+03  0.88926148576E+02 0.  0.
         13    1    3    3    0    0 -0.11670888000E+03 -0.11445896403E+03  0.25935472647E+01  0.16348866507E+03  0.00000000000E+00 0. -1.
        -13    1    3    3    0    0 -0.15120393758E+03 -0.10882535984E+03  0.10100890018E+03  0.21191599184E+03  0.00000000000E+00 0.  1.
          4    1    6    6  502    0  0.19447453206E+03 -0.13714790807E+03  0.21489685355E+03  0.32064084265E+03  0.00000000000E+00 0. -1.
          3    1    5    5  503    0 -0.23777450456E+02  0.25515057857E+03  0.16506696059E+03  0.30481844822E+03  0.00000000000E+00 0. -1.
         -4    1    5    5    0  503 -0.62941359468E+02  0.23808328626E+03  0.24494544870E+03  0.34733778770E+03  0.00000000000E+00 0.  1.
         -3    1    6    6    0  502  0.16015709544E+03 -0.13280163289E+03  0.31428089950E+03  0.37690722029E+03  0.00000000000E+00 0.  1.
<mgrwt>
<rscale>  0 0.13742578E+04</rscale>
<asrwt>0</asrwt>
<pdfrwt beam="1">  1        2 0.21291550E+00 0.13742578E+04</pdfrwt>
<pdfrwt beam="2">  1       -2 0.52485874E-01 0.13742578E+04</pdfrwt>
<totfact> 0.49360444E+01</totfact>
</mgrwt>
</event>
<event>
12    1  0.1496989E-007  0.1513740E+04  0.7818608E-02  0.8875367E-01
         -1   -1    0    0    0  501 -0.00000000000E+00  0.00000000000E+00  0.80270751063E+03  0.80270751063E+03  0.00000000000E+00 0.  1.
          1   -1    0    0  501    0  0.00000000000E+00 -0.00000000000E+00 -0.71364992984E+03  0.71364992984E+03  0.00000000000E+00 0. -1.
         23    2    1    2    0    0 -0.31728584837E+03 -0.14917701052E+03  0.36765091514E+03  0.51563489405E+03  0.88249977441E+02 0.  0.
        254    2    1    2    0    0  0.31728584837E+03  0.14917701052E+03 -0.27859333434E+03  0.10007225464E+04  0.89493423162E+03 0.  0.
        -24    2    4    4    0    0  0.27889215078E+03  0.28557373373E+03 -0.54982714320E+03  0.68425490878E+03  0.81004343287E+02 0.  0.
         24    2    4    4    0    0  0.38393697589E+02 -0.13639672321E+03  0.27123380885E+03  0.31646763763E+03  0.80658815322E+02 0.  0.
         13    1    3    3    0    0 -0.76203008200E+02 -0.48442422883E+02  0.15224201039E+03  0.17700620475E+03  0.00000000000E+00 0. -1.
        -13    1    3    3    0    0 -0.24108284017E+03 -0.10073458764E+03  0.21540890474E+03  0.33862868930E+03  0.00000000000E+00 0.  1.
          2    1    6    6  502    0  0.61593916283E+02 -0.81621031040E+02  0.19019213834E+03  0.21593714992E+03  0.00000000000E+00 0. -1.
          3    1    5    5  503    0  0.15376154184E+03  0.21224080270E+03 -0.36364350678E+03  0.44824699676E+03  0.00000000000E+00 0. -1.
         -4    1    5    5    0  503  0.12513060894E+03  0.73332931026E+02 -0.18618363641E+03  0.23600791202E+03  0.00000000000E+00 0.  1.
         -1    1    6    6    0  502 -0.23200218693E+02 -0.54775692170E+02  0.81041670515E+02  0.10053048771E+03  0.00000000000E+00 0.  1.
<mgrwt>
<rscale>  0 0.15137399E+04</rscale>
<asrwt>0</asrwt>
<pdfrwt beam="1">  1        1 0.10979230E+00 0.15137399E+04</pdfrwt>
<pdfrwt beam="2">  1       -1 0.12349346E+00 0.15137399E+04</pdfrwt>
<totfact> 0.14745936E+01</totfact>
</mgrwt>
</event>
<event>
12    1  0.1496989E-007  0.2610227E+04  0.7818608E-02  0.8364736E-01
         -2   -1    0    0    0  501 -0.00000000000E+00  0.00000000000E+00  0.91656032750E+03  0.91656032750E+03  0.00000000000E+00 0.  1.
          2   -1    0    0  501    0  0.00000000000E+00 -0.00000000000E+00 -0.18583844573E+04  0.18583844573E+04  0.00000000000E+00 0. -1.
         23    2    1    2    0    0 -0.11473895539E+04  0.18585629680E+02 -0.46731665967E+03  0.12423847829E+04  0.91032270575E+02 0.  0.
        254    2    1    2    0    0  0.11473895539E+04 -0.18585629680E+02 -0.47450747014E+03  0.15325600019E+04  0.89818406022E+03 0.  0.
        -24    2    4    4    0    0  0.54226105504E+03  0.36836158298E+03  0.13548616613E+02  0.66047900932E+03  0.79445887969E+02 0.  0.
         24    2    4    4    0    0  0.60512849891E+03 -0.38694721266E+03 -0.48805608675E+03  0.87208099256E+03  0.80111598364E+02 0.  0.
         11    1    3    3    0    0 -0.91672109406E+03  0.29465093473E+02 -0.33645389029E+03  0.97695802178E+03  0.00000000000E+00 0. -1.
        -11    1    3    3    0    0 -0.23066845988E+03 -0.10879463793E+02 -0.13086276938E+03  0.26542676114E+03  0.00000000000E+00 0.  1.
          2    1    6    6  502    0  0.32938306406E+03 -0.23610336514E+03 -0.31495423330E+03  0.51325838619E+03  0.00000000000E+00 0. -1.
          1    1    5    5  503    0  0.53786014130E+03  0.35059669801E+03  0.12976171702E+02  0.64216816901E+03  0.00000000000E+00 0. -1.
         -4    1    5    5    0  503  0.44009137383E+01  0.17764884975E+02  0.57244491148E+00  0.18310840317E+02  0.00000000000E+00 0.  1.
         -3    1    6    6    0  502  0.27574543485E+03 -0.15084384753E+03 -0.17310185345E+03  0.35882260637E+03  0.00000000000E+00 0.  1.
<mgrwt>
<rscale>  0 0.26102272E+04</rscale>
<asrwt>0</asrwt>
<pdfrwt beam="1">  1        2 0.28590530E+00 0.26102272E+04</pdfrwt>
<pdfrwt beam="2">  1       -2 0.14100928E+00 0.26102272E+04</pdfrwt>
<totfact> 0.24952614E+00</totfact>
</mgrwt>
</event>
<event>
12    1  0.1496989E-007  0.1400832E+04  0.7818608E-02  0.8953217E-01
         -2   -1    0    0    0  501 -0.00000000000E+00  0.00000000000E+00  0.58044409752E+03  0.58044409752E+03  0.00000000000E+00 0.  1.
          2   -1    0    0  501    0  0.00000000000E+00 -0.00000000000E+00 -0.84518456795E+03  0.84518456795E+03  0.00000000000E+00 0. -1.
         23    2    1    2    0    0 -0.23597571435E+03 -0.14513519215E+03  0.22705121417E+03  0.36960683693E+03  0.91149318626E+02 0.  0.
        254    2    1    2    0    0  0.23597571435E+03  0.14513519215E+03 -0.49179168460E+03  0.10560218285E+04  0.89251010054E+03 0.  0.
        -24    2    4    4    0    0  0.10212263120E+03  0.45252197225E+03 -0.18832992504E+02  0.47108189459E+03  0.79738965610E+02 0.  0.
         24    2    4    4    0    0  0.13385308314E+03 -0.30738678010E+03 -0.47295869210E+03  0.58493993396E+03  0.77855773459E+02 0.  0.
         13    1    3    3    0    0 -0.90927365390E+02 -0.95962631353E+01  0.90582480332E+02  0.12870532151E+03  0.00000000000E+00 0. -1.
        -13    1    3    3    0    0 -0.14504834896E+03 -0.13553892901E+03  0.13646873384E+03  0.24090151541E+03  0.00000000000E+00 0.  1.
          4    1    6    6  502    0  0.19171617947E+02 -0.77377516989E+02 -0.65407810310E+02  0.10311650071E+03  0.00000000000E+00 0. -1.
          3    1    5    5  503    0  0.60959918698E+02  0.25407357618E+03 -0.50004762164E+02  0.26602625818E+03  0.00000000000E+00 0. -1.
         -4    1    5    5    0  503  0.41162712506E+02  0.19844839606E+03  0.31171769659E+02  0.20505563641E+03  0.00000000000E+00 0.  1.
         -1    1    6    6    0  502  0.11468146520E+03 -0.23000926311E+03 -0.40755088179E+03  0.48182343324E+03  0.00000000000E+00 0.  1.
<mgrwt>
<rscale>  0 0.14008317E+04</rscale>
<asrwt>0</asrwt>
<pdfrwt beam="1">  1        2 0.13002839E+00 0.14008317E+04</pdfrwt>
<pdfrwt beam="2">  1       -2 0.89299092E-01 0.14008317E+04</pdfrwt>
<totfact> 0.33508519E+01</totfact>
</mgrwt>
</event>
<event>
12    1  0.1496989E-007  0.1183851E+04  0.7818608E-02  0.9127110E-01
          2   -1    0    0  501    0  0.00000000000E+00  0.00000000000E+00  0.25531098809E+04  0.25531098809E+04  0.00000000000E+00 0. -1.
         -2   -1    0    0    0  501 -0.00000000000E+00 -0.00000000000E+00 -0.13723498262E+03  0.13723498262E+03  0.00000000000E+00 0.  1.
         23    2    1    2    0    0  0.85603725169E+02  0.10282934626E+03  0.77040298391E+02  0.17914610460E+03  0.90863892732E+02 0.  0.
        254    2    1    2    0    0 -0.85603725169E+02 -0.10282934626E+03  0.23388345999E+04  0.25111987589E+04  0.90447224884E+03 0.  0.
        -24    2    4    4    0    0 -0.16509607685E+03  0.19872354383E+03  0.17100956818E+03  0.31959956656E+03  0.78433724080E+02 0.  0.
         24    2    4    4    0    0  0.79492351677E+02 -0.30155289009E+03  0.21678250317E+04  0.21915991923E+04  0.79927919597E+02 0.  0.
         13    1    3    3    0    0  0.42744795609E+02  0.90136779527E+02  0.12356962952E+02  0.10052089886E+03  0.00000000000E+00 0.  1.
        -13    1    3    3    0    0  0.42858929560E+02  0.12692566730E+02  0.64683335439E+02  0.78625205734E+02  0.00000000000E+00 0. -1.
          4    1    6    6  502    0  0.52957155057E+02 -0.26622436294E+03  0.19869762824E+04  0.20054312800E+04  0.00000000000E+00 0. -1.
          3    1    5    5  503    0 -0.15741883377E+03  0.13975680489E+03  0.13527870694E+03  0.25022586255E+03  0.00000000000E+00 0. -1.
         -4    1    5    5    0  503 -0.76772430764E+01  0.58966738946E+02  0.35730861239E+02  0.69373704010E+02  0.00000000000E+00 0.  1.
         -3    1    6    6    0  502  0.26535196620E+02 -0.35328527154E+02  0.18084874925E+03  0.18616791237E+03  0.00000000000E+00 0.  1.
<mgrwt>
<rscale>  0 0.11838513E+04</rscale>
<asrwt>0</asrwt>
<pdfrwt beam="1">  1        2 0.39278610E+00 0.11838513E+04</pdfrwt>
<pdfrwt beam="2">  1       -2 0.21113076E-01 0.11838513E+04</pdfrwt>
<totfact> 0.62673740E+01</totfact>
</mgrwt>
</event>
<event>
12    1  0.1496989E-007  0.1785217E+04  0.7818608E-02  0.8714200E-01
          3   -1    0    0  501    0  0.00000000000E+00  0.00000000000E+00  0.71184072957E+03  0.71184072957E+03  0.00000000000E+00 0. -1.
         -3   -1    0    0    0  501 -0.00000000000E+00 -0.00000000000E+00 -0.11192817012E+04  0.11192817012E+04  0.00000000000E+00 0.  1.
         23    2    1    2    0    0  0.27959646829E+02  0.47376918679E+03  0.31785477144E+03  0.57793562451E+03  0.87971280238E+02 0.  0.
        254    2    1    2    0    0 -0.27959646829E+02 -0.47376918679E+03 -0.72529574311E+03  0.12531868063E+04  0.90508799146E+03 0.  0.
        -24    2    4    4    0    0  0.10281098882E+03 -0.54273861935E+03 -0.86801687362E+03  0.10318865236E+04  0.78747674771E+02 0.  0.
         24    2    4    4    0    0 -0.13077063565E+03  0.68969432562E+02  0.14272113051E+03  0.22130028271E+03  0.82138616120E+02 0.  0.
         11    1    3    3    0    0  0.28212187837E+02  0.47576077252E+03  0.32070255637E+03  0.57445136424E+03  0.00000000000E+00 0. -1.
        -11    1    3    3    0    0 -0.25254100723E+00 -0.19915857331E+01 -0.28477849221E+01  0.34842602737E+01  0.00000000000E+00 0.  1.
          4    1    6    6  502    0 -0.24732088594E+02  0.43255774315E+02  0.83280410359E+02  0.97048261022E+02  0.00000000000E+00 0. -1.
          3    1    5    5  503    0  0.82637408401E+02 -0.52199866131E+03 -0.83234298867E+03  0.98595456004E+03  0.00000000000E+00 0. -1.
         -4    1    5    5    0  503  0.20173580418E+02 -0.20739958047E+02 -0.35673884956E+02  0.45931963539E+02  0.00000000000E+00 0.  1.
         -3    1    6    6    0  502 -0.10603854705E+03  0.25713658247E+02  0.59440720154E+02  0.12425202169E+03  0.00000000000E+00 0.  1.
<mgrwt>
<rscale>  0 0.17852174E+04</rscale>
<asrwt>0</asrwt>
<pdfrwt beam="1">  1        3 0.10951396E+00 0.17852174E+04</pdfrwt>
<pdfrwt beam="2">  1       -3 0.17219718E+00 0.17852174E+04</pdfrwt>
<totfact> 0.38974427E-01</totfact>
</mgrwt>
</event>
<event>
12    1  0.1496989E-007  0.1501993E+04  0.7818608E-02  0.8883129E-01
          2   -1    0    0  501    0  0.00000000000E+00  0.00000000000E+00  0.14841807473E+04  0.14841807473E+04  0.00000000000E+00 0. -1.
         -2   -1    0    0    0  501 -0.00000000000E+00 -0.00000000000E+00 -0.38000470818E+03  0.38000470818E+03  0.00000000000E+00 0.  1.
         23    2    1    2    0    0 -0.35248754920E+03  0.26853909036E+03  0.14946214734E+03  0.47990922587E+03  0.10776463332E+03 0.  0.
        254    2    1    2    0    0  0.35248754920E+03 -0.26853909036E+03  0.95471389182E+03  0.13842762296E+04  0.89910029993E+03 0.  0.
        -24    2    4    4    0    0  0.56411314718E+03 -0.43187851879E+03  0.60175885230E+03  0.93452089749E+03  0.80454295840E+02 0.  0.
         24    2    4    4    0    0 -0.21162559798E+03  0.16333942843E+03  0.35295503952E+03  0.44975533215E+03  0.78977441580E+02 0.  0.
         11    1    3    3    0    0 -0.29163169742E+03  0.24810670195E+03  0.15977750761E+03  0.41489135256E+03  0.00000000000E+00 0. -1.
        -11    1    3    3    0    0 -0.60855851778E+02  0.20432388413E+02 -0.10315360269E+02  0.65017873307E+02  0.00000000000E+00 0.  1.
          2    1    6    6  502    0 -0.86327820701E+02  0.10439207434E+03  0.13298052709E+03  0.18982628478E+03  0.00000000000E+00 0. -1.
          1    1    5    5  503    0 -0.20498774508E+01 -0.62315197243E+01  0.72164956970E+01  0.97525199709E+01  0.00000000000E+00 0. -1.
         -2    1    5    5    0  503  0.56616302463E+03 -0.42564699906E+03  0.59454235660E+03  0.92476837752E+03  0.00000000000E+00 0.  1.
         -1    1    6    6    0  502 -0.12529777728E+03  0.58947354093E+02  0.21997451243E+03  0.25992904737E+03  0.00000000000E+00 0.  1.
<mgrwt>
<rscale>  0 0.15019929E+04</rscale>
<asrwt>0</asrwt>
<pdfrwt beam="1">  1        2 0.22833550E+00 0.15019929E+04</pdfrwt>
<pdfrwt beam="2">  1       -2 0.58462264E-01 0.15019929E+04</pdfrwt>
<totfact> 0.34243663E+01</totfact>
</mgrwt>
</event>
<event>
12    1  0.1496989E-007  0.1976748E+04  0.7818608E-02  0.8617570E-01
          2   -1    0    0  501    0  0.00000000000E+00  0.00000000000E+00  0.23548758382E+04  0.23548758382E+04  0.00000000000E+00 0. -1.
         -2   -1    0    0    0  501 -0.00000000000E+00 -0.00000000000E+00 -0.41483412551E+03  0.41483412551E+03  0.00000000000E+00 0.  1.
         23    2    1    2    0    0  0.65744321082E+03  0.35145301161E+03  0.48883617415E+03  0.89601269166E+03  0.90150671836E+02 0.  0.
        254    2    1    2    0    0 -0.65744321082E+03 -0.35145301161E+03  0.14512055386E+04  0.18736972721E+04  0.92140824685E+03 0.  0.
        -24    2    4    4    0    0 -0.70479673484E+02  0.29183745447E+03  0.39594466376E+03  0.50301573564E+03  0.78205941788E+02 0.  0.
         24    2    4    4    0    0 -0.58696353734E+03 -0.64329046608E+03  0.10552608748E+04  0.13706815364E+04  0.82725706334E+02 0.  0.
         13    1    3    3    0    0  0.65300658301E+03  0.33742762674E+03  0.48558567600E+03  0.88094747260E+03  0.00000000000E+00 0. -1.
        -13    1    3    3    0    0  0.44366278053E+01  0.14025384868E+02  0.32504981506E+01  0.15065219056E+02  0.00000000000E+00 0.  1.
          4    1    6    6  502    0 -0.14446473404E+03 -0.18736162396E+03  0.23903714130E+03  0.33632304773E+03  0.00000000000E+00 0. -1.
          1    1    5    5  503    0 -0.15336195187E+02  0.44672083289E+02  0.23826523859E+02  0.52900823693E+02  0.00000000000E+00 0. -1.
         -2    1    5    5    0  503 -0.55143478297E+02  0.24716537119E+03  0.37211813991E+03  0.45011491195E+03  0.00000000000E+00 0.  1.
         -3    1    6    6    0  502 -0.44249880329E+03 -0.45592884212E+03  0.81622373349E+03  0.10343584887E+04  0.00000000000E+00 0.  1.
<mgrwt>
<rscale>  0 0.19767477E+04</rscale>
<asrwt>0</asrwt>
<pdfrwt beam="1">  1        2 0.36228858E+00 0.19767477E+04</pdfrwt>
<pdfrwt beam="2">  1       -2 0.63820637E-01 0.19767477E+04</pdfrwt>
<totfact> 0.89198606E+00</totfact>
</mgrwt>
</event>
<event>
12    1  0.1496989E-007  0.1782615E+04  0.7818608E-02  0.8715599E-01
          2   -1    0    0  501    0  0.00000000000E+00  0.00000000000E+00  0.23025490909E+04  0.23025490909E+04  0.00000000000E+00 0. -1.
         -2   -1    0    0    0  501 -0.00000000000E+00 -0.00000000000E+00 -0.34502172237E+03  0.34502172237E+03  0.00000000000E+00 0.  1.
         23    2    1    2    0    0  0.12314007324E+03 -0.39955944243E+03  0.15733492390E+04  0.16315506242E+04  0.10825149335E+03 0.  0.
        254    2    1    2    0    0 -0.12314007324E+03  0.39955944243E+03  0.38417812948E+03  0.10160201890E+04  0.84255146053E+03 0.  0.
        -24    2    4    4    0    0 -0.32108816894E+03  0.49568154124E+03  0.47692071738E+03  0.76397050423E+03  0.86021846682E+02 0.  0.
         24    2    4    4    0    0  0.19794809570E+03 -0.96122098813E+02 -0.92742587900E+02  0.25204968478E+03  0.80653267244E+02 0.  0.
         11    1    3    3    0    0  0.11408894005E+03 -0.26939622834E+03  0.92351932770E+03  0.96875103237E+03  0.00000000000E+00 0. -1.
        -11    1    3    3    0    0  0.90511331868E+01 -0.13016321409E+03  0.64982991132E+03  0.66279959185E+03  0.00000000000E+00 0.  1.
          2    1    6    6  502    0  0.17593754186E+03 -0.67334988316E+02 -0.47865493312E+02  0.19436852816E+03  0.00000000000E+00 0. -1.
          1    1    5    5  503    0 -0.81416200656E+02  0.70255006405E+02  0.69631292273E+02  0.12811276485E+03  0.00000000000E+00 0. -1.
         -2    1    5    5    0  503 -0.23967196828E+03  0.42542653484E+03  0.40728942510E+03  0.63585773938E+03  0.00000000000E+00 0.  1.
         -1    1    6    6    0  502  0.22010553838E+02 -0.28787110496E+02 -0.44877094588E+02  0.57681156625E+02  0.00000000000E+00 0.  1.
<mgrwt>
<rscale>  0 0.17826154E+04</rscale>
<asrwt>0</asrwt>
<pdfrwt beam="1">  1        2 0.35423831E+00 0.17826154E+04</pdfrwt>
<pdfrwt beam="2">  1       -2 0.53080267E-01 0.17826154E+04</pdfrwt>
<totfact> 0.14304681E+01</totfact>
</mgrwt>
</event>
<event>
12    1  0.1496989E-007  0.1651458E+04  0.7818608E-02  0.8789544E-01
          4   -1    0    0  501    0  0.00000000000E+00  0.00000000000E+00  0.15983367365E+04  0.15983367365E+04  0.00000000000E+00 0. -1.
         -4   -1    0    0    0  501 -0.00000000000E+00 -0.00000000000E+00 -0.42658622145E+03  0.42658622145E+03  0.00000000000E+00 0.  1.
         23    2    1    2    0    0 -0.48933142595E+03  0.26517091997E+03  0.25258045732E+03  0.61873480891E+03  0.96306879884E+02 0.  0.
        254    2    1    2    0    0  0.48933142595E+03 -0.26517091997E+03  0.91917005773E+03  0.14061881490E+04  0.90704501225E+03 0.  0.
        -24    2    4    4    0    0  0.25959992798E+03 -0.75874801933E+02 -0.13139477127E+03  0.31132025080E+03  0.80663526259E+02 0.  0.
         24    2    4    4    0    0  0.22973149797E+03 -0.18929611804E+03  0.10505648290E+04  0.10948678982E+04  0.80247574415E+02 0.  0.
         11    1    3    3    0    0 -0.19109339474E+03  0.11758158129E+03  0.52413800588E+02  0.23041119822E+03  0.00000000000E+00 0. -1.
        -11    1    3    3    0    0 -0.29823803121E+03  0.14758933868E+03  0.20016665673E+03  0.38832361069E+03  0.00000000000E+00 0.  1.
          2    1    6    6  502    0  0.40767267348E+02 -0.55407809379E+02  0.15032337779E+03  0.16531519391E+03  0.00000000000E+00 0. -1.
          3    1    5    5  503    0  0.54512409871E+02  0.56187615676E+00  0.28006280135E+01  0.54587196778E+02  0.00000000000E+00 0. -1.
         -4    1    5    5    0  503  0.20508751811E+03 -0.76436678090E+02 -0.13419539928E+03  0.25673305403E+03  0.00000000000E+00 0.  1.
         -1    1    6    6    0  502  0.18896423062E+03 -0.13388830866E+03  0.90024145121E+03  0.92955270433E+03  0.00000000000E+00 0.  1.
<mgrwt>
<rscale>  0 0.16514581E+04</rscale>
<asrwt>0</asrwt>
<pdfrwt beam="1">  1        4 0.24589796E+00 0.16514581E+04</pdfrwt>
<pdfrwt beam="2">  1       -4 0.65628651E-01 0.16514581E+04</pdfrwt>
<totfact> 0.27657920E-01</totfact>
</mgrwt>
</event>
<event>
12    1  0.1496989E-007  0.1663097E+04  0.7818608E-02  0.8782696E-01
         -2   -1    0    0    0  501 -0.00000000000E+00  0.00000000000E+00  0.75866178421E+03  0.75866178421E+03  0.00000000000E+00 0. -1.
          2   -1    0    0  501    0  0.00000000000E+00 -0.00000000000E+00 -0.91143775150E+03  0.91143775150E+03  0.00000000000E+00 0.  1.
         23    2    1    2    0    0 -0.17003816427E+03 -0.23312892456E+03  0.45441828723E+03  0.54597362338E+03  0.91264148956E+02 0.  0.
        254    2    1    2    0    0  0.17003816427E+03  0.23312892456E+03 -0.60719425452E+03  0.11241259123E+04  0.90095068193E+03 0.  0.
        -24    2    4    4    0    0  0.52610565527E+02  0.22353458443E+03  0.19385303585E+03  0.31055851661E+03  0.78307156048E+02 0.  0.
         24    2    4    4    0    0  0.11742759874E+03  0.95943401263E+01 -0.80104729038E+03  0.81356739572E+03  0.79585511518E+02 0.  0.
         11    1    3    3    0    0 -0.19068957651E+02 -0.94567510041E+02  0.16929240958E+03  0.19485009377E+03  0.00000000000E+00 0.  1.
        -11    1    3    3    0    0 -0.15096920661E+03 -0.13856141452E+03  0.28512587765E+03  0.35112352961E+03  0.00000000000E+00 0. -1.
          2    1    6    6  502    0  0.52992013811E+02  0.41907140427E+02 -0.46445923699E+03  0.46934714740E+03  0.00000000000E+00 0. -1.
          1    1    5    5  503    0  0.17969354753E+02  0.31248349288E+02  0.71377253129E+02  0.79962924582E+02  0.00000000000E+00 0. -1.
         -4    1    5    5    0  503  0.34641210774E+02  0.19228623514E+03  0.12247578272E+03  0.23059559203E+03  0.00000000000E+00 0.  1.
         -1    1    6    6    0  502  0.64435584928E+02 -0.32312800301E+02 -0.33658805338E+03  0.34422024831E+03  0.00000000000E+00 0.  1.
<mgrwt>
<rscale>  0 0.16630971E+04</rscale>
<asrwt>0</asrwt>
<pdfrwt beam="1">  1        2 0.14022119E+00 0.16630971E+04</pdfrwt>
<pdfrwt beam="2">  1       -2 0.11671720E+00 0.16630971E+04</pdfrwt>
<totfact> 0.15631388E+01</totfact>
</mgrwt>
</event>
<event>
12    1  0.1496989E-007  0.1160355E+04  0.7818608E-02  0.9148284E-01
         -1   -1    0    0    0  501 -0.00000000000E+00  0.00000000000E+00  0.12176228957E+03  0.12176228957E+03  0.00000000000E+00 0.  1.
          1   -1    0    0  501    0  0.00000000000E+00 -0.00000000000E+00 -0.27644497144E+04  0.27644497144E+04  0.00000000000E+00 0. -1.
         23    2    1    2    0    0 -0.16462323985E+03  0.58087497649E+02 -0.80657804848E+03  0.83030384600E+03  0.91440471975E+02 0.  0.
        254    2    1    2    0    0  0.16462323985E+03 -0.58087497649E+02 -0.18361093763E+04  0.20559081579E+04  0.90828725829E+03 0.  0.
        -24    2    4    4    0    0  0.12494655285E+03 -0.39573023266E+03 -0.15422638080E+04  0.15990715069E+04  0.78980838192E+02 0.  0.
         24    2    4    4    0    0  0.39676687003E+02  0.33764273502E+03 -0.29384556834E+03  0.45683665099E+03  0.82326494258E+02 0.  0.
         11    1    3    3    0    0 -0.79579238538E+02  0.76123970975E+02 -0.44706260694E+03  0.46042663768E+03  0.00000000000E+00 0.  1.
        -11    1    3    3    0    0 -0.85044001310E+02 -0.18036473326E+02 -0.35951544154E+03  0.36987720832E+03  0.00000000000E+00 0. -1.
          2    1    6    6  502    0  0.16006021269E+02  0.24908853592E+03 -0.25637037202E+03  0.35780869063E+03  0.00000000000E+00 0. -1.
          3    1    5    5  503    0  0.77265571537E+02 -0.34169919593E+03 -0.12699102781E+04  0.13173459771E+04  0.00000000000E+00 0. -1.
         -4    1    5    5    0  503  0.47680981309E+02 -0.54031036736E+02 -0.27235352987E+03  0.28172552980E+03  0.00000000000E+00 0.  1.
         -1    1    6    6    0  502  0.23670665734E+02  0.88554199093E+02 -0.37475196321E+02  0.99027960358E+02  0.00000000000E+00 0.  1.
<mgrwt>
<rscale>  0 0.11603546E+04</rscale>
<asrwt>0</asrwt>
<pdfrwt beam="1">  1        1 0.42529995E+00 0.11603546E+04</pdfrwt>
<pdfrwt beam="2">  1       -1 0.18732660E-01 0.11603546E+04</pdfrwt>
<totfact> 0.20225742E+01</totfact>
</mgrwt>
</event>
<event>
12    1  0.1496989E-007  0.1878325E+04  0.7818608E-02  0.8665721E-01
          2   -1    0    0  501    0  0.00000000000E+00  0.00000000000E+00  0.40195330175E+03  0.40195330175E+03  0.00000000000E+00 0. -1.
         -2   -1    0    0    0  501 -0.00000000000E+00 -0.00000000000E+00 -0.21943489011E+04  0.21943489011E+04  0.00000000000E+00 0.  1.
         23    2    1    2    0    0 -0.46527318137E+03 -0.28966704710E+03 -0.13650442617E+04  0.14737776011E+04  0.91040922686E+02 0.  0.
        254    2    1    2    0    0  0.46527318137E+03  0.28966704710E+03 -0.42735133766E+03  0.11225246018E+04  0.88150223159E+03 0.  0.
        -24    2    4    4    0    0 -0.18254996861E+03 -0.14969563891E+03 -0.12947437677E+03  0.28125500033E+03  0.81286441812E+02 0.  0.
         24    2    4    4    0    0  0.64782314998E+03  0.43936268601E+03 -0.29787696088E+03  0.84126960143E+03  0.79306084028E+02 0.  0.
         11    1    3    3    0    0 -0.34486275196E+03 -0.19168550391E+03 -0.87768264212E+03  0.96228918230E+03  0.00000000000E+00 0.  1.
        -11    1    3    3    0    0 -0.12041042941E+03 -0.97981543186E+02 -0.48736161954E+03  0.51148841875E+03  0.00000000000E+00 0. -1.
          2    1    6    6  502    0  0.17788203729E+03  0.11179066288E+03 -0.11740071591E+03  0.24067010532E+03  0.00000000000E+00 0. -1.
          3    1    5    5  503    0 -0.21779102617E+02 -0.42285207846E+02 -0.58252313692E+02  0.75204389259E+02  0.00000000000E+00 0. -1.
         -4    1    5    5    0  503 -0.16077086600E+03 -0.10741043107E+03 -0.71222063081E+02  0.20605061108E+03  0.00000000000E+00 0.  1.
         -1    1    6    6    0  502  0.46994111269E+03  0.32757202313E+03 -0.18047624497E+03  0.60059949611E+03  0.00000000000E+00 0.  1.
<mgrwt>
<rscale>  0 0.18783246E+04</rscale>
<asrwt>0</asrwt>
<pdfrwt beam="1">  1        2 0.61838970E-01 0.18783246E+04</pdfrwt>
<pdfrwt beam="2">  1       -2 0.33759213E+00 0.18783246E+04</pdfrwt>
<totfact> 0.13849365E+00</totfact>
</mgrwt>
</event>
<event>
12    1  0.1496989E-007  0.1928740E+04  0.7818608E-02  0.8640681E-01
          1   -1    0    0  501    0  0.00000000000E+00  0.00000000000E+00  0.14141553307E+04  0.14141553307E+04  0.00000000000E+00 0. -1.
         -1   -1    0    0    0  501 -0.00000000000E+00 -0.00000000000E+00 -0.65764311079E+03  0.65764311079E+03  0.00000000000E+00 0.  1.
         23    2    1    2    0    0 -0.41097296475E+03 -0.22379985841E+03 -0.33804768232E+03  0.58554238021E+03  0.97971879230E+02 0.  0.
        254    2    1    2    0    0  0.41097296475E+03  0.22379985841E+03  0.10945599023E+04  0.14862560613E+04  0.88989355866E+03 0.  0.
        -24    2    4    4    0    0  0.21282394985E+03  0.47554394401E+03  0.25687873299E+03  0.58623401424E+03  0.79041506073E+02 0.  0.
         24    2    4    4    0    0  0.19814901490E+03 -0.25174408560E+03  0.83768116927E+03  0.90002204706E+03  0.75444198583E+02 0.  0.
         11    1    3    3    0    0  0.13450403998E+01  0.34346164400E+01  0.25352029681E+01  0.44758214728E+01  0.00000000000E+00 0. -1.
        -11    1    3    3    0    0 -0.41231800515E+03 -0.22723447485E+03 -0.34058288529E+03  0.58106655874E+03  0.00000000000E+00 0.  1.
          4    1    6    6  502    0  0.19486959984E+03 -0.23030778839E+03  0.81298271049E+03  0.86715438412E+03  0.00000000000E+00 0. -1.
          1    1    5    5  503    0  0.12003578018E+03  0.22212176968E+03  0.16286561678E+03  0.30045278867E+03  0.00000000000E+00 0. -1.
         -2    1    5    5    0  503  0.92788169665E+02  0.25342217433E+03  0.94013116206E+02  0.28578122557E+03  0.00000000000E+00 0.  1.
         -3    1    6    6    0  502  0.32794150679E+01 -0.21436297212E+02  0.24698458783E+02  0.32867662947E+02  0.00000000000E+00 0.  1.
<mgrwt>
<rscale>  0 0.19287400E+04</rscale>
<asrwt>0</asrwt>
<pdfrwt beam="1">  1        1 0.21756236E+00 0.19287400E+04</pdfrwt>
<pdfrwt beam="2">  1       -1 0.10117586E+00 0.19287400E+04</pdfrwt>
<totfact> 0.65026195E+00</totfact>
</mgrwt>
</event>
<event>
12    1  0.1496989E-007  0.1400186E+04  0.7818608E-02  0.8953684E-01
         -1   -1    0    0    0  501 -0.00000000000E+00  0.00000000000E+00  0.54876618531E+03  0.54876618531E+03  0.00000000000E+00 0.  1.
          1   -1    0    0  501    0  0.00000000000E+00 -0.00000000000E+00 -0.89314955711E+03  0.89314955711E+03  0.00000000000E+00 0. -1.
         23    2    1    2    0    0 -0.96829933573E+02 -0.10057771046E+02 -0.50546606932E+03  0.52271671245E+03  0.90882448486E+02 0.  0.
        254    2    1    2    0    0  0.96829933573E+02  0.10057771046E+02  0.16108269753E+03  0.91919902996E+03  0.89972330550E+03 0.  0.
        -24    2    4    4    0    0 -0.71867232076E+02 -0.39820617438E+03  0.21744586591E+03  0.46650217311E+03  0.81292782904E+02 0.  0.
         24    2    4    4    0    0  0.16869716565E+03  0.40826394542E+03 -0.56363168383E+02  0.45269685686E+03  0.81360030902E+02 0.  0.
         13    1    3    3    0    0 -0.10942622285E+03 -0.14751221888E+02 -0.35803755190E+03  0.37467664107E+03  0.00000000000E+00 0. -1.
        -13    1    3    3    0    0  0.12596289272E+02  0.46934508415E+01 -0.14742851743E+03  0.14804007138E+03  0.00000000000E+00 0.  1.
          4    1    6    6  502    0  0.96333190452E+02  0.31260642060E+03 -0.60589730097E+02  0.33267698023E+03  0.00000000000E+00 0. -1.
          1    1    5    5  503    0  0.10019311135E+02 -0.12475019251E+03  0.44957618853E+02  0.13298189583E+03  0.00000000000E+00 0. -1.
         -2    1    5    5    0  503 -0.81886543211E+02 -0.27345598187E+03  0.17248824706E+03  0.33352027727E+03  0.00000000000E+00 0.  1.
         -3    1    6    6    0  502  0.72363975197E+02  0.95657524829E+02  0.42265617134E+01  0.12001987663E+03  0.00000000000E+00 0.  1.
<mgrwt>
<rscale>  0 0.14001861E+04</rscale>
<asrwt>0</asrwt>
<pdfrwt beam="1">  1        1 0.13740762E+00 0.14001861E+04</pdfrwt>
<pdfrwt beam="2">  1       -1 0.84425566E-01 0.14001861E+04</pdfrwt>
<totfact> 0.24981631E+01</totfact>
</mgrwt>
</event>
<event>
12    1  0.2119387E-007  0.1912757E+04  0.7818608E-02  0.8648532E-01
         -1   -1    0    0    0  501 -0.00000000000E+00  0.00000000000E+00  0.11936528138E+04  0.11936528138E+04  0.00000000000E+00 0.  1.
          1   -1    0    0  501    0  0.00000000000E+00 -0.00000000000E+00 -0.76626965230E+03  0.76626965230E+03  0.00000000000E+00 0. -1.
         23    2    1    2    0    0  0.18399852270E+03  0.36223847039E+02  0.90096747971E+03  0.92475199885E+03  0.90863834512E+02 0.  0.
        254    2    1    2    0    0 -0.18399852270E+03 -0.36223847039E+02 -0.47358431819E+03  0.10351704673E+04  0.90118153911E+03 0.  0.
        -24    2    4    4    0    0 -0.19652022122E+03  0.33651872148E+03  0.34560196945E+02  0.39982042637E+03  0.82443428332E+02 0.  0.
         24    2    4    4    0    0  0.12521698516E+02 -0.37274256852E+03 -0.50814451513E+03  0.63535004091E+03  0.79781018423E+02 0.  0.
         11    1    3    3    0    0  0.16606075724E+03  0.58947225276E+02  0.82121084473E+03  0.83990368612E+03  0.00000000000E+00 0.  1.
        -11    1    3    3    0    0  0.17937765463E+02 -0.22723378237E+02  0.79756634985E+02  0.84848312726E+02  0.00000000000E+00 0. -1.
          4    1    6    6  502    0  0.89147075055E+00 -0.30392564393E+02 -0.12548580895E+02  0.32893305899E+02  0.00000000000E+00 0. -1.
          1    1    5    5  503    0  0.52809348308E+01  0.34903615673E+02  0.59158093207E+01  0.35793120283E+02  0.00000000000E+00 0. -1.
         -2    1    5    5    0  503 -0.20180115605E+03  0.30161510581E+03  0.28644387625E+02  0.36402730609E+03  0.00000000000E+00 0.  1.
         -3    1    6    6    0  502  0.11630227766E+02 -0.34235000413E+03 -0.49559593424E+03  0.60245673501E+03  0.00000000000E+00 0.  1.
<mgrwt>
<rscale>  0 0.19127571E+04</rscale>
<asrwt>0</asrwt>
<pdfrwt beam="1">  1        1 0.11788764E+00 0.19127571E+04</pdfrwt>
<pdfrwt beam="2">  1       -1 0.18363889E+00 0.19127571E+04</pdfrwt>
<totfact> 0.43374051E+00</totfact>
</mgrwt>
</event>
<event>
12    1  0.1496989E-007  0.1455228E+04  0.7818608E-02  0.8914784E-01
         -1   -1    0    0    0  501 -0.00000000000E+00  0.00000000000E+00  0.49187787474E+03  0.49187787474E+03  0.00000000000E+00 0. -1.
          1   -1    0    0  501    0  0.00000000000E+00 -0.00000000000E+00 -0.10763277385E+04  0.10763277385E+04  0.00000000000E+00 0.  1.
         23    2    1    2    0    0  0.41349067427E+03 -0.19783114940E+02 -0.33147013582E+03  0.53821718684E+03  0.91866097791E+02 0.  0.
        254    2    1    2    0    0 -0.41349067427E+03  0.19783114940E+02 -0.25297972798E+03  0.10299884264E+04  0.90857663766E+03 0.  0.
        -24    2    4    4    0    0 -0.19881694559E+03 -0.62170268782E+02  0.33003930784E+03  0.39820501235E+03  0.79044082402E+02 0.  0.
         24    2    4    4    0    0 -0.21467372868E+03  0.81953383722E+02 -0.58301903583E+03  0.63178341410E+03  0.80236645636E+02 0.  0.
         13    1    3    3    0    0  0.21692370951E+02 -0.45477197475E+01  0.36014530243E+01  0.22454647097E+02  0.00000000000E+00 0. -1.
        -13    1    3    3    0    0  0.39179830332E+03 -0.15235395192E+02 -0.33507158884E+03  0.51576253974E+03  0.00000000000E+00 0.  1.
          4    1    6    6  502    0 -0.11906845009E+03  0.57078025984E+02 -0.42850898068E+03  0.44839172983E+03  0.00000000000E+00 0. -1.
          1    1    5    5  503    0 -0.19791790771E+03 -0.62495438821E+02  0.33449124162E+03  0.39365158298E+03  0.00000000000E+00 0. -1.
         -2    1    5    5    0  503 -0.89903787987E+00  0.32517003908E+00 -0.44519337734E+01  0.45534293655E+01  0.00000000000E+00 0.  1.
         -3    1    6    6    0  502 -0.95605278589E+02  0.24875357738E+02 -0.15451005515E+03  0.18339168427E+03  0.00000000000E+00 0.  1.
<mgrwt>
<rscale>  0 0.14552275E+04</rscale>
<asrwt>0</asrwt>
<pdfrwt beam="1">  1        1 0.16558888E+00 0.14552275E+04</pdfrwt>
<pdfrwt beam="2">  1       -1 0.75673519E-01 0.14552275E+04</pdfrwt>
<totfact> 0.22511835E+01</totfact>
</mgrwt>
</event>
<event>
12    1  0.1496989E-007  0.1499180E+04  0.7818608E-02  0.8884999E-01
         -2   -1    0    0    0  501 -0.00000000000E+00  0.00000000000E+00  0.90650458736E+03  0.90650458736E+03  0.00000000000E+00 0.  1.
          2   -1    0    0  501    0  0.00000000000E+00 -0.00000000000E+00 -0.61983673452E+03  0.61983673452E+03  0.00000000000E+00 0. -1.
         23    2    1    2    0    0 -0.31558660957E+03  0.11354108423E+03 -0.23565128964E+03  0.42789737443E+03  0.12279310560E+03 0.  0.
        254    2    1    2    0    0  0.31558660957E+03 -0.11354108423E+03  0.52231914249E+03  0.10984439475E+04  0.90624242515E+03 0.  0.
        -24    2    4    4    0    0  0.53213234326E+03 -0.29859013353E+03  0.16960100878E+03  0.63832851836E+03  0.79861734220E+02 0.  0.
         24    2    4    4    0    0 -0.21654573369E+03  0.18504904930E+03  0.35271813371E+03  0.46011542909E+03  0.78491533374E+02 0.  0.
         11    1    3    3    0    0 -0.22658269131E+03  0.93450414841E+02 -0.23058321724E+03  0.33651347092E+03  0.00000000000E+00 0. -1.
        -11    1    3    3    0    0 -0.89003918265E+02  0.20090669385E+02 -0.50680723983E+01  0.91383903510E+02  0.00000000000E+00 0.  1.
          2    1    6    6  502    0 -0.63157123392E+02  0.47156246327E+02  0.48428233172E+02  0.92508527017E+02  0.00000000000E+00 0. -1.
          3    1    5    5  503    0  0.11510334941E+03 -0.30935985535E+02  0.21260018071E+02  0.12106942064E+03  0.00000000000E+00 0. -1.
         -4    1    5    5    0  503  0.41702899385E+03 -0.26765414799E+03  0.14834099070E+03  0.51725909772E+03  0.00000000000E+00 0.  1.
         -1    1    6    6    0  502 -0.15338861030E+03  0.13789280298E+03  0.30428990054E+03  0.36760690207E+03  0.00000000000E+00 0.  1.
<mgrwt>
<rscale>  0 0.14991796E+04</rscale>
<asrwt>0</asrwt>
<pdfrwt beam="1">  1        2 0.95359498E-01 0.14991796E+04</pdfrwt>
<pdfrwt beam="2">  1       -2 0.13946224E+00 0.14991796E+04</pdfrwt>
<totfact> 0.16700798E+01</totfact>
</mgrwt>
</event>
<event>
12    1  0.1496989E-007  0.2369364E+04  0.7818608E-02  0.8451063E-01
          2   -1    0    0  501    0  0.00000000000E+00  0.00000000000E+00  0.22073010788E+04  0.22073010788E+04  0.00000000000E+00 0. -1.
         -2   -1    0    0    0  501 -0.00000000000E+00 -0.00000000000E+00 -0.63583160439E+03  0.63583160439E+03  0.00000000000E+00 0.  1.
         23    2    1    2    0    0  0.81451694758E+03 -0.59733522080E+03  0.61409776384E+03  0.11859643135E+04  0.95645519229E+02 0.  0.
        254    2    1    2    0    0 -0.81451694758E+03  0.59733522080E+03  0.95737171056E+03  0.16571683697E+04  0.89966615446E+03 0.  0.
        -24    2    4    4    0    0  0.59392606094E+02  0.40010375867E+03  0.12288259222E+03  0.43020189675E+03  0.79768672675E+02 0.  0.
         24    2    4    4    0    0 -0.87390955367E+03  0.19723146213E+03  0.83448911834E+03  0.12269664730E+04  0.80352221324E+02 0.  0.
         11    1    3    3    0    0  0.75481147074E+03 -0.55936147564E+03  0.59716589005E+03  0.11132082990E+04  0.00000000000E+00 0.  1.
        -11    1    3    3    0    0  0.59705476837E+02 -0.37973745156E+02  0.16931873794E+02  0.72756014429E+02  0.00000000000E+00 0. -1.
          4    1    6    6  502    0 -0.39564257481E+03  0.50094574681E+02  0.38577351379E+03  0.55485468130E+03  0.00000000000E+00 0. -1.
          1    1    5    5  503    0  0.60134808152E+02  0.40008228581E+03  0.12853296287E+03  0.42450294830E+03  0.00000000000E+00 0. -1.
         -2    1    5    5    0  503 -0.74220205882E+00  0.21472860934E-01 -0.56503706534E+01  0.56989484557E+01  0.00000000000E+00 0.  1.
         -3    1    6    6    0  502 -0.47826697887E+03  0.14713688745E+03  0.44871560454E+03  0.67211179166E+03  0.00000000000E+00 0.  1.
<mgrwt>
<rscale>  0 0.23693643E+04</rscale>
<asrwt>0</asrwt>
<pdfrwt beam="1">  1        2 0.33958478E+00 0.23693643E+04</pdfrwt>
<pdfrwt beam="2">  1       -2 0.97820248E-01 0.23693643E+04</pdfrwt>
<totfact> 0.40119892E+00</totfact>
</mgrwt>
</event>
<event>
12    1  0.1591532E-007  0.2501696E+04  0.7818608E-02  0.8402381E-01
          2   -1    0    0  501    0  0.00000000000E+00  0.00000000000E+00  0.16764878915E+04  0.16764878915E+04  0.00000000000E+00 0.  1.
         -2   -1    0    0    0  501 -0.00000000000E+00 -0.00000000000E+00 -0.93327325413E+03  0.93327325413E+03  0.00000000000E+00 0. -1.
         23    2    1    2    0    0  0.67977922168E+03  0.44982642663E+02  0.11988414659E+04  0.13821171085E+04  0.94358957749E+02 0.  0.
        254    2    1    2    0    0 -0.67977922168E+03 -0.44982642663E+02 -0.45562682848E+03  0.12276440372E+04  0.91399718097E+03 0.  0.
        -24    2    4    4    0    0 -0.10614771477E+03  0.18679583724E+03  0.21278500520E+03  0.31332649495E+03  0.82073210245E+02 0.  0.
         24    2    4    4    0    0 -0.57363150691E+03 -0.23177847990E+03 -0.66841183367E+03  0.91431754223E+03  0.80173681250E+02 0.  0.
         11    1    3    3    0    0  0.66067082648E+03  0.55043531325E+02  0.11316873725E+04  0.13115761664E+04  0.00000000000E+00 0.  1.
        -11    1    3    3    0    0  0.19108395204E+02 -0.10060888661E+02  0.67154093392E+02  0.70540942063E+02  0.00000000000E+00 0. -1.
          4    1    6    6  502    0 -0.44994748238E+03 -0.16028502688E+03 -0.47262683551E+03  0.67195249266E+03  0.00000000000E+00 0. -1.
          1    1    5    5  503    0 -0.10873329315E+03  0.18394900927E+03  0.21902688625E+03  0.30599500641E+03  0.00000000000E+00 0. -1.
         -2    1    5    5    0  503  0.25855783845E+01  0.28468279709E+01 -0.62418810514E+01  0.73314885349E+01  0.00000000000E+00 0.  1.
         -3    1    6    6    0  502 -0.12368402454E+03 -0.71493453021E+02 -0.19578499816E+03  0.24236504957E+03  0.00000000000E+00 0.  1.
<mgrwt>
<rscale>  0 0.25016965E+04</rscale>
<asrwt>0</asrwt>
<pdfrwt beam="1">  1        2 0.25792121E+00 0.25016965E+04</pdfrwt>
<pdfrwt beam="2">  1       -2 0.14358050E+00 0.25016965E+04</pdfrwt>
<totfact> 0.30310930E+00</totfact>
</mgrwt>
</event>
<event>
12    1  0.1496989E-007  0.2531970E+04  0.7818608E-02  0.8391684E-01
          2   -1    0    0  501    0  0.00000000000E+00  0.00000000000E+00  0.41790033006E+04  0.41790033006E+04  0.00000000000E+00 0. -1.
         -2   -1    0    0    0  501 -0.00000000000E+00 -0.00000000000E+00 -0.38351666905E+03  0.38351666905E+03  0.00000000000E+00 0.  1.
         23    2    1    2    0    0  0.45000037581E+03 -0.30427687115E+03 -0.71657839812E+02  0.55429582182E+03  0.83810855760E+02 0.  0.
        254    2    1    2    0    0 -0.45000037581E+03  0.30427687115E+03  0.38671444713E+04  0.40082241478E+04  0.90331041415E+03 0.  0.
        -24    2    4    4    0    0  0.16549587603E+03  0.36198186705E+03  0.11245613639E+04  0.11957114589E+04  0.81657055528E+02 0.  0.
         24    2    4    4    0    0 -0.61549625184E+03 -0.57704995901E+02  0.27425831074E+04  0.28125126889E+04  0.79372674541E+02 0.  0.
         13    1    3    3    0    0  0.40686485441E+03 -0.27744395037E+03 -0.39207403098E+02  0.49401556231E+03  0.00000000000E+00 0.  1.
        -13    1    3    3    0    0  0.43135521400E+02 -0.26832920778E+02 -0.32450436715E+02  0.60280259513E+02  0.00000000000E+00 0. -1.
          4    1    6    6  502    0 -0.46101208020E+03 -0.14861044554E+02  0.19406086635E+04  0.19946716455E+04  0.00000000000E+00 0. -1.
          3    1    5    5  503    0  0.16768675978E+03  0.36337240396E+03  0.11239117769E+04  0.11930364771E+04  0.00000000000E+00 0. -1.
         -4    1    5    5    0  503 -0.21908837502E+01 -0.13905369147E+01  0.64958699828E+00  0.26749818291E+01  0.00000000000E+00 0.  1.
         -3    1    6    6    0  502 -0.15448417163E+03 -0.42843951346E+02  0.80197444398E+03  0.81784104338E+03  0.00000000000E+00 0.  1.
<mgrwt>
<rscale>  0 0.25319695E+04</rscale>
<asrwt>0</asrwt>
<pdfrwt beam="1">  1        2 0.64292355E+00 0.25319695E+04</pdfrwt>
<pdfrwt beam="2">  1       -2 0.59002567E-01 0.25319695E+04</pdfrwt>
<totfact> 0.58101150E-01</totfact>
</mgrwt>
</event>
<event>
12    1  0.1496989E-007  0.1322856E+04  0.7818608E-02  0.9011634E-01
          1   -1    0    0  501    0  0.00000000000E+00  0.00000000000E+00  0.86690957156E+03  0.86690957156E+03  0.00000000000E+00 0. -1.
         -1   -1    0    0    0  501 -0.00000000000E+00 -0.00000000000E+00 -0.50465103790E+03  0.50465103790E+03  0.00000000000E+00 0.  1.
         23    2    1    2    0    0  0.49458175205E+02 -0.69151802879E+02 -0.31208562709E+03  0.33505155276E+03  0.87372887305E+02 0.  0.
        254    2    1    2    0    0 -0.49458175205E+02  0.69151802879E+02  0.67434416075E+03  0.10365090567E+04  0.78254897260E+03 0.  0.
        -24    2    4    4    0    0  0.32184963272E+03  0.59060475085E+02  0.53336422838E+03  0.63087464808E+03  0.80312487659E+02 0.  0.
         24    2    4    4    0    0 -0.37130780793E+03  0.10091327794E+02  0.14097993237E+03  0.40563440861E+03  0.81808367482E+02 0.  0.
         13    1    3    3    0    0 -0.39732510256E+01  0.74256176262E+01  0.86636901880E+00  0.84662338806E+01  0.00000000000E+00 0. -1.
        -13    1    3    3    0    0  0.53431426230E+02 -0.76577420505E+02 -0.31295199611E+03  0.32658531888E+03  0.00000000000E+00 0.  1.
          4    1    6    6  502    0 -0.22032340557E+02 -0.17856318461E+02  0.11830106904E+01  0.28384355792E+02  0.00000000000E+00 0. -1.
          3    1    5    5  503    0  0.76193596508E+02 -0.88798718797E+01  0.17541317961E+03  0.19145260472E+03  0.00000000000E+00 0. -1.
         -4    1    5    5    0  503  0.24565603622E+03  0.67940346964E+02  0.35795104877E+03  0.43942204336E+03  0.00000000000E+00 0.  1.
         -3    1    6    6    0  502 -0.34927546737E+03  0.27947646255E+02  0.13979692168E+03  0.37725005282E+03  0.00000000000E+00 0.  1.
<mgrwt>
<rscale>  0 0.13228557E+04</rscale>
<asrwt>0</asrwt>
<pdfrwt beam="1">  1        1 0.13337070E+00 0.13228557E+04</pdfrwt>
<pdfrwt beam="2">  1       -1 0.77638621E-01 0.13228557E+04</pdfrwt>
<totfact> 0.31615191E+01</totfact>
</mgrwt>
</event>
<event>
12    1  0.1496989E-007  0.4907418E+04  0.7818608E-02  0.7842950E-01
          1   -1    0    0  501    0  0.00000000000E+00  0.00000000000E+00  0.42140601928E+04  0.42140601928E+04  0.00000000000E+00 0. -1.
         -1   -1    0    0    0  501 -0.00000000000E+00 -0.00000000000E+00 -0.14287144253E+04  0.14287144253E+04  0.00000000000E+00 0.  1.
         23    2    1    2    0    0 -0.12329438344E+04 -0.10851719556E+04 -0.61746329912E+03  0.17570974173E+04  0.91551822837E+02 0.  0.
        254    2    1    2    0    0  0.12329438344E+04  0.10851719556E+04  0.34028090666E+04  0.38856772007E+04  0.90643758344E+03 0.  0.
        -24    2    4    4    0    0  0.12266268739E+04  0.58082951716E+03  0.26079644584E+04  0.29410238955E+04  0.78527201873E+02 0.  0.
         24    2    4    4    0    0  0.63169605298E+01  0.50434243842E+03  0.79484460815E+03  0.94465330528E+03  0.78681108829E+02 0.  0.
         13    1    3    3    0    0 -0.10392045264E+04 -0.94988371326E+03 -0.54793462349E+03  0.15107804169E+04  0.00000000000E+00 0.  1.
        -13    1    3    3    0    0 -0.19373930803E+03 -0.13528824232E+03 -0.69528675626E+02  0.24631700047E+03  0.00000000000E+00 0. -1.
          2    1    6    6  502    0  0.97656261887E+01  0.23565366004E+03  0.44368696085E+03  0.50247998386E+03  0.00000000000E+00 0. -1.
          1    1    5    5  503    0  0.83542112718E+03  0.37103100597E+03  0.16909031074E+04  0.19221721530E+04  0.00000000000E+00 0. -1.
         -2    1    5    5    0  503  0.39120574670E+03  0.20979851119E+03  0.91706135105E+03  0.10188517425E+04  0.00000000000E+00 0.  1.
         -1    1    6    6    0  502 -0.34486656590E+01  0.26868877838E+03  0.35115764729E+03  0.44217332142E+03  0.00000000000E+00 0.  1.
<mgrwt>
<rscale>  0 0.49074183E+04</rscale>
<asrwt>0</asrwt>
<pdfrwt beam="1">  1        1 0.64831695E+00 0.49074183E+04</pdfrwt>
<pdfrwt beam="2">  1       -1 0.21980222E+00 0.49074183E+04</pdfrwt>
<totfact> 0.49021791E-03</totfact>
</mgrwt>
</event>
<event>
12    1  0.1496989E-007  0.1709175E+04  0.7818608E-02  0.8756149E-01
          1   -1    0    0  501    0  0.00000000000E+00  0.00000000000E+00  0.44227603161E+03  0.44227603161E+03  0.00000000000E+00 0. -1.
         -1   -1    0    0    0  501 -0.00000000000E+00 -0.00000000000E+00 -0.16512757144E+04  0.16512757144E+04  0.00000000000E+00 0.  1.
         23    2    1    2    0    0  0.43114552101E+03  0.32258611703E+03 -0.80551128963E+03  0.97307102593E+03  0.89836076229E+02 0.  0.
        254    2    1    2    0    0 -0.43114552101E+03 -0.32258611703E+03 -0.40348839317E+03  0.11204807201E+04  0.89594971815E+03 0.  0.
        -24    2    4    4    0    0 -0.66303719787E+03 -0.77606982935E+02 -0.38117682564E+03  0.77288000317E+03  0.80040972880E+02 0.  0.
         24    2    4    4    0    0  0.23189167686E+03 -0.24497913409E+03 -0.22311567532E+02  0.34760071691E+03  0.80869811490E+02 0.  0.
         13    1    3    3    0    0  0.15705444020E+03  0.12530128875E+03 -0.37988759322E+03  0.42974538232E+03  0.00000000000E+00 0.  1.
        -13    1    3    3    0    0  0.27409108082E+03  0.19728482828E+03 -0.42562369641E+03  0.54332564360E+03  0.00000000000E+00 0. -1.
          4    1    6    6  502    0  0.40756452947E+02 -0.80614571031E+02 -0.30607549453E+02  0.95376200401E+02  0.00000000000E+00 0. -1.
          1    1    5    5  503    0 -0.16007968303E+03 -0.13644316260E+02 -0.13209031971E+03  0.20798924214E+03  0.00000000000E+00 0. -1.
         -2    1    5    5    0  503 -0.50295751485E+03 -0.63962666675E+02 -0.24908650593E+03  0.56489076104E+03  0.00000000000E+00 0.  1.
         -3    1    6    6    0  502  0.19113522391E+03 -0.16436456306E+03  0.82959819212E+01  0.25222451651E+03  0.00000000000E+00 0.  1.
<mgrwt>
<rscale>  0 0.17091749E+04</rscale>
<asrwt>0</asrwt>
<pdfrwt beam="1">  1        1 0.68042468E-01 0.17091749E+04</pdfrwt>
<pdfrwt beam="2">  1       -1 0.25404241E+00 0.17091749E+04</pdfrwt>
<totfact> 0.32711736E+00</totfact>
</mgrwt>
</event>
<event>
12    1  0.1496989E-007  0.1155727E+04  0.7818608E-02  0.9152516E-01
         -2   -1    0    0    0  501 -0.00000000000E+00  0.00000000000E+00  0.82479583222E+03  0.82479583222E+03  0.00000000000E+00 0.  1.
          2   -1    0    0  501    0  0.00000000000E+00 -0.00000000000E+00 -0.40485917948E+03  0.40485917948E+03  0.00000000000E+00 0. -1.
         23    2    1    2    0    0  0.17731797329E+03  0.12013798875E+03  0.12514570073E+03  0.26254772994E+03  0.85994558512E+02 0.  0.
        254    2    1    2    0    0 -0.17731797329E+03 -0.12013798875E+03  0.29479095201E+03  0.96710728176E+03  0.89583480009E+03 0.  0.
        -24    2    4    4    0    0 -0.39561534493E+02 -0.47373948002E+03  0.33873400893E+01  0.48235879668E+03  0.81635315432E+02 0.  0.
         24    2    4    4    0    0 -0.13775643880E+03  0.35360149127E+03  0.29140361192E+03  0.48474848508E+03  0.77808596506E+02 0.  0.
         13    1    3    3    0    0  0.12007660732E+03  0.55687849736E+02  0.11575628802E+03  0.17583812570E+03  0.00000000000E+00 0.  1.
        -13    1    3    3    0    0  0.57241365970E+02  0.64450139012E+02  0.93894127152E+01  0.86709604243E+02  0.00000000000E+00 0. -1.
          2    1    6    6  502    0 -0.70031446296E+00  0.90578959361E+02  0.61482457538E+02  0.10947662264E+03  0.00000000000E+00 0. -1.
          1    1    5    5  503    0  0.11902326445E+02 -0.61208092706E+02  0.22241030269E+02  0.66202412455E+02  0.00000000000E+00 0. -1.
         -2    1    5    5    0  503 -0.51463860937E+02 -0.41253138731E+03 -0.18853690180E+02  0.41615638423E+03  0.00000000000E+00 0.  1.
         -1    1    6    6    0  502 -0.13705612434E+03  0.26302253191E+03  0.22992115438E+03  0.37527186244E+03  0.00000000000E+00 0.  1.
<mgrwt>
<rscale>  0 0.11557269E+04</rscale>
<asrwt>0</asrwt>
<pdfrwt beam="1">  1        2 0.62286028E-01 0.11557269E+04</pdfrwt>
<pdfrwt beam="2">  1       -2 0.12689167E+00 0.11557269E+04</pdfrwt>
<totfact> 0.35815788E+01</totfact>
</mgrwt>
</event>
<event>
12    1  0.1496989E-007  0.2416703E+04  0.7818608E-02  0.8433277E-01
          3   -1    0    0  501    0  0.00000000000E+00  0.00000000000E+00  0.24473157155E+04  0.24473157155E+04  0.00000000000E+00 0.  1.
         -3   -1    0    0    0  501 -0.00000000000E+00 -0.00000000000E+00 -0.59661808292E+03  0.59661808292E+03  0.00000000000E+00 0. -1.
         23    2    1    2    0    0 -0.34419164979E+03  0.81591069092E+03  0.12746480969E+03  0.89925989563E+03  0.90790609802E+02 0.  0.
        254    2    1    2    0    0  0.34419164979E+03 -0.81591069092E+03  0.17232328229E+04  0.21446739028E+04  0.91973726686E+03 0.  0.
        -24    2    4    4    0    0  0.75226729964E+02 -0.34678297488E+03  0.15175540825E+04  0.15605343775E+04  0.79872757462E+02 0.  0.
         24    2    4    4    0    0  0.26896491982E+03 -0.46912771604E+03  0.20567874031E+03  0.58413952525E+03  0.80574801793E+02 0.  0.
         13    1    3    3    0    0 -0.99782524958E+02  0.18708821051E+03 -0.32672464735E+01  0.21205948623E+03  0.00000000000E+00 0.  1.
        -13    1    3    3    0    0 -0.24440912483E+03  0.62882248041E+03  0.13073205617E+03  0.68720040940E+03  0.00000000000E+00 0. -1.
          2    1    6    6  502    0  0.16547794434E+03 -0.28443240506E+03  0.82691784271E+02  0.33929732433E+03  0.00000000000E+00 0. -1.
          1    1    5    5  503    0  0.47369527847E+02 -0.18226926441E+03  0.63464714105E+03  0.66199920737E+03  0.00000000000E+00 0. -1.
         -2    1    5    5    0  503  0.27857202117E+02 -0.16451371047E+03  0.88290694149E+03  0.89853517014E+03  0.00000000000E+00 0.  1.
         -3    1    6    6    0  502  0.10348697549E+03 -0.18469531098E+03  0.12298695604E+03  0.24484220092E+03  0.00000000000E+00 0.  1.
<mgrwt>
<rscale>  0 0.24167026E+04</rscale>
<asrwt>0</asrwt>
<pdfrwt beam="1">  1        3 0.37651010E+00 0.24167026E+04</pdfrwt>
<pdfrwt beam="2">  1       -3 0.91787399E-01 0.24167026E+04</pdfrwt>
<totfact> 0.37060261E-02</totfact>
</mgrwt>
</event>
<event>
12    1  0.1496989E-007  0.1461307E+04  0.7818608E-02  0.8910599E-01
         -2   -1    0    0    0  501 -0.00000000000E+00  0.00000000000E+00  0.32701026845E+03  0.32701026845E+03  0.00000000000E+00 0.  1.
          2   -1    0    0  501    0  0.00000000000E+00 -0.00000000000E+00 -0.16325304448E+04  0.16325304448E+04  0.00000000000E+00 0. -1.
         23    2    1    2    0    0 -0.67879521108E+02  0.69566374679E+02  0.17240127249E+03  0.21942412844E+03  0.94750406421E+02 0.  0.
        254    2    1    2    0    0  0.67879521108E+02 -0.69566374679E+02 -0.14779214489E+04  0.17401165848E+04  0.91340396865E+03 0.  0.
        -24    2    4    4    0    0 -0.38941337219E+03 -0.18521025344E+03 -0.75826863686E+03  0.87593847936E+03  0.79694928025E+02 0.  0.
         24    2    4    4    0    0  0.45729289329E+03  0.11564387876E+03 -0.71965281201E+03  0.86417810549E+03  0.80083276760E+02 0.  0.
         13    1    3    3    0    0  0.67210197516E+01  0.41738435105E+02  0.18501028640E+02  0.46147124854E+02  0.00000000000E+00 0. -1.
        -13    1    3    3    0    0 -0.74600540860E+02  0.27827939574E+02  0.15390024385E+03  0.17327700359E+03  0.00000000000E+00 0.  1.
          4    1    6    6  502    0  0.27064598123E+03  0.92334242029E+02 -0.48984904316E+03  0.56720978878E+03  0.00000000000E+00 0. -1.
          3    1    5    5  503    0 -0.18278233498E+03 -0.11048515726E+03 -0.30658204382E+03  0.37364274588E+03  0.00000000000E+00 0. -1.
         -4    1    5    5    0  503 -0.20663103721E+03 -0.74725096176E+02 -0.45168659304E+03  0.50229573347E+03  0.00000000000E+00 0.  1.
         -3    1    6    6    0  502  0.18664691207E+03  0.23309636730E+02 -0.22980376885E+03  0.29696831671E+03  0.00000000000E+00 0.  1.
<mgrwt>
<rscale>  0 0.14613066E+04</rscale>
<asrwt>0</asrwt>
<pdfrwt beam="1">  1        2 0.25115853E+00 0.14613066E+04</pdfrwt>
<pdfrwt beam="2">  1       -2 0.50309272E-01 0.14613066E+04</pdfrwt>
<totfact> 0.38716754E+01</totfact>
</mgrwt>
</event>
<event>
12    1  0.1496989E-007  0.1685500E+04  0.7818608E-02  0.8769678E-01
         -1   -1    0    0    0  501 -0.00000000000E+00  0.00000000000E+00  0.70152875702E+03  0.70152875702E+03  0.00000000000E+00 0.  1.
          1   -1    0    0  501    0  0.00000000000E+00 -0.00000000000E+00 -0.10123997773E+04  0.10123997773E+04  0.00000000000E+00 0. -1.
         23    2    1    2    0    0 -0.47122041428E+03  0.31945281517E+03 -0.30416537168E+03  0.65157792698E+03  0.89097932918E+02 0.  0.
        254    2    1    2    0    0  0.47122041428E+03 -0.31945281517E+03 -0.67056486085E+01  0.10623506074E+04  0.89690861701E+03 0.  0.
        -24    2    4    4    0    0  0.36423908905E+03 -0.80974408635E+02  0.41253976670E+03  0.56195527555E+03  0.79860526962E+02 0.  0.
         24    2    4    4    0    0  0.10698132522E+03 -0.23847840654E+03 -0.41924541530E+03  0.50039533180E+03  0.79446935139E+02 0.  0.
         13    1    3    3    0    0 -0.30718832079E+03  0.25459198413E+03 -0.22716073558E+03  0.45911190640E+03  0.00000000000E+00 0.  1.
        -13    1    3    3    0    0 -0.16403209348E+03  0.64860831045E+02 -0.77004636100E+02  0.19246602058E+03  0.00000000000E+00 0. -1.
          4    1    6    6  502    0  0.52770983172E+02 -0.14421810723E+03 -0.31160069842E+03  0.34738830489E+03  0.00000000000E+00 0. -1.
          1    1    5    5  503    0  0.27978312644E+03 -0.40370597024E+02  0.26690221736E+03  0.38877394020E+03  0.00000000000E+00 0. -1.
         -2    1    5    5    0  503  0.84455962611E+02 -0.40603811611E+02  0.14563754934E+03  0.17318133536E+03  0.00000000000E+00 0.  1.
         -3    1    6    6    0  502  0.54210342049E+02 -0.94260299309E+02 -0.10764471688E+03  0.15300702691E+03  0.00000000000E+00 0.  1.
<mgrwt>
<rscale>  0 0.16855000E+04</rscale>
<asrwt>0</asrwt>
<pdfrwt beam="1">  1        1 0.15575381E+00 0.16855000E+04</pdfrwt>
<pdfrwt beam="2">  1       -1 0.10792750E+00 0.16855000E+04</pdfrwt>
<totfact> 0.11256174E+01</totfact>
</mgrwt>
</event>
<event>
12    1  0.1496989E-007  0.1742985E+04  0.7818608E-02  0.8737221E-01
          2   -1    0    0  501    0  0.00000000000E+00  0.00000000000E+00  0.18196253515E+04  0.18196253515E+04  0.00000000000E+00 0.  1.
         -2   -1    0    0    0  501 -0.00000000000E+00 -0.00000000000E+00 -0.41739303435E+03  0.41739303435E+03  0.00000000000E+00 0. -1.
         23    2    1    2    0    0 -0.15268559444E+03  0.47900779588E+03  0.10136816373E+04  0.11352470324E+04  0.92054349882E+02 0.  0.
        254    2    1    2    0    0  0.15268559444E+03 -0.47900779588E+03  0.38855067986E+03  0.11017713535E+04  0.90009284265E+03 0.  0.
        -24    2    4    4    0    0 -0.41065846118E+02 -0.13740873510E+03  0.61826846366E+03  0.63980367493E+03  0.80779236799E+02 0.  0.
         24    2    4    4    0    0  0.19375144055E+03 -0.34159906078E+03 -0.22971778380E+03  0.46196767860E+03  0.80089555114E+02 0.  0.
         13    1    3    3    0    0 -0.10768414720E+03  0.40478836210E+03  0.89546230854E+03  0.98858597991E+03  0.00000000000E+00 0.  1.
        -13    1    3    3    0    0 -0.45001447241E+02  0.74219433774E+02  0.11821932880E+03  0.14666105245E+03  0.00000000000E+00 0. -1.
          2    1    6    6  502    0  0.67166278386E+02 -0.13904407750E+03 -0.47549818294E+02  0.16157211907E+03  0.00000000000E+00 0. -1.
          1    1    5    5  503    0  0.23123144239E+02 -0.53700193810E+02  0.19404297509E+03  0.20265997828E+03  0.00000000000E+00 0. -1.
         -2    1    5    5    0  503 -0.64188990357E+02 -0.83708541292E+02  0.42422548858E+03  0.43714369666E+03  0.00000000000E+00 0.  1.
         -1    1    6    6    0  502  0.12658516217E+03 -0.20255498328E+03 -0.18216796551E+03  0.30039555954E+03  0.00000000000E+00 0.  1.
<mgrwt>
<rscale>  0 0.17429847E+04</rscale>
<asrwt>0</asrwt>
<pdfrwt beam="1">  1        2 0.27994236E+00 0.17429847E+04</pdfrwt>
<pdfrwt beam="2">  1       -2 0.64214314E-01 0.17429847E+04</pdfrwt>
<totfact> 0.17882132E+01</totfact>
</mgrwt>
</event>
<event>
12    1  0.1496989E-007  0.1869296E+04  0.7818608E-02  0.8670292E-01
         -1   -1    0    0    0  501 -0.00000000000E+00  0.00000000000E+00  0.69824779560E+03  0.69824779560E+03  0.00000000000E+00 0.  1.
          1   -1    0    0  501    0  0.00000000000E+00 -0.00000000000E+00 -0.12510844757E+04  0.12510844757E+04  0.00000000000E+00 0. -1.
         23    2    1    2    0    0 -0.68355392916E+02 -0.83606755308E+02  0.53072982058E+03  0.54919115665E+03  0.90962821063E+02 0.  0.
        254    2    1    2    0    0  0.68355392916E+02  0.83606755308E+02 -0.10835665006E+04  0.14001411146E+04  0.88012284950E+03 0.  0.
        -24    2    4    4    0    0  0.27447174664E+03 -0.25828702213E+03 -0.21580160171E+03  0.44161300379E+03  0.80029921351E+02 0.  0.
         24    2    4    4    0    0 -0.20611635372E+03  0.34189377744E+03 -0.86776489893E+03  0.95852811081E+03  0.79905651047E+02 0.  0.
         11    1    3    3    0    0  0.86617334132E+01 -0.52084419484E+02  0.13833178173E+03  0.14806584419E+03  0.00000000000E+00 0.  1.
        -11    1    3    3    0    0 -0.77017126329E+02 -0.31522335825E+02  0.39239803885E+03  0.40112531246E+03  0.00000000000E+00 0. -1.
          4    1    6    6  502    0 -0.20739579957E+03  0.31424760341E+03 -0.77328384692E+03  0.86007702087E+03  0.00000000000E+00 0. -1.
          3    1    5    5  503    0  0.24548992965E+03 -0.25191086383E+03 -0.21433309690E+03  0.41190176657E+03  0.00000000000E+00 0. -1.
         -4    1    5    5    0  503  0.28981816990E+02 -0.63761582991E+01 -0.14685048038E+01  0.29711237218E+02  0.00000000000E+00 0.  1.
         -3    1    6    6    0  502  0.12794458444E+01  0.27646174027E+02 -0.94481052018E+02  0.98451089941E+02  0.00000000000E+00 0.  1.
<mgrwt>
<rscale>  0 0.18692961E+04</rscale>
<asrwt>0</asrwt>
<pdfrwt beam="1">  1        1 0.19247454E+00 0.18692961E+04</pdfrwt>
<pdfrwt beam="2">  1       -1 0.10742274E+00 0.18692961E+04</pdfrwt>
<totfact> 0.74269545E+00</totfact>
</mgrwt>
</event>
<event>
12    1  0.1496989E-007  0.1715370E+04  0.7818608E-02  0.8752647E-01
         -1   -1    0    0    0  501 -0.00000000000E+00  0.00000000000E+00  0.14261692285E+04  0.14261692285E+04  0.00000000000E+00 0.  1.
          1   -1    0    0  501    0  0.00000000000E+00 -0.00000000000E+00 -0.51580363389E+03  0.51580363389E+03  0.00000000000E+00 0. -1.
         23    2    1    2    0    0  0.15389784890E+03  0.54269125487E+03  0.45617374629E+02  0.57448651643E+03  0.98769766024E+02 0.  0.
        254    2    1    2    0    0 -0.15389784890E+03 -0.54269125487E+03  0.86474821997E+03  0.13674863460E+04  0.89667779968E+03 0.  0.
        -24    2    4    4    0    0 -0.46986027320E+03 -0.46074339773E+03  0.77516489729E+03  0.10199105782E+04  0.79270514986E+02 0.  0.
         24    2    4    4    0    0  0.31596242430E+03 -0.81947857134E+02  0.89583322675E+02  0.34757576780E+03  0.78968587466E+02 0.  0.
         13    1    3    3    0    0  0.75399793868E+02  0.21734827448E+03 -0.28159789942E+02  0.23177224835E+03  0.00000000000E+00 0. -1.
        -13    1    3    3    0    0  0.78498055034E+02  0.32534298039E+03  0.73777164572E+02  0.34271426808E+03  0.00000000000E+00 0.  1.
          4    1    6    6  502    0  0.26663140417E+03 -0.37448452646E+02  0.67711039688E+02  0.27763190954E+03  0.00000000000E+00 0. -1.
          1    1    5    5  503    0 -0.42079235961E+03 -0.40856777524E+03  0.64838678857E+03  0.87429929913E+03  0.00000000000E+00 0. -1.
         -2    1    5    5    0  503 -0.49067913589E+02 -0.52175622497E+02  0.12677810873E+03  0.14561127902E+03  0.00000000000E+00 0.  1.
         -3    1    6    6    0  502  0.49331020122E+02 -0.44499404488E+02  0.21872282987E+02  0.69943858266E+02  0.00000000000E+00 0.  1.
<mgrwt>
<rscale>  0 0.17153697E+04</rscale>
<asrwt>0</asrwt>
<pdfrwt beam="1">  1        1 0.79354406E-01 0.17153697E+04</pdfrwt>
<pdfrwt beam="2">  1       -1 0.21941065E+00 0.17153697E+04</pdfrwt>
<totfact> 0.44796904E+00</totfact>
</mgrwt>
</event>
<event>
12    1  0.1496989E-007  0.1787917E+04  0.7818608E-02  0.8712752E-01
         -1   -1    0    0    0  501 -0.00000000000E+00  0.00000000000E+00  0.95296240831E+03  0.95296240831E+03  0.00000000000E+00 0.  1.
          1   -1    0    0  501    0  0.00000000000E+00 -0.00000000000E+00 -0.83860799851E+03  0.83860799851E+03  0.00000000000E+00 0. -1.
         23    2    1    2    0    0 -0.32070311083E+03 -0.35585280870E+03 -0.41953542894E+03  0.64327235487E+03  0.91146254178E+02 0.  0.
        254    2    1    2    0    0  0.32070311083E+03  0.35585280870E+03  0.53388983874E+03  0.11482980520E+04  0.89669858339E+03 0.  0.
        -24    2    4    4    0    0  0.33370692500E+03  0.24711344291E+03 -0.15170340615E+03  0.44940215245E+03  0.80765126934E+02 0.  0.
         24    2    4    4    0    0 -0.13003814170E+02  0.10873936579E+03  0.68559324489E+03  0.69889589950E+03  0.80150059525E+02 0.  0.
         13    1    3    3    0    0 -0.19473384656E+03 -0.27024712934E+03 -0.25862721227E+03  0.42171414114E+03  0.00000000000E+00 0. -1.
        -13    1    3    3    0    0 -0.12596926427E+03 -0.85605679362E+02 -0.16090821667E+03  0.22155821373E+03  0.00000000000E+00 0.  1.
          4    1    6    6  502    0  0.72047055259E+01  0.84619598600E+02  0.62377700391E+03  0.62953167899E+03  0.00000000000E+00 0. -1.
          3    1    5    5  503    0  0.30967962762E+03  0.23776227652E+03 -0.11981985652E+03  0.40839829813E+03  0.00000000000E+00 0. -1.
         -4    1    5    5    0  503  0.24027297378E+02  0.93511663939E+01 -0.31883549627E+02  0.41003854320E+02  0.00000000000E+00 0.  1.
         -3    1    6    6    0  502 -0.20208519696E+02  0.24119767187E+02  0.61816240986E+02  0.69364220511E+02  0.00000000000E+00 0.  1.
<mgrwt>
<rscale>  0 0.17879171E+04</rscale>
<asrwt>0</asrwt>
<pdfrwt beam="1">  1        1 0.12901661E+00 0.17879171E+04</pdfrwt>
<pdfrwt beam="2">  1       -1 0.14660960E+00 0.17879171E+04</pdfrwt>
<totfact> 0.71771144E+00</totfact>
</mgrwt>
</event>
<event>
12    1  0.1496989E-007  0.2358335E+04  0.7818608E-02  0.8455269E-01
          1   -1    0    0  501    0  0.00000000000E+00  0.00000000000E+00  0.13671829476E+04  0.13671829476E+04  0.00000000000E+00 0. -1.
         -1   -1    0    0    0  501 -0.00000000000E+00 -0.00000000000E+00 -0.10170082998E+04  0.10170082998E+04  0.00000000000E+00 0.  1.
         23    2    1    2    0    0  0.77509969797E+03  0.52890816415E+03 -0.22095236573E+03  0.96799969878E+03  0.87636071459E+02 0.  0.
        254    2    1    2    0    0 -0.77509969797E+03 -0.52890816415E+03  0.57112701352E+03  0.14161915486E+04  0.89380593470E+03 0.  0.
        -24    2    4    4    0    0 -0.28724356901E+03 -0.35869290116E+03 -0.18083893526E+03  0.50039029824E+03  0.80735771397E+02 0.  0.
         24    2    4    4    0    0 -0.48785612896E+03 -0.17021526299E+03  0.75196594878E+03  0.91580125037E+03  0.79134719019E+02 0.  0.
         13    1    3    3    0    0  0.13520753141E+03  0.13472906309E+03 -0.46823752773E+02  0.19653361243E+03  0.00000000000E+00 0.  1.
        -13    1    3    3    0    0  0.63989216656E+03  0.39417910105E+03 -0.17412861296E+03  0.77146608635E+03  0.00000000000E+00 0. -1.
          2    1    6    6  502    0 -0.41378320557E+03 -0.11763790460E+03  0.59114970883E+03  0.73110409386E+03  0.00000000000E+00 0. -1.
          1    1    5    5  503    0 -0.16266219936E+03 -0.25137638277E+03 -0.90578454706E+02  0.31281549413E+03  0.00000000000E+00 0. -1.
         -2    1    5    5    0  503 -0.12458136966E+03 -0.10731651839E+03 -0.90260480555E+02  0.18757480411E+03  0.00000000000E+00 0.  1.
         -1    1    6    6    0  502 -0.74072923388E+02 -0.52577358383E+02  0.16081623994E+03  0.18469715651E+03  0.00000000000E+00 0.  1.
<mgrwt>
<rscale>  0 0.23583353E+04</rscale>
<asrwt>0</asrwt>
<pdfrwt beam="1">  1        1 0.21033584E+00 0.23583353E+04</pdfrwt>
<pdfrwt beam="2">  1       -1 0.15646282E+00 0.23583353E+04</pdfrwt>
<totfact> 0.22663946E+00</totfact>
</mgrwt>
</event>
<event>
12    1  0.1496989E-007  0.2072571E+04  0.7818608E-02  0.8573423E-01
         -1   -1    0    0    0  501 -0.00000000000E+00  0.00000000000E+00  0.40155046469E+03  0.40155046469E+03  0.00000000000E+00 0.  1.
          1   -1    0    0  501    0  0.00000000000E+00 -0.00000000000E+00 -0.26743523903E+04  0.26743523903E+04  0.00000000000E+00 0. -1.
         23    2    1    2    0    0  0.36061404186E+03  0.59032076853E+03 -0.23949263192E+03  0.73739867197E+03  0.88763639734E+02 0.  0.
        254    2    1    2    0    0 -0.36061404186E+03 -0.59032076853E+03 -0.20333092937E+04  0.23385041831E+04  0.92505893505E+03 0.  0.
        -24    2    4    4    0    0  0.11293129699E+02  0.27724635054E+02  0.71536705327E+02  0.11201146111E+03  0.80826215073E+02 0.  0.
         24    2    4    4    0    0 -0.37190717156E+03 -0.61804540358E+03 -0.21048459990E+04  0.22264927219E+04  0.81228665330E+02 0.  0.
         11    1    3    3    0    0  0.22296852174E+03  0.28994130945E+03 -0.14782378660E+03  0.39450322749E+03  0.00000000000E+00 0. -1.
        -11    1    3    3    0    0  0.13764552011E+03  0.30037945908E+03 -0.91668845321E+02  0.34289544448E+03  0.00000000000E+00 0.  1.
          4    1    6    6  502    0 -0.35275349978E+03 -0.58068047581E+03 -0.19120410622E+04  0.20291687634E+04  0.00000000000E+00 0. -1.
          3    1    5    5  503    0  0.43762802240E+02  0.17825429389E+02  0.22411565278E+02  0.52299206983E+02  0.00000000000E+00 0. -1.
         -4    1    5    5    0  503 -0.32469672541E+02  0.98992056649E+01  0.49125140049E+02  0.59712254124E+02  0.00000000000E+00 0.  1.
         -3    1    6    6    0  502 -0.19153671778E+02 -0.37364927771E+02 -0.19280493680E+03  0.19732395856E+03  0.00000000000E+00 0.  1.
<mgrwt>
<rscale>  0 0.20725708E+04</rscale>
<asrwt>0</asrwt>
<pdfrwt beam="1">  1        1 0.41143883E+00 0.20725708E+04</pdfrwt>
<pdfrwt beam="2">  1       -1 0.61776994E-01 0.20725708E+04</pdfrwt>
<totfact> 0.25082581E+00</totfact>
</mgrwt>
</event>
<event>
12    1  0.1496989E-007  0.1371600E+04  0.7818608E-02  0.8974636E-01
          2   -1    0    0  501    0  0.00000000000E+00  0.00000000000E+00  0.25599561632E+04  0.25599561632E+04  0.00000000000E+00 0. -1.
         -2   -1    0    0    0  501 -0.00000000000E+00 -0.00000000000E+00 -0.18372255103E+03  0.18372255103E+03  0.00000000000E+00 0.  1.
         23    2    1    2    0    0  0.36912455764E+03  0.13455782862E+03  0.65233093131E+03  0.76644477722E+03  0.86851622242E+02 0.  0.
        254    2    1    2    0    0 -0.36912455764E+03 -0.13455782862E+03  0.17239026809E+04  0.19772339371E+04  0.88501685879E+03 0.  0.
        -24    2    4    4    0    0 -0.60546175078E+03  0.94187588159E+02  0.94253290136E+03  0.11265623835E+04  0.72933534171E+02 0.  0.
         24    2    4    4    0    0  0.23633719313E+03 -0.22874541678E+03  0.78136977953E+03  0.85067155353E+03  0.70168547509E+02 0.  0.
         11    1    3    3    0    0  0.32234959420E+03  0.13560924726E+03  0.61106741556E+03  0.70406144276E+03  0.00000000000E+00 0. -1.
        -11    1    3    3    0    0  0.46774963441E+02 -0.10514186381E+01  0.41263515746E+02  0.62383334455E+02  0.00000000000E+00 0.  1.
          2    1    6    6  502    0  0.97622086827E+02 -0.86963773399E+02  0.22797680703E+03  0.26280447916E+03  0.00000000000E+00 0. -1.
          3    1    5    5  503    0 -0.23499476668E+03  0.64188260713E+02  0.41563021358E+03  0.48175839133E+03  0.00000000000E+00 0. -1.
         -4    1    5    5    0  503 -0.37046698410E+03  0.29999327446E+02  0.52690268778E+03  0.64480399219E+03  0.00000000000E+00 0.  1.
         -1    1    6    6    0  502  0.13871510631E+03 -0.14178164338E+03  0.55339297250E+03  0.58786707437E+03  0.00000000000E+00 0.  1.
<mgrwt>
<rscale>  0 0.13716001E+04</rscale>
<asrwt>0</asrwt>
<pdfrwt beam="1">  1        2 0.39383938E+00 0.13716001E+04</pdfrwt>
<pdfrwt beam="2">  1       -2 0.28265010E-01 0.13716001E+04</pdfrwt>
<totfact> 0.36051466E+01</totfact>
</mgrwt>
</event>
<event>
12    1  0.1496989E-007  0.1211810E+04  0.7818608E-02  0.9102581E-01
         -1   -1    0    0    0  501 -0.00000000000E+00  0.00000000000E+00  0.34132456146E+03  0.34132456146E+03  0.00000000000E+00 0.  1.
          1   -1    0    0  501    0  0.00000000000E+00 -0.00000000000E+00 -0.10755774233E+04  0.10755774233E+04  0.00000000000E+00 0. -1.
         23    2    1    2    0    0  0.44230010419E+02  0.18711720518E+03  0.18067709540E+02  0.21362409493E+03  0.91321791011E+02 0.  0.
        254    2    1    2    0    0 -0.44230010419E+02 -0.18711720518E+03 -0.75232057139E+03  0.12032778898E+04  0.91919654904E+03 0.  0.
        -24    2    4    4    0    0  0.10480537444E+03  0.34084013634E+03 -0.41864002377E+03  0.55614175828E+03  0.82933833591E+02 0.  0.
         24    2    4    4    0    0 -0.14903538486E+03 -0.52795734152E+03 -0.33368054763E+03  0.64713613157E+03  0.80572728077E+02 0.  0.
         11    1    3    3    0    0  0.17321398216E+02  0.18279537381E+03  0.25497290069E+02  0.18537608077E+03  0.00000000000E+00 0.  1.
        -11    1    3    3    0    0  0.26908612203E+02  0.43218313656E+01 -0.74295805287E+01  0.28248014158E+02  0.00000000000E+00 0. -1.
          4    1    6    6  502    0 -0.12090370970E+03 -0.49512238359E+03 -0.31993430708E+03  0.60176560437E+03  0.00000000000E+00 0. -1.
          1    1    5    5  503    0  0.11495432018E+03  0.31761576712E+03 -0.40496347943E+03  0.52734210046E+03  0.00000000000E+00 0. -1.
         -4    1    5    5    0  503 -0.10148945743E+02  0.23224369224E+02 -0.13676544340E+02  0.28799657822E+02  0.00000000000E+00 0.  1.
         -3    1    6    6    0  502 -0.28131675154E+02 -0.32834957930E+02 -0.13746240546E+02  0.45370527200E+02  0.00000000000E+00 0.  1.
<mgrwt>
<rscale>  0 0.12118102E+04</rscale>
<asrwt>0</asrwt>
<pdfrwt beam="1">  1        1 0.16547345E+00 0.12118102E+04</pdfrwt>
<pdfrwt beam="2">  1       -1 0.52511472E-01 0.12118102E+04</pdfrwt>
<totfact> 0.47797998E+01</totfact>
</mgrwt>
</event>
<event>
12    1  0.1496989E-007  0.3674392E+04  0.7818608E-02  0.8073661E-01
         -1   -1    0    0    0  501 -0.00000000000E+00  0.00000000000E+00  0.12998610886E+04  0.12998610886E+04  0.00000000000E+00 0.  1.
          1   -1    0    0  501    0  0.00000000000E+00 -0.00000000000E+00 -0.25966539728E+04  0.25966539728E+04  0.00000000000E+00 0. -1.
         23    2    1    2    0    0  0.30461174642E+03 -0.13460382110E+04 -0.16791823498E+04  0.21754839948E+04  0.92032962202E+02 0.  0.
        254    2    1    2    0    0 -0.30461174642E+03  0.13460382110E+04  0.38238946567E+03  0.17210310667E+04  0.95452556144E+03 0.  0.
        -24    2    4    4    0    0 -0.63280852051E+03  0.71382199431E+03  0.28623815765E+03  0.99874954506E+03  0.74698779603E+02 0.  0.
         24    2    4    4    0    0  0.32819677409E+03  0.63221621668E+03  0.96151308020E+02  0.72228152159E+03  0.70958123215E+02 0.  0.
         13    1    3    3    0    0  0.27860765284E+03 -0.12769351447E+04 -0.16154574483E+04  0.20779529242E+04  0.00000000000E+00 0. -1.
        -13    1    3    3    0    0  0.26004093579E+02 -0.69103066266E+02 -0.63724901516E+02  0.97531070555E+02  0.00000000000E+00 0.  1.
          2    1    6    6  502    0  0.30741320016E+03  0.61924700908E+03  0.92606219870E+02  0.69752824018E+03  0.00000000000E+00 0. -1.
          3    1    5    5  503    0 -0.45452661661E+03  0.56058072670E+03  0.21079796502E+03  0.75185169975E+03  0.00000000000E+00 0. -1.
         -4    1    5    5    0  503 -0.17828190390E+03  0.15324126761E+03  0.75440192630E+02  0.24689784532E+03  0.00000000000E+00 0.  1.
         -1    1    6    6    0  502  0.20783573928E+02  0.12969207601E+02  0.35450881496E+01  0.24753281419E+02  0.00000000000E+00 0.  1.
<mgrwt>
<rscale>  0 0.36743922E+04</rscale>
<asrwt>0</asrwt>
<pdfrwt beam="1">  1        1 0.39948522E+00 0.36743922E+04</pdfrwt>
<pdfrwt beam="2">  1       -1 0.19997863E+00 0.36743922E+04</pdfrwt>
<totfact> 0.14040786E-01</totfact>
</mgrwt>
</event>
<event>
12    1  0.1496989E-007  0.2457981E+04  0.7818608E-02  0.8418110E-01
         -1   -1    0    0    0  501 -0.00000000000E+00  0.00000000000E+00  0.10748293799E+04  0.10748293799E+04  0.00000000000E+00 0.  1.
          1   -1    0    0  501    0  0.00000000000E+00 -0.00000000000E+00 -0.14052631250E+04  0.14052631250E+04  0.00000000000E+00 0. -1.
         23    2    1    2    0    0 -0.76174547990E+03  0.24855984239E+03  0.56466590953E+03  0.98445547886E+03  0.90922104374E+02 0.  0.
        254    2    1    2    0    0  0.76174547990E+03 -0.24855984239E+03 -0.89509965460E+03  0.14956370261E+04  0.89089199720E+03 0.  0.
        -24    2    4    4    0    0  0.89417768461E+03 -0.17000017615E+03 -0.45325889163E+03  0.10199226384E+04  0.79654089073E+02 0.  0.
         24    2    4    4    0    0 -0.13243220471E+03 -0.78559666241E+02 -0.44184076298E+03  0.47571438768E+03  0.85854579441E+02 0.  0.
         11    1    3    3    0    0 -0.69395589451E+03  0.19782454498E+03  0.49966156334E+03  0.87770781699E+03  0.00000000000E+00 0.  1.
        -11    1    3    3    0    0 -0.67789585391E+02  0.50735297405E+02  0.65004346194E+02  0.10674766187E+03  0.00000000000E+00 0. -1.
          4    1    6    6  502    0 -0.18896849184E+02  0.17465517527E+02 -0.43717898654E+02  0.50728590304E+02  0.00000000000E+00 0. -1.
          3    1    5    5  503    0  0.65808964082E+03 -0.15375393008E+03 -0.31236701524E+03  0.74451017359E+03  0.00000000000E+00 0. -1.
         -4    1    5    5    0  503  0.23608804379E+03 -0.16246246066E+02 -0.14089187639E+03  0.27541246480E+03  0.00000000000E+00 0.  1.
         -3    1    6    6    0  502 -0.11353535553E+03 -0.96025183768E+02 -0.39812286432E+03  0.42498579737E+03  0.00000000000E+00 0.  1.
<mgrwt>
<rscale>  0 0.24579814E+04</rscale>
<asrwt>0</asrwt>
<pdfrwt beam="1">  1        1 0.21619433E+00 0.24579814E+04</pdfrwt>
<pdfrwt beam="2">  1       -1 0.16535837E+00 0.24579814E+04</pdfrwt>
<totfact> 0.18091596E+00</totfact>
</mgrwt>
</event>
<event>
12    1  0.2088744E-007  0.2086537E+04  0.7818608E-02  0.8567197E-01
          2   -1    0    0  501    0  0.00000000000E+00  0.00000000000E+00  0.18467188729E+04  0.18467188729E+04  0.00000000000E+00 0. -1.
         -2   -1    0    0    0  501 -0.00000000000E+00 -0.00000000000E+00 -0.58937441225E+03  0.58937441225E+03  0.00000000000E+00 0.  1.
         23    2    1    2    0    0 -0.37074630703E+03 -0.19483801417E+03 -0.34408493173E+03  0.54999367290E+03  0.93187574496E+02 0.  0.
        254    2    1    2    0    0  0.37074630703E+03  0.19483801417E+03  0.16014293924E+04  0.18860996123E+04  0.90409124130E+03 0.  0.
        -24    2    4    4    0    0  0.69624165526E+01 -0.19651156890E+03  0.18010778332E+02  0.21299462571E+03  0.79856436741E+02 0.  0.
         24    2    4    4    0    0  0.36378389048E+03  0.39134958307E+03  0.15834186141E+04  0.16731049866E+04  0.81071410066E+02 0.  0.
         11    1    3    3    0    0 -0.58364056054E+02 -0.64995684936E+02 -0.44117321732E+02  0.97862864132E+02  0.00000000000E+00 0. -1.
        -11    1    3    3    0    0 -0.31238225098E+03 -0.12984232923E+03 -0.29996761000E+03  0.45213080877E+03  0.00000000000E+00 0.  1.
          4    1    6    6  502    0  0.78260147571E+01  0.99151637166E+01  0.12320830932E+02  0.17645391845E+02  0.00000000000E+00 0. -1.
          1    1    5    5  503    0 -0.24118926412E+02 -0.44153606549E+02  0.27263153596E+02  0.57223623850E+02  0.00000000000E+00 0. -1.
         -2    1    5    5    0  503  0.31081342964E+02 -0.15235796235E+03 -0.92523752635E+01  0.15577100186E+03  0.00000000000E+00 0.  1.
         -3    1    6    6    0  502  0.35595787572E+03  0.38143441935E+03  0.15710977831E+04  0.16554595947E+04  0.00000000000E+00 0.  1.
<mgrwt>
<rscale>  0 0.20865367E+04</rscale>
<asrwt>0</asrwt>
<pdfrwt beam="1">  1        2 0.28411059E+00 0.20865367E+04</pdfrwt>
<pdfrwt beam="2">  1       -2 0.90672987E-01 0.20865367E+04</pdfrwt>
<totfact> 0.77894827E+00</totfact>
</mgrwt>
</event>
<event>
12    1  0.1496989E-007  0.1201561E+04  0.7818608E-02  0.9111491E-01
         -2   -1    0    0    0  501 -0.00000000000E+00  0.00000000000E+00  0.16890030443E+03  0.16890030443E+03  0.00000000000E+00 0.  1.
          2   -1    0    0  501    0  0.00000000000E+00 -0.00000000000E+00 -0.21369853081E+04  0.21369853081E+04  0.00000000000E+00 0. -1.
         23    2    1    2    0    0 -0.10778119663E+02 -0.75435248671E+02  0.27636913555E+02  0.12206393539E+03  0.91264235744E+02 0.  0.
        254    2    1    2    0    0  0.10778119663E+02  0.75435248671E+02 -0.19957219172E+04  0.21838216771E+04  0.88338242118E+03 0.  0.
        -24    2    4    4    0    0 -0.38507639634E+03 -0.67286198244E+02 -0.13621892575E+04  0.14195163894E+04  0.81583964244E+02 0.  0.
         24    2    4    4    0    0  0.39585451600E+03  0.14272144691E+03 -0.63353265976E+03  0.76430528771E+03  0.75688391381E+02 0.  0.
         13    1    3    3    0    0  0.34245824181E+00  0.14559544738E+02 -0.15825578309E+02  0.21506895392E+02  0.00000000000E+00 0. -1.
        -13    1    3    3    0    0 -0.11120577905E+02 -0.89994793409E+02  0.43462491864E+02  0.10055704000E+03  0.00000000000E+00 0.  1.
          4    1    6    6  502    0  0.29110519528E+02  0.34562186156E+02 -0.66390561001E+02  0.80309860223E+02  0.00000000000E+00 0. -1.
          1    1    5    5  503    0 -0.54103738057E+02 -0.10199383459E+02 -0.31532254154E+03  0.32009302882E+03  0.00000000000E+00 0. -1.
         -2    1    5    5    0  503 -0.33097265828E+03 -0.57086814785E+02 -0.10468667159E+04  0.10994233606E+04  0.00000000000E+00 0.  1.
         -3    1    6    6    0  502  0.36674399647E+03  0.10815926076E+03 -0.56714209876E+03  0.68399542749E+03  0.00000000000E+00 0.  1.
<mgrwt>
<rscale>  0 0.12015614E+04</rscale>
<asrwt>0</asrwt>
<pdfrwt beam="1">  1        2 0.32876698E+00 0.12015614E+04</pdfrwt>
<pdfrwt beam="2">  1       -2 0.25984662E-01 0.12015614E+04</pdfrwt>
<totfact> 0.74089262E+01</totfact>
</mgrwt>
</event>
<event>
12    1  0.1921726E-007  0.2080030E+04  0.7818608E-02  0.8570092E-01
          2   -1    0    0  501    0  0.00000000000E+00  0.00000000000E+00  0.20682431189E+04  0.20682431189E+04  0.00000000000E+00 0. -1.
         -2   -1    0    0    0  501 -0.00000000000E+00 -0.00000000000E+00 -0.52297115503E+03  0.52297115503E+03  0.00000000000E+00 0.  1.
         23    2    1    2    0    0  0.77368487788E+03 -0.15928038490E+03  0.26647781694E+03  0.83914153921E+03  0.95862216888E+02 0.  0.
        254    2    1    2    0    0 -0.77368487788E+03  0.15928038490E+03  0.12787941469E+04  0.17520727347E+04  0.90026988520E+03 0.  0.
        -24    2    4    4    0    0 -0.89853456277E+03 -0.41852051697E+02  0.77144790795E+03  0.11872342673E+04  0.72645551050E+02 0.  0.
         24    2    4    4    0    0  0.12484968489E+03  0.20113243659E+03  0.50734623894E+03  0.56483846736E+03  0.74837070846E+02 0.  0.
         13    1    3    3    0    0  0.46914612689E+03 -0.57311924693E+02  0.18710800867E+03  0.50832288164E+03  0.00000000000E+00 0. -1.
        -13    1    3    3    0    0  0.30453875099E+03 -0.10196846020E+03  0.79369808276E+02  0.33081865757E+03  0.00000000000E+00 0.  1.
          4    1    6    6  502    0  0.46546619963E+01  0.22239006527E+02  0.14566117495E+02  0.26989091658E+02  0.00000000000E+00 0. -1.
          1    1    5    5  503    0 -0.37391935139E+02  0.14818676871E+01  0.53171718527E+02  0.65019876933E+02  0.00000000000E+00 0. -1.
         -2    1    5    5    0  503 -0.86114262764E+03 -0.43333919384E+02  0.71827618943E+03  0.11222143904E+04  0.00000000000E+00 0.  1.
         -3    1    6    6    0  502  0.12019502290E+03  0.17889343007E+03  0.49278012145E+03  0.53784937570E+03  0.00000000000E+00 0.  1.
<mgrwt>
<rscale>  0 0.20800303E+04</rscale>
<asrwt>0</asrwt>
<pdfrwt beam="1">  1        2 0.31819125E+00 0.20800303E+04</pdfrwt>
<pdfrwt beam="2">  1       -2 0.80457102E-01 0.20800303E+04</pdfrwt>
<totfact> 0.77095647E+00</totfact>
</mgrwt>
</event>
<event>
12    1  0.1496989E-007  0.1848788E+04  0.7818608E-02  0.8680776E-01
          1   -1    0    0  501    0  0.00000000000E+00  0.00000000000E+00  0.12360102473E+04  0.12360102473E+04  0.00000000000E+00 0. -1.
         -1   -1    0    0    0  501 -0.00000000000E+00 -0.00000000000E+00 -0.69134105686E+03  0.69134105686E+03  0.00000000000E+00 0.  1.
         23    2    1    2    0    0 -0.31015213953E+03 -0.15645545670E+03 -0.42714715177E+03  0.55801752051E+03  0.90863657972E+02 0.  0.
        254    2    1    2    0    0  0.31015213953E+03  0.15645545670E+03  0.97181634225E+03  0.13693337837E+04  0.89998630461E+03 0.  0.
        -24    2    4    4    0    0 -0.57972674870E+02 -0.18913161479E+03  0.80426358559E+03  0.83206813035E+03  0.79786337779E+02 0.  0.
         24    2    4    4    0    0  0.36812481440E+03  0.34558707149E+03  0.16755275667E+03  0.53726565334E+03  0.75060995412E+02 0.  0.
         11    1    3    3    0    0 -0.30567922225E+03 -0.14459714980E+03 -0.37763310059E+03  0.50690717228E+03  0.00000000000E+00 0.  1.
        -11    1    3    3    0    0 -0.44729172778E+01 -0.11858306897E+02 -0.49514051183E+02  0.51110348228E+02  0.00000000000E+00 0. -1.
          4    1    6    6  502    0  0.10288608449E+03  0.11369909959E+03  0.85343761891E+02  0.17548957041E+03  0.00000000000E+00 0. -1.
          1    1    5    5  503    0 -0.22624215996E+02 -0.52286973476E+02  0.11353186548E+03  0.12702467171E+03  0.00000000000E+00 0. -1.
         -2    1    5    5    0  503 -0.35348458874E+02 -0.13684464131E+03  0.69073172011E+03  0.70504345864E+03  0.00000000000E+00 0.  1.
         -3    1    6    6    0  502  0.26523872991E+03  0.23188797190E+03  0.82208994776E+02  0.36177608293E+03  0.00000000000E+00 0.  1.
<mgrwt>
<rscale>  0 0.18487884E+04</rscale>
<asrwt>0</asrwt>
<pdfrwt beam="1">  1        1 0.19015542E+00 0.18487884E+04</pdfrwt>
<pdfrwt beam="2">  1       -1 0.10636016E+00 0.18487884E+04</pdfrwt>
<totfact> 0.78094316E+00</totfact>
</mgrwt>
</event>
<event>
12    1  0.1496989E-007  0.1924268E+04  0.7818608E-02  0.8642870E-01
         -2   -1    0    0    0  501 -0.00000000000E+00  0.00000000000E+00  0.21208558065E+04  0.21208558065E+04  0.00000000000E+00 0.  1.
          2   -1    0    0  501    0  0.00000000000E+00 -0.00000000000E+00 -0.43647541705E+03  0.43647541705E+03  0.00000000000E+00 0. -1.
         23    2    1    2    0    0 -0.47666668457E+03 -0.48189875682E+03  0.10801849342E+04  0.12784719044E+04  0.90848105911E+02 0.  0.
        254    2    1    2    0    0  0.47666668457E+03  0.48189875682E+03  0.60419545524E+03  0.12788593191E+04  0.90055064818E+03 0.  0.
        -24    2    4    4    0    0  0.54107753938E+02  0.34217618330E+03  0.72733884833E+03  0.80960678751E+03  0.80182046852E+02 0.  0.
         24    2    4    4    0    0  0.42255893063E+03  0.13972257352E+03 -0.12314339309E+03  0.46925253160E+03  0.83397816157E+02 0.  0.
         13    1    3    3    0    0 -0.20022433196E+03 -0.26699592422E+03  0.52704765388E+03  0.62382356169E+03  0.00000000000E+00 0. -1.
        -13    1    3    3    0    0 -0.27644235261E+03 -0.21490283260E+03  0.55313728033E+03  0.65464834275E+03  0.00000000000E+00 0.  1.
          4    1    6    6  502    0  0.22042109970E+02  0.13908560204E+02  0.11342444492E+02  0.28424526485E+02  0.00000000000E+00 0. -1.
          1    1    5    5  503    0  0.29716622808E+02  0.29802127459E+02  0.94609984972E+02  0.10354850906E+03  0.00000000000E+00 0. -1.
         -2    1    5    5    0  503  0.24391131130E+02  0.31237405584E+03  0.63272886336E+03  0.70605827845E+03  0.00000000000E+00 0.  1.
         -3    1    6    6    0  502  0.40051682066E+03  0.12581401332E+03 -0.13448583758E+03  0.44082800511E+03  0.00000000000E+00 0.  1.
<mgrwt>
<rscale>  0 0.19242676E+04</rscale>
<asrwt>0</asrwt>
<pdfrwt beam="1">  1        2 0.67150066E-01 0.19242676E+04</pdfrwt>
<pdfrwt beam="2">  1       -2 0.32628550E+00 0.19242676E+04</pdfrwt>
<totfact> 0.14768100E+00</totfact>
</mgrwt>
</event>
<event>
12    1  0.1496989E-007  0.1700714E+04  0.7818608E-02  0.8760957E-01
          2   -1    0    0  501    0  0.00000000000E+00  0.00000000000E+00  0.15300352829E+04  0.15300352829E+04  0.00000000000E+00 0. -1.
         -2   -1    0    0    0  501 -0.00000000000E+00 -0.00000000000E+00 -0.47260791556E+03  0.47260791556E+03  0.00000000000E+00 0.  1.
         23    2    1    2    0    0 -0.57516257388E+03  0.92115760250E+02  0.17378492776E+03  0.61484111503E+03  0.92363932002E+02 0.  0.
        254    2    1    2    0    0  0.57516257388E+03 -0.92115760250E+02  0.88364243954E+03  0.13878020834E+04  0.89770449595E+03 0.  0.
        -24    2    4    4    0    0  0.30355838027E+03  0.35516450886E+03  0.66264144432E+03  0.81483113820E+03  0.81034446196E+02 0.  0.
         24    2    4    4    0    0  0.27160419361E+03 -0.44728026911E+03  0.22100099522E+03  0.57297094519E+03  0.75005246633E+02 0.  0.
         11    1    3    3    0    0 -0.53896349064E+03  0.72585677136E+02  0.13986407183E+03  0.56152674322E+03  0.00000000000E+00 0.  1.
        -11    1    3    3    0    0 -0.36199083240E+02  0.19530083113E+02  0.33920855930E+02  0.53314371804E+02  0.00000000000E+00 0. -1.
          2    1    6    6  502    0  0.26197895078E+03 -0.42651315889E+03  0.19219118583E+03  0.53617524865E+03  0.00000000000E+00 0. -1.
          3    1    5    5  503    0  0.21470474988E+03  0.24554074324E+03  0.39495349395E+03  0.51222714551E+03  0.00000000000E+00 0. -1.
         -4    1    5    5    0  503  0.88853630386E+02  0.10962376562E+03  0.26768795037E+03  0.30260399269E+03  0.00000000000E+00 0.  1.
         -1    1    6    6    0  502  0.96252428335E+01 -0.20767110224E+02  0.28809809398E+02  0.36795696545E+02  0.00000000000E+00 0.  1.
<mgrwt>
<rscale>  0 0.17007137E+04</rscale>
<asrwt>0</asrwt>
<pdfrwt beam="1">  1        2 0.23539004E+00 0.17007137E+04</pdfrwt>
<pdfrwt beam="2">  1       -2 0.72708911E-01 0.17007137E+04</pdfrwt>
<totfact> 0.19864620E+01</totfact>
</mgrwt>
</event>
<event>
12    1  0.1496989E-007  0.2992024E+04  0.7818608E-02  0.8246012E-01
         -1   -1    0    0    0  501 -0.00000000000E+00  0.00000000000E+00  0.10124053622E+04  0.10124053622E+04  0.00000000000E+00 0.  1.
          1   -1    0    0  501    0  0.00000000000E+00 -0.00000000000E+00 -0.22106277147E+04  0.22106277147E+04  0.00000000000E+00 0. -1.
         23    2    1    2    0    0  0.70768294546E+03 -0.88667196767E+02  0.70240912806E+03  0.10052336281E+04  0.91864252214E+02 0.  0.
        254    2    1    2    0    0 -0.70768294546E+03  0.88667196767E+02 -0.19006314806E+04  0.22177994487E+04  0.89306066240E+03 0.  0.
        -24    2    4    4    0    0  0.17581898525E+03 -0.11878087209E+03 -0.46952750359E+03  0.52156108891E+03  0.80923925315E+02 0.  0.
         24    2    4    4    0    0 -0.88350193072E+03  0.20744806886E+03 -0.14311039770E+04  0.16962383598E+04  0.74536014815E+02 0.  0.
         13    1    3    3    0    0  0.20143473270E+03 -0.61893636021E+02  0.23561478984E+03  0.31610299415E+03  0.00000000000E+00 0. -1.
        -13    1    3    3    0    0  0.50624821277E+03 -0.26773560746E+02  0.46679433821E+03  0.68913063397E+03  0.00000000000E+00 0.  1.
          2    1    6    6  502    0 -0.84195878458E+03  0.21322743040E+03 -0.13703808393E+04  0.16224377266E+04  0.00000000000E+00 0. -1.
          3    1    5    5  503    0  0.88385525558E+02 -0.78103026622E+02 -0.17013705563E+03  0.20702343248E+03  0.00000000000E+00 0. -1.
         -4    1    5    5    0  503  0.87433459696E+02 -0.40677845468E+02 -0.29939044795E+03  0.31453765643E+03  0.00000000000E+00 0.  1.
         -1    1    6    6    0  502 -0.41543146135E+02 -0.57793615403E+01 -0.60723137649E+02  0.73800633172E+02  0.00000000000E+00 0.  1.
<mgrwt>
<rscale>  0 0.29920236E+04</rscale>
<asrwt>0</asrwt>
<pdfrwt beam="1">  1        1 0.34009657E+00 0.29920236E+04</pdfrwt>
<pdfrwt beam="2">  1       -1 0.15575467E+00 0.29920236E+04</pdfrwt>
<totfact> 0.57445271E-01</totfact>
</mgrwt>
</event>
<event>
12    1  0.1496989E-007  0.1956746E+04  0.7818608E-02  0.8627115E-01
          1   -1    0    0  501    0  0.00000000000E+00  0.00000000000E+00  0.61576799642E+03  0.61576799642E+03  0.00000000000E+00 0. -1.
         -1   -1    0    0    0  501 -0.00000000000E+00 -0.00000000000E+00 -0.15545042508E+04  0.15545042508E+04  0.00000000000E+00 0.  1.
         23    2    1    2    0    0 -0.20495983368E+03  0.19306515478E+03  0.42202872979E+03  0.51496883512E+03  0.88328732371E+02 0.  0.
        254    2    1    2    0    0  0.20495983368E+03 -0.19306515478E+03 -0.13607649842E+04  0.16553034121E+04  0.89948060376E+03 0.  0.
        -24    2    4    4    0    0  0.36894754482E+03 -0.44534496250E+03 -0.61836285807E+03  0.85050529205E+03  0.80822033530E+02 0.  0.
         24    2    4    4    0    0 -0.16398771114E+03  0.25227980772E+03 -0.74240212612E+03  0.80479812006E+03  0.77472746239E+02 0.  0.
         11    1    3    3    0    0 -0.12715010449E+03  0.16784717324E+03  0.27076487999E+03  0.34300647643E+03  0.00000000000E+00 0.  1.
        -11    1    3    3    0    0 -0.77809729194E+02  0.25217981544E+02  0.15126384980E+03  0.17196235869E+03  0.00000000000E+00 0. -1.
          2    1    6    6  502    0 -0.15126666928E+02  0.72562629167E+01 -0.13483203345E+02  0.21523619033E+02  0.00000000000E+00 0. -1.
          3    1    5    5  503    0  0.78522831657E+02 -0.55992520737E+02 -0.12827413787E+03  0.16048442889E+03  0.00000000000E+00 0. -1.
         -4    1    5    5    0  503  0.29042471317E+03 -0.38935244176E+03 -0.49008872020E+03  0.69002086316E+03  0.00000000000E+00 0.  1.
         -1    1    6    6    0  502 -0.14886104421E+03  0.24502354480E+03 -0.72891892277E+03  0.78327450103E+03  0.00000000000E+00 0.  1.
<mgrwt>
<rscale>  0 0.19567462E+04</rscale>
<asrwt>0</asrwt>
<pdfrwt beam="1">  1        1 0.94733538E-01 0.19567462E+04</pdfrwt>
<pdfrwt beam="2">  1       -1 0.23915450E+00 0.19567462E+04</pdfrwt>
<totfact> 0.25215521E+00</totfact>
</mgrwt>
</event>
<event>
12    1  0.1496989E-007  0.1873312E+04  0.7818608E-02  0.8668256E-01
          1   -1    0    0  501    0  0.00000000000E+00  0.00000000000E+00  0.10419230371E+04  0.10419230371E+04  0.00000000000E+00 0. -1.
         -1   -1    0    0    0  501 -0.00000000000E+00 -0.00000000000E+00 -0.84202433993E+03  0.84202433993E+03  0.00000000000E+00 0.  1.
         23    2    1    2    0    0 -0.40486504836E+03 -0.13107992699E+03  0.64921129563E+03  0.78165497608E+03  0.91714451489E+02 0.  0.
        254    2    1    2    0    0  0.40486504836E+03  0.13107992699E+03 -0.44931259845E+03  0.11022924010E+04  0.91217820158E+03 0.  0.
        -24    2    4    4    0    0  0.30644454424E+03 -0.31298257349E+03 -0.46038515865E+03  0.64026626703E+03  0.78230738127E+02 0.  0.
         24    2    4    4    0    0  0.98420504116E+02  0.44406250048E+03  0.11072560199E+02  0.46202613393E+03  0.80420438201E+02 0.  0.
         13    1    3    3    0    0 -0.10305709518E+03 -0.45607485432E+02  0.10788294280E+03  0.15601133594E+03  0.00000000000E+00 0.  1.
        -13    1    3    3    0    0 -0.30180795318E+03 -0.85472441562E+02  0.54132835283E+03  0.62564364014E+03  0.00000000000E+00 0. -1.
          4    1    6    6  502    0  0.66237701328E+01  0.66808322395E+02  0.29490746511E+02  0.73327555542E+02  0.00000000000E+00 0. -1.
          3    1    5    5  503    0  0.11174123183E+03 -0.75163647707E+02 -0.17526257187E+03  0.22102634668E+03  0.00000000000E+00 0. -1.
         -4    1    5    5    0  503  0.19470331241E+03 -0.23781892578E+03 -0.28512258678E+03  0.41923992035E+03  0.00000000000E+00 0.  1.
         -3    1    6    6    0  502  0.91796733983E+02  0.37725417809E+03 -0.18418186312E+02  0.38869857839E+03  0.00000000000E+00 0.  1.
<mgrwt>
<rscale>  0 0.18733121E+04</rscale>
<asrwt>0</asrwt>
<pdfrwt beam="1">  1        1 0.16029585E+00 0.18733121E+04</pdfrwt>
<pdfrwt beam="2">  1       -1 0.12954221E+00 0.18733121E+04</pdfrwt>
<totfact> 0.67370102E+00</totfact>
</mgrwt>
</event>
<event>
12    1  0.1496989E-007  0.2465991E+04  0.7818608E-02  0.8415202E-01
          1   -1    0    0  501    0  0.00000000000E+00  0.00000000000E+00  0.22855703082E+04  0.22855703082E+04  0.00000000000E+00 0. -1.
         -1   -1    0    0    0  501 -0.00000000000E+00 -0.00000000000E+00 -0.66516368273E+03  0.66516368273E+03  0.00000000000E+00 0.  1.
         23    2    1    2    0    0  0.58285405957E+03 -0.46622690053E+03  0.16165008188E+04  0.17827973945E+04  0.90582974022E+02 0.  0.
        254    2    1    2    0    0 -0.58285405957E+03  0.46622690053E+03  0.39058066835E+01  0.11679365964E+04  0.89831746082E+03 0.  0.
        -24    2    4    4    0    0 -0.52226683302E+03  0.71963918477E+03 -0.21742823001E+01  0.89315113838E+03  0.84089401010E+02 0.  0.
         24    2    4    4    0    0 -0.60587226549E+02 -0.25341228424E+03  0.60800889836E+01  0.27478545804E+03  0.87071709797E+02 0.  0.
         13    1    3    3    0    0  0.26521947608E+03 -0.19331911255E+03  0.61076737220E+03  0.69336168968E+03  0.00000000000E+00 0.  1.
        -13    1    3    3    0    0  0.31763458348E+03 -0.27290778798E+03  0.10057334466E+04  0.10894357048E+04  0.00000000000E+00 0. -1.
          2    1    6    6  502    0 -0.67941338198E+02 -0.23749640556E+03  0.25836858449E+02  0.24837091486E+03  0.00000000000E+00 0. -1.
          3    1    5    5  503    0 -0.20014172979E+03  0.34241841834E+03 -0.15581837147E+02  0.39692553316E+03  0.00000000000E+00 0. -1.
         -4    1    5    5    0  503 -0.32212510322E+03  0.37722076643E+03  0.13407554847E+02  0.49622560522E+03  0.00000000000E+00 0.  1.
         -1    1    6    6    0  502  0.73541116488E+01 -0.15915878672E+02 -0.19756769465E+02  0.26414543186E+02  0.00000000000E+00 0.  1.
<mgrwt>
<rscale>  0 0.24659914E+04</rscale>
<asrwt>0</asrwt>
<pdfrwt beam="1">  1        1 0.35162620E+00 0.24659914E+04</pdfrwt>
<pdfrwt beam="2">  1       -1 0.10233288E+00 0.24659914E+04</pdfrwt>
<totfact> 0.15328799E+00</totfact>
</mgrwt>
</event>
<event>
12    1  0.1496989E-007  0.1326080E+04  0.7818608E-02  0.9009135E-01
         -1   -1    0    0    0  501 -0.00000000000E+00  0.00000000000E+00  0.45430876719E+03  0.45430876719E+03  0.00000000000E+00 0.  1.
          1   -1    0    0  501    0  0.00000000000E+00 -0.00000000000E+00 -0.96767263215E+03  0.96767263215E+03  0.00000000000E+00 0. -1.
         23    2    1    2    0    0  0.44453011463E+02 -0.30921014870E+03 -0.26894494125E+03  0.42212570761E+03  0.90949135885E+02 0.  0.
        254    2    1    2    0    0 -0.44453011463E+02  0.30921014870E+03 -0.24441892371E+03  0.99985569173E+03  0.91781469139E+03 0.  0.
        -24    2    4    4    0    0 -0.31569060865E+03 -0.19071999039E+03 -0.39579751495E+01  0.37737822408E+03  0.79774578145E+02 0.  0.
         24    2    4    4    0    0  0.27123759719E+03  0.49993013909E+03 -0.24046094856E+03  0.62247746765E+03  0.78464972135E+02 0.  0.
         13    1    3    3    0    0 -0.61834277734E+01 -0.14238748304E+01 -0.25974942961E+02  0.26738733336E+02  0.00000000000E+00 0.  1.
        -13    1    3    3    0    0  0.50636439237E+02 -0.30778627387E+03 -0.24296999829E+03  0.39538697428E+03  0.00000000000E+00 0. -1.
          4    1    6    6  502    0  0.49507748200E+02  0.14455624421E+03 -0.39121073260E+02  0.15772756020E+03  0.00000000000E+00 0. -1.
          3    1    5    5  503    0 -0.11626231660E+03 -0.96177003371E+02 -0.33912656446E+02  0.15465125446E+03  0.00000000000E+00 0. -1.
         -4    1    5    5    0  503 -0.19942829206E+03 -0.94542987017E+02  0.29954681296E+02  0.22272696962E+03  0.00000000000E+00 0.  1.
         -3    1    6    6    0  502  0.22172984899E+03  0.35537389487E+03 -0.20133987530E+03  0.46474990745E+03  0.00000000000E+00 0.  1.
<mgrwt>
<rscale>  0 0.13260802E+04</rscale>
<asrwt>0</asrwt>
<pdfrwt beam="1">  1        1 0.14887271E+00 0.13260802E+04</pdfrwt>
<pdfrwt beam="2">  1       -1 0.69893657E-01 0.13260802E+04</pdfrwt>
<totfact> 0.32571518E+01</totfact>
</mgrwt>
</event>
<event>
12    1  0.1496989E-007  0.1241640E+04  0.7818608E-02  0.9077170E-01
         -2   -1    0    0    0  501 -0.00000000000E+00  0.00000000000E+00  0.67628329770E+03  0.67628329770E+03  0.00000000000E+00 0. -1.
          2   -1    0    0  501    0  0.00000000000E+00 -0.00000000000E+00 -0.56990514339E+03  0.56990514339E+03  0.00000000000E+00 0.  1.
         23    2    1    2    0    0 -0.16164149166E+03  0.14200351186E+03 -0.16168761940E+03  0.28421279771E+03  0.91329397832E+02 0.  0.
        254    2    1    2    0    0  0.16164149166E+03 -0.14200351186E+03  0.26806577371E+03  0.96197564337E+03  0.89846809081E+03 0.  0.
        -24    2    4    4    0    0  0.51329667745E+03  0.36122787273E+02  0.13047869363E+03  0.53684985035E+03  0.80029603794E+02 0.  0.
         24    2    4    4    0    0 -0.35165518579E+03 -0.17812629913E+03  0.13758708008E+03  0.42512579302E+03  0.80071138069E+02 0.  0.
         13    1    3    3    0    0 -0.14847439348E+03  0.10414302431E+03 -0.16337314360E+03  0.24409260350E+03  0.00000000000E+00 0.  1.
        -13    1    3    3    0    0 -0.13167098185E+02  0.37860487551E+02  0.16855241994E+01  0.40120194217E+02  0.00000000000E+00 0. -1.
          2    1    6    6  502    0 -0.34923020444E+03 -0.18482425613E+03  0.13515651917E+03  0.41759912119E+03  0.00000000000E+00 0. -1.
          1    1    5    5  503    0  0.41776862745E+03 -0.41174606047E+00  0.11583909025E+03  0.43353141806E+03  0.00000000000E+00 0. -1.
         -2    1    5    5    0  503  0.95528050003E+02  0.36534533334E+02  0.14639603382E+02  0.10331843229E+03  0.00000000000E+00 0.  1.
         -1    1    6    6    0  502 -0.24249813521E+01  0.66979569977E+01  0.24305609076E+01  0.75266718293E+01  0.00000000000E+00 0.  1.
<mgrwt>
<rscale>  0 0.12416398E+04</rscale>
<asrwt>0</asrwt>
<pdfrwt beam="1">  1        2 0.87677714E-01 0.12416398E+04</pdfrwt>
<pdfrwt beam="2">  1       -2 0.10404358E+00 0.12416398E+04</pdfrwt>
<totfact> 0.39023535E+01</totfact>
</mgrwt>
</event>
<event>
12    1  0.1496989E-007  0.1518734E+04  0.7818608E-02  0.8872089E-01
         -2   -1    0    0    0  501 -0.00000000000E+00  0.00000000000E+00  0.11075071564E+04  0.11075071564E+04  0.00000000000E+00 0.  1.
          2   -1    0    0  501    0  0.00000000000E+00 -0.00000000000E+00 -0.52066347715E+03  0.52066347715E+03  0.00000000000E+00 0. -1.
         23    2    1    2    0    0 -0.25636396471E+03  0.12330202595E+03  0.61428164592E+03  0.68303704276E+03  0.90949377428E+02 0.  0.
        254    2    1    2    0    0  0.25636396471E+03 -0.12330202595E+03 -0.27437966683E+02  0.94513359078E+03  0.90088777903E+03 0.  0.
        -24    2    4    4    0    0  0.45680699215E+02  0.37618232033E+03  0.49268659460E+02  0.39172858543E+03  0.86162749628E+02 0.  0.
         24    2    4    4    0    0  0.21068326549E+03 -0.49948434628E+03 -0.76706626143E+02  0.55340500535E+03  0.80629665233E+02 0.  0.
         11    1    3    3    0    0 -0.24881692156E+03  0.10985913935E+03  0.60858926273E+03  0.66660316655E+03  0.00000000000E+00 0.  1.
        -11    1    3    3    0    0 -0.75470431488E+01  0.13442886605E+02  0.56923831943E+01  0.16433876201E+02  0.00000000000E+00 0. -1.
          4    1    6    6  502    0  0.67687774280E+02 -0.24513652209E+03 -0.59093477321E+02  0.26108540425E+03  0.00000000000E+00 0. -1.
          1    1    5    5  503    0 -0.70268102922E+01  0.16269894181E+02  0.20118382211E+02  0.26811095135E+02  0.00000000000E+00 0. -1.
         -2    1    5    5    0  503  0.52707509507E+02  0.35991242615E+03  0.29150277249E+02  0.36491749029E+03  0.00000000000E+00 0.  1.
         -3    1    6    6    0  502  0.14299549121E+03 -0.25434782419E+03 -0.17613148823E+02  0.29231960110E+03  0.00000000000E+00 0.  1.
<mgrwt>
<rscale>  0 0.15187344E+04</rscale>
<asrwt>0</asrwt>
<pdfrwt beam="1">  1        2 0.80102074E-01 0.15187344E+04</pdfrwt>
<pdfrwt beam="2">  1       -2 0.17038572E+00 0.15187344E+04</pdfrwt>
<totfact> 0.11988991E+01</totfact>
</mgrwt>
</event>
<event>
12    1  0.1496989E-007  0.1355464E+04  0.7818608E-02  0.8986703E-01
          2   -1    0    0  501    0  0.00000000000E+00  0.00000000000E+00  0.13129606890E+04  0.13129606890E+04  0.00000000000E+00 0. -1.
         -2   -1    0    0    0  501 -0.00000000000E+00 -0.00000000000E+00 -0.34983559165E+03  0.34983559165E+03  0.00000000000E+00 0.  1.
         23    2    1    2    0    0 -0.31821879982E+03 -0.19421219863E+03  0.19639339492E+03  0.42836702188E+03  0.77112626758E+02 0.  0.
        254    2    1    2    0    0  0.31821879982E+03  0.19421219863E+03  0.76673170246E+03  0.12344292588E+04  0.89272420644E+03 0.  0.
        -24    2    4    4    0    0 -0.20795365398E+03  0.21422878731E+03  0.60272532971E+03  0.67715940202E+03  0.78283696620E+02 0.  0.
         24    2    4    4    0    0  0.52617245380E+03 -0.20016588677E+02  0.16400637275E+03  0.55726985678E+03  0.79959289733E+02 0.  0.
         13    1    3    3    0    0 -0.20926781835E+03 -0.14275359385E+03  0.16983022978E+03  0.30498182782E+03  0.00000000000E+00 0.  1.
        -13    1    3    3    0    0 -0.10895098147E+03 -0.51458604782E+02  0.26563165141E+02  0.12338519406E+03  0.00000000000E+00 0. -1.
          2    1    6    6  502    0  0.46898583465E+03 -0.38194619124E+02  0.12943136832E+03  0.48801539027E+03  0.00000000000E+00 0. -1.
          1    1    5    5  503    0 -0.11712686546E+03  0.16502194321E+03  0.35261917326E+03  0.40656023626E+03  0.00000000000E+00 0. -1.
         -2    1    5    5    0  503 -0.90826788519E+02  0.49206844098E+02  0.25010615645E+03  0.27059916576E+03  0.00000000000E+00 0.  1.
         -1    1    6    6    0  502  0.57186619143E+02  0.18178030447E+02  0.34575004430E+02  0.69254466508E+02  0.00000000000E+00 0.  1.
<mgrwt>
<rscale>  0 0.13554636E+04</rscale>
<asrwt>0</asrwt>
<pdfrwt beam="1">  1        2 0.20199395E+00 0.13554636E+04</pdfrwt>
<pdfrwt beam="2">  1       -2 0.53820861E-01 0.13554636E+04</pdfrwt>
<totfact> 0.51579083E+01</totfact>
</mgrwt>
</event>
<event>
12    1  0.1508905E-007  0.3130882E+04  0.7818608E-02  0.8207313E-01
          2   -1    0    0  501    0  0.00000000000E+00  0.00000000000E+00  0.23256956749E+04  0.23256956749E+04  0.00000000000E+00 0.  1.
         -2   -1    0    0    0  501 -0.00000000000E+00 -0.00000000000E+00 -0.10537084659E+04  0.10537084659E+04  0.00000000000E+00 0. -1.
         23    2    1    2    0    0  0.51698324025E+03  0.57465739408E+03 -0.71994017406E+03  0.10600051199E+04  0.88284816291E+02 0.  0.
        254    2    1    2    0    0 -0.51698324025E+03 -0.57465739408E+03  0.19919273831E+04  0.23193990209E+04  0.90240474695E+03 0.  0.
        -24    2    4    4    0    0 -0.75377505781E+03 -0.31014445798E+03  0.12707144845E+04  0.15116375685E+04  0.77242570826E+02 0.  0.
         24    2    4    4    0    0  0.23679181756E+03 -0.26451293610E+03  0.72121289853E+03  0.80776145235E+03  0.79328813615E+02 0.  0.
         11    1    3    3    0    0  0.39940581467E+02  0.35503023793E+02 -0.23549022263E+02  0.58397527310E+02  0.00000000000E+00 0.  1.
        -11    1    3    3    0    0  0.47704265879E+03  0.53915437029E+03 -0.69639115180E+03  0.10016075926E+04  0.00000000000E+00 0. -1.
          2    1    6    6  502    0  0.23814430355E+03 -0.25080916152E+03  0.66124091277E+03  0.74622884529E+03  0.00000000000E+00 0. -1.
          1    1    5    5  503    0 -0.58742960522E+03 -0.24133273009E+03  0.10461885932E+04  0.12238568545E+04  0.00000000000E+00 0. -1.
         -4    1    5    5    0  503 -0.16634545259E+03 -0.68811727891E+02  0.22452589130E+03  0.28778071401E+03  0.00000000000E+00 0.  1.
         -1    1    6    6    0  502 -0.13524859917E+01 -0.13703774582E+02  0.59971985762E+02  0.61532607067E+02  0.00000000000E+00 0.  1.
<mgrwt>
<rscale>  0 0.31308818E+04</rscale>
<asrwt>0</asrwt>
<pdfrwt beam="1">  1        2 0.35779933E+00 0.31308818E+04</pdfrwt>
<pdfrwt beam="2">  1       -2 0.16210900E+00 0.31308818E+04</pdfrwt>
<totfact> 0.90218007E-01</totfact>
</mgrwt>
</event>
<event>
12    1  0.1496989E-007  0.2266816E+04  0.7818608E-02  0.8491121E-01
          3   -1    0    0  501    0  0.00000000000E+00  0.00000000000E+00  0.14588556393E+04  0.14588556393E+04  0.00000000000E+00 0. -1.
         -3   -1    0    0    0  501 -0.00000000000E+00 -0.00000000000E+00 -0.88056294707E+03  0.88056294707E+03  0.00000000000E+00 0.  1.
         23    2    1    2    0    0 -0.49714263735E+03  0.37631059437E+03 -0.49049397584E+03  0.79855318773E+03  0.91336673886E+02 0.  0.
        254    2    1    2    0    0  0.49714263735E+03 -0.37631059437E+03  0.10687866681E+04  0.15408653986E+04  0.91825964171E+03 0.  0.
        -24    2    4    4    0    0  0.47359274350E+03 -0.38440533371E+02  0.10919516756E+04  0.11933680585E+04  0.77466766615E+02 0.  0.
         24    2    4    4    0    0  0.23549893851E+02 -0.33787006100E+03 -0.23165007506E+02  0.34749734016E+03  0.74209219290E+02 0.  0.
         13    1    3    3    0    0 -0.28399857640E+03  0.26435076931E+03 -0.27645655940E+03  0.47640817569E+03  0.00000000000E+00 0.  1.
        -13    1    3    3    0    0 -0.21314406094E+03  0.11195982506E+03 -0.21403741644E+03  0.32214501204E+03  0.00000000000E+00 0. -1.
          4    1    6    6  502    0  0.47421482667E+01 -0.25938862069E+03 -0.46326854546E+02  0.26353580775E+03  0.00000000000E+00 0. -1.
          3    1    5    5  503    0  0.37417236142E+03 -0.36559708795E+02  0.93271420900E+03  0.10056328177E+04  0.00000000000E+00 0. -1.
         -4    1    5    5    0  503  0.99420382081E+02 -0.18808245755E+01  0.15923746657E+03  0.18773524079E+03  0.00000000000E+00 0.  1.
         -3    1    6    6    0  502  0.18807745584E+02 -0.78481440301E+02  0.23161847041E+02  0.83961532406E+02  0.00000000000E+00 0.  1.
<mgrwt>
<rscale>  0 0.22668165E+04</rscale>
<asrwt>0</asrwt>
<pdfrwt beam="1">  1        3 0.22443933E+00 0.22668165E+04</pdfrwt>
<pdfrwt beam="2">  1       -3 0.13547122E+00 0.22668165E+04</pdfrwt>
<totfact> 0.10354812E-01</totfact>
</mgrwt>
</event>
<event>
12    1  0.1496989E-007  0.1513600E+04  0.7818608E-02  0.8875459E-01
          2   -1    0    0  501    0  0.00000000000E+00  0.00000000000E+00  0.16196838855E+04  0.16196838855E+04  0.00000000000E+00 0. -1.
         -2   -1    0    0    0  501 -0.00000000000E+00 -0.00000000000E+00 -0.35361590284E+03  0.35361590284E+03  0.00000000000E+00 0.  1.
         23    2    1    2    0    0 -0.41136842402E+03 -0.23570683703E+03  0.53065119042E+03  0.71749955005E+03  0.91832592994E+02 0.  0.
        254    2    1    2    0    0  0.41136842402E+03  0.23570683703E+03  0.73541679225E+03  0.12558002383E+04  0.90078559428E+03 0.  0.
        -24    2    4    4    0    0  0.42833887236E+03 -0.26359029952E+03  0.41601028201E+03  0.65746265374E+03  0.78984496860E+02 0.  0.
         24    2    4    4    0    0 -0.16970448345E+02  0.49929713655E+03  0.31940651025E+03  0.59833758456E+03  0.80010746940E+02 0.  0.
         13    1    3    3    0    0 -0.10828881839E+03 -0.64126331225E+02  0.84853739096E+02  0.15178541295E+03  0.00000000000E+00 0.  1.
        -13    1    3    3    0    0 -0.30307960563E+03 -0.17158050580E+03  0.44579745132E+03  0.56571413711E+03  0.00000000000E+00 0. -1.
          4    1    6    6  502    0 -0.19720473399E+02  0.20777886710E+03  0.89649130307E+02  0.22715175819E+03  0.00000000000E+00 0. -1.
          3    1    5    5  503    0  0.39134420566E+03 -0.21471368097E+03  0.38102087228E+03  0.58688087140E+03  0.00000000000E+00 0. -1.
         -4    1    5    5    0  503  0.36994666701E+02 -0.48876618543E+02  0.34989409727E+02  0.70581782335E+02  0.00000000000E+00 0.  1.
         -3    1    6    6    0  502  0.27500250541E+01  0.29151826945E+03  0.22975737994E+03  0.37118582637E+03  0.00000000000E+00 0.  1.
<mgrwt>
<rscale>  0 0.15135997E+04</rscale>
<asrwt>0</asrwt>
<pdfrwt beam="1">  1        2 0.24918213E+00 0.15135997E+04</pdfrwt>
<pdfrwt beam="2">  1       -2 0.54402447E-01 0.15135997E+04</pdfrwt>
<totfact> 0.33371108E+01</totfact>
</mgrwt>
</event>
<event>
12    1  0.1496989E-007  0.2943355E+04  0.7818608E-02  0.8260094E-01
          2   -1    0    0  501    0  0.00000000000E+00  0.00000000000E+00  0.17420378335E+04  0.17420378335E+04  0.00000000000E+00 0. -1.
         -2   -1    0    0    0  501 -0.00000000000E+00 -0.00000000000E+00 -0.12432761660E+04  0.12432761660E+04  0.00000000000E+00 0.  1.
         23    2    1    2    0    0 -0.38403847836E+03 -0.33730847868E+03  0.14735906838E+04  0.15623893712E+04  0.91260512361E+02 0.  0.
        254    2    1    2    0    0  0.38403847836E+03  0.33730847868E+03 -0.97482901640E+03  0.14229246283E+04  0.90175402630E+03 0.  0.
        -24    2    4    4    0    0  0.66311321613E+03  0.33189778400E+03 -0.69626498169E+03  0.10203254672E+04  0.80024108502E+02 0.  0.
         24    2    4    4    0    0 -0.27907473777E+03  0.54106946752E+01 -0.27856403471E+03  0.40259916106E+03  0.81093638269E+02 0.  0.
         11    1    3    3    0    0 -0.19100530357E+03 -0.19956156340E+03  0.90817166720E+03  0.94925424449E+03  0.00000000000E+00 0.  1.
        -11    1    3    3    0    0 -0.19303317479E+03 -0.13774691527E+03  0.56541901664E+03  0.61313512672E+03  0.00000000000E+00 0. -1.
          2    1    6    6  502    0 -0.26699285952E+03 -0.53064822512E+01 -0.23351624426E+03  0.35474382605E+03  0.00000000000E+00 0. -1.
          3    1    5    5  503    0  0.34413420475E+03  0.16696712733E+03 -0.30466657131E+03  0.48900725165E+03  0.00000000000E+00 0. -1.
         -4    1    5    5    0  503  0.31897901138E+03  0.16493065667E+03 -0.39159841038E+03  0.53131821559E+03  0.00000000000E+00 0.  1.
         -1    1    6    6    0  502 -0.12081878248E+02  0.10717176926E+02 -0.45047790457E+02  0.47855335004E+02  0.00000000000E+00 0.  1.
<mgrwt>
<rscale>  0 0.29433546E+04</rscale>
<asrwt>0</asrwt>
<pdfrwt beam="1">  1        2 0.26800582E+00 0.29433546E+04</pdfrwt>
<pdfrwt beam="2">  1       -2 0.19127326E+00 0.29433546E+04</pdfrwt>
<totfact> 0.12147851E+00</totfact>
</mgrwt>
</event>
<event>
12    1  0.1496989E-007  0.1462793E+04  0.7818608E-02  0.8909579E-01
         -2   -1    0    0    0  501 -0.00000000000E+00  0.00000000000E+00  0.17990436196E+04  0.17990436196E+04  0.00000000000E+00 0. -1.
          2   -1    0    0  501    0  0.00000000000E+00 -0.00000000000E+00 -0.29734741569E+03  0.29734741569E+03  0.00000000000E+00 0.  1.
         23    2    1    2    0    0  0.17991670306E+03  0.32098501825E+03  0.81465173295E+03  0.89823852840E+03  0.88168055066E+02 0.  0.
        254    2    1    2    0    0 -0.17991670306E+03 -0.32098501825E+03  0.68704447093E+03  0.11981525069E+04  0.91002083639E+03 0.  0.
        -24    2    4    4    0    0  0.27347070532E+02 -0.60892787507E+03  0.38580428865E+03  0.72603150462E+03  0.82071781092E+02 0.  0.
         24    2    4    4    0    0 -0.20726377359E+03  0.28794285682E+03  0.30124018228E+03  0.47212100224E+03  0.79266844868E+02 0.  0.
         11    1    3    3    0    0  0.50913450165E+02  0.58038016788E+02  0.10340294551E+03  0.12904557312E+03  0.00000000000E+00 0.  1.
        -11    1    3    3    0    0  0.12900325289E+03  0.26294700146E+03  0.71124878743E+03  0.76919295529E+03  0.00000000000E+00 0. -1.
          2    1    6    6  502    0 -0.12106243621E+03  0.10603745229E+03  0.11415997842E+03  0.19731334325E+03  0.00000000000E+00 0. -1.
          1    1    5    5  503    0 -0.27671720912E-01 -0.17908000486E+03  0.15781154018E+03  0.23869254517E+03  0.00000000000E+00 0. -1.
         -2    1    5    5    0  503  0.27374742253E+02 -0.42984787021E+03  0.22799274847E+03  0.48733895945E+03  0.00000000000E+00 0.  1.
         -1    1    6    6    0  502 -0.86201337376E+02  0.18190540453E+03  0.18708020386E+03  0.27480765899E+03  0.00000000000E+00 0.  1.
<mgrwt>
<rscale>  0 0.14627932E+04</rscale>
<asrwt>0</asrwt>
<pdfrwt beam="1">  1        2 0.45745757E-01 0.14627932E+04</pdfrwt>
<pdfrwt beam="2">  1       -2 0.27677594E+00 0.14627932E+04</pdfrwt>
<totfact> 0.47454309E+00</totfact>
</mgrwt>
</event>
<event>
12    1  0.1496989E-007  0.3010707E+04  0.7818608E-02  0.8240680E-01
          1   -1    0    0  501    0  0.00000000000E+00  0.00000000000E+00  0.13054744135E+04  0.13054744135E+04  0.00000000000E+00 0. -1.
         -1   -1    0    0    0  501 -0.00000000000E+00 -0.00000000000E+00 -0.17358358642E+04  0.17358358642E+04  0.00000000000E+00 0.  1.
         23    2    1    2    0    0 -0.47341211432E+03 -0.42469584833E+03 -0.14052856144E+04  0.15451597383E+04  0.90583472733E+02 0.  0.
        254    2    1    2    0    0  0.47341211432E+03  0.42469584833E+03  0.97492416366E+03  0.14961505394E+04  0.93994878488E+03 0.  0.
        -24    2    4    4    0    0 -0.11901504806E+03  0.26078798162E+03  0.79748225512E+03  0.85125467600E+03  0.80508528477E+02 0.  0.
         24    2    4    4    0    0  0.59242716238E+03  0.16390786670E+03  0.17744190854E+03  0.64489586343E+03  0.81051294097E+02 0.  0.
         13    1    3    3    0    0 -0.49378192174E+01 -0.10490534523E+02 -0.66874615168E+02  0.67872288359E+02  0.00000000000E+00 0. -1.
        -13    1    3    3    0    0 -0.46847429511E+03 -0.41420531380E+03 -0.13384109992E+04  0.14772874500E+04  0.00000000000E+00 0.  1.
          4    1    6    6  502    0  0.51800891094E+03  0.13590389296E+03  0.18100931847E+03  0.56530299248E+03  0.00000000000E+00 0. -1.
          3    1    5    5  503    0 -0.12226985844E+03  0.20391032175E+03  0.68645668876E+03  0.72646550031E+03  0.00000000000E+00 0. -1.
         -4    1    5    5    0  503  0.32548103844E+01  0.56877659877E+02  0.11102556636E+03  0.12478917569E+03  0.00000000000E+00 0.  1.
         -3    1    6    6    0  502  0.74418251445E+02  0.28003973739E+02 -0.35674099334E+01  0.79592870956E+02  0.00000000000E+00 0.  1.
<mgrwt>
<rscale>  0 0.30107071E+04</rscale>
<asrwt>0</asrwt>
<pdfrwt beam="1">  1        1 0.20084222E+00 0.30107071E+04</pdfrwt>
<pdfrwt beam="2">  1       -1 0.26705167E+00 0.30107071E+04</pdfrwt>
<totfact> 0.41155326E-01</totfact>
</mgrwt>
</event>
<event>
12    1  0.1496989E-007  0.1262126E+04  0.7818608E-02  0.9060151E-01
          2   -1    0    0  501    0  0.00000000000E+00  0.00000000000E+00  0.10780188356E+04  0.10780188356E+04  0.00000000000E+00 0.  1.
         -2   -1    0    0    0  501 -0.00000000000E+00 -0.00000000000E+00 -0.36941861843E+03  0.36941861843E+03  0.00000000000E+00 0. -1.
         23    2    1    2    0    0 -0.39978060215E+02 -0.35412131083E+02 -0.14570726919E+03  0.18041797722E+03  0.92020507949E+02 0.  0.
        254    2    1    2    0    0  0.39978060215E+02  0.35412131083E+02  0.85430748639E+03  0.12670194768E+04  0.93415459590E+03 0.  0.
        -24    2    4    4    0    0 -0.10907767882E+03  0.31483051013E+03 -0.97115695346E+01  0.34333415752E+03  0.82266876753E+02 0.  0.
         24    2    4    4    0    0  0.14905573904E+03 -0.27941837905E+03  0.86401905593E+03  0.92368531931E+03  0.79833553235E+02 0.  0.
         11    1    3    3    0    0 -0.30851858517E+02  0.19895051766E+02 -0.10474344341E+03  0.11099026622E+03  0.00000000000E+00 0. -1.
        -11    1    3    3    0    0 -0.91262016974E+01 -0.55307182849E+02 -0.40963825786E+02  0.69427711003E+02  0.00000000000E+00 0.  1.
          2    1    6    6  502    0  0.86248027235E+02 -0.87568979771E+02  0.37536149036E+03  0.39497252672E+03  0.00000000000E+00 0. -1.
          3    1    5    5  503    0 -0.55672109106E+02  0.66275364110E+02  0.15232973514E+02  0.87885443062E+02  0.00000000000E+00 0. -1.
         -4    1    5    5    0  503 -0.53405569716E+02  0.24855514602E+03 -0.24944543048E+02  0.25544871446E+03  0.00000000000E+00 0.  1.
         -1    1    6    6    0  502  0.62807711802E+02 -0.19184939928E+03  0.48865756557E+03  0.52871279260E+03  0.00000000000E+00 0.  1.
<mgrwt>
<rscale>  0 0.12621256E+04</rscale>
<asrwt>0</asrwt>
<pdfrwt beam="1">  1        2 0.16584905E+00 0.12621256E+04</pdfrwt>
<pdfrwt beam="2">  1       -2 0.56833634E-01 0.12621256E+04</pdfrwt>
<totfact> 0.64137043E+01</totfact>
</mgrwt>
</event>
<event>
12    1  0.1496989E-007  0.1419898E+04  0.7818608E-02  0.8939540E-01
          1   -1    0    0  501    0  0.00000000000E+00  0.00000000000E+00  0.18991234350E+04  0.18991234350E+04  0.00000000000E+00 0. -1.
         -1   -1    0    0    0  501 -0.00000000000E+00 -0.00000000000E+00 -0.26540019538E+03  0.26540019538E+03  0.00000000000E+00 0.  1.
         23    2    1    2    0    0  0.24752017593E+03 -0.32703805714E+03  0.54292499621E+03  0.68897422597E+03  0.10815638784E+03 0.  0.
        254    2    1    2    0    0 -0.24752017593E+03  0.32703805714E+03  0.10907982434E+04  0.14755494044E+04  0.90508845354E+03 0.  0.
        -24    2    4    4    0    0  0.80114221691E+02  0.38216905076E+03  0.77121657706E+02  0.40582584817E+03  0.79217403898E+02 0.  0.
         24    2    4    4    0    0 -0.32763439762E+03 -0.55130993616E+02  0.10136765857E+04  0.10697235563E+04  0.79903325340E+02 0.  0.
         13    1    3    3    0    0  0.14527591842E+03 -0.21115946064E+03  0.41770707669E+03  0.49007408849E+03  0.00000000000E+00 0. -1.
        -13    1    3    3    0    0  0.10224425751E+03 -0.11587859650E+03  0.12521791951E+03  0.19890013748E+03  0.00000000000E+00 0.  1.
          2    1    6    6  502    0 -0.58101870285E+02  0.20730416170E+02  0.18743809954E+03  0.19732870709E+03  0.00000000000E+00 0. -1.
          3    1    5    5  503    0  0.86998923045E+02  0.23186865983E+03  0.40077699849E+02  0.25087468993E+03  0.00000000000E+00 0. -1.
         -4    1    5    5    0  503 -0.68847013541E+01  0.15030039093E+03  0.37043957857E+02  0.15495115824E+03  0.00000000000E+00 0.  1.
         -1    1    6    6    0  502 -0.26953252734E+03 -0.75861409786E+02  0.82623848620E+03  0.87239484917E+03  0.00000000000E+00 0.  1.
<mgrwt>
<rscale>  0 0.14198982E+04</rscale>
<asrwt>0</asrwt>
<pdfrwt beam="1">  1        1 0.29217283E+00 0.14198982E+04</pdfrwt>
<pdfrwt beam="2">  1       -1 0.40830800E-01 0.14198982E+04</pdfrwt>
<totfact> 0.19932723E+01</totfact>
</mgrwt>
</event>
<event>
12    1  0.1496989E-007  0.1849115E+04  0.7818608E-02  0.8680608E-01
          1   -1    0    0  501    0  0.00000000000E+00  0.00000000000E+00  0.95133976799E+03  0.95133976799E+03  0.00000000000E+00 0. -1.
         -1   -1    0    0    0  501 -0.00000000000E+00 -0.00000000000E+00 -0.89852916008E+03  0.89852916008E+03  0.00000000000E+00 0.  1.
         23    2    1    2    0    0  0.21865524949E+03 -0.44463787347E+03  0.50139823961E+03  0.70917734802E+03  0.77584532000E+02 0.  0.
        254    2    1    2    0    0 -0.21865524949E+03  0.44463787347E+03 -0.44858763169E+03  0.11406915800E+04  0.92435570038E+03 0.  0.
        -24    2    4    4    0    0 -0.53623315893E+03  0.25501478148E+03 -0.66820646257E+02  0.60307647939E+03  0.81594740769E+02 0.  0.
         24    2    4    4    0    0  0.31757790944E+03  0.18962309199E+03 -0.38176698544E+03  0.53761510066E+03  0.80444513217E+02 0.  0.
         11    1    3    3    0    0  0.67919754185E+02 -0.18719701534E+03  0.15733672842E+03  0.25379255638E+03  0.00000000000E+00 0. -1.
        -11    1    3    3    0    0  0.15073549531E+03 -0.25744085813E+03  0.34406151118E+03  0.45538479164E+03  0.00000000000E+00 0.  1.
          4    1    6    6  502    0  0.13383257696E+03  0.12630302740E+03 -0.17790496100E+03  0.25595661455E+03  0.00000000000E+00 0. -1.
          1    1    5    5  503    0 -0.45050542647E+03  0.18146911828E+03 -0.42512492853E+02  0.48753819565E+03  0.00000000000E+00 0. -1.
         -2    1    5    5    0  503 -0.85727732456E+02  0.73545663202E+02 -0.24308153404E+02  0.11553828374E+03  0.00000000000E+00 0.  1.
         -3    1    6    6    0  502  0.18374533247E+03  0.63320064597E+02 -0.20386202444E+03  0.28165848610E+03  0.00000000000E+00 0.  1.
<mgrwt>
<rscale>  0 0.18491149E+04</rscale>
<asrwt>0</asrwt>
<pdfrwt beam="1">  1        1 0.14635996E+00 0.18491149E+04</pdfrwt>
<pdfrwt beam="2">  1       -1 0.13823526E+00 0.18491149E+04</pdfrwt>
<totfact> 0.67324590E+00</totfact>
</mgrwt>
</event>
<event>
12    1  0.3493346E-007  0.2074567E+04  0.7818608E-02  0.8572530E-01
         -1   -1    0    0    0  501 -0.00000000000E+00  0.00000000000E+00  0.49215817341E+03  0.49215817341E+03  0.00000000000E+00 0.  1.
          1   -1    0    0  501    0  0.00000000000E+00 -0.00000000000E+00 -0.21862016382E+04  0.21862016382E+04  0.00000000000E+00 0. -1.
         23    2    1    2    0    0  0.29900046270E+03 -0.74655674849E+03 -0.37352723774E+03  0.89157544147E+03  0.92929624403E+02 0.  0.
        254    2    1    2    0    0 -0.29900046270E+03  0.74655674849E+03 -0.13205162270E+04  0.17867843701E+04  0.89559311297E+03 0.  0.
        -24    2    4    4    0    0  0.72195665375E+02  0.75818831187E+01 -0.79945379410E+03  0.80627045238E+03  0.75339063036E+02 0.  0.
         24    2    4    4    0    0 -0.37119612808E+03  0.73897486538E+03 -0.52106243291E+03  0.98051391772E+03  0.77659942686E+02 0.  0.
         13    1    3    3    0    0  0.23141217348E+03 -0.54678106226E+03 -0.31780177890E+03  0.67343826350E+03  0.00000000000E+00 0.  1.
        -13    1    3    3    0    0  0.67588289227E+02 -0.19977568624E+03 -0.55725458841E+02  0.21813717798E+03  0.00000000000E+00 0. -1.
          4    1    6    6  502    0 -0.77715629029E+02  0.17539098059E+03 -0.84788018886E+02  0.20973965579E+03  0.00000000000E+00 0. -1.
          3    1    5    5  503    0 -0.10269249560E+02  0.13199269103E+02 -0.62605193651E+02  0.64800373946E+02  0.00000000000E+00 0. -1.
         -4    1    5    5    0  503  0.82464914935E+02 -0.56173859841E+01 -0.73684860045E+03  0.74147007843E+03  0.00000000000E+00 0.  1.
         -3    1    6    6    0  502 -0.29348049905E+03  0.56358388479E+03 -0.43627441402E+03  0.77077426192E+03  0.00000000000E+00 0.  1.
<mgrwt>
<rscale>  0 0.20745669E+04</rscale>
<asrwt>0</asrwt>
<pdfrwt beam="1">  1        1 0.33633870E+00 0.20745669E+04</pdfrwt>
<pdfrwt beam="2">  1       -1 0.75716645E-01 0.20745669E+04</pdfrwt>
<totfact> 0.35961194E+00</totfact>
</mgrwt>
</event>
<event>
12    1  0.1496989E-007  0.3127327E+04  0.7818608E-02  0.8208278E-01
          1   -1    0    0  501    0  0.00000000000E+00  0.00000000000E+00  0.25622121993E+04  0.25622121993E+04  0.00000000000E+00 0. -1.
         -1   -1    0    0    0  501 -0.00000000000E+00 -0.00000000000E+00 -0.95427042235E+03  0.95427042235E+03  0.00000000000E+00 0.  1.
         23    2    1    2    0    0 -0.12936064630E+04  0.44758030224E+03  0.12795712130E+04  0.18760507095E+04  0.92292834946E+02 0.  0.
        254    2    1    2    0    0  0.12936064630E+04 -0.44758030224E+03  0.32837056398E+03  0.16404319122E+04  0.84228488240E+03 0.  0.
        -24    2    4    4    0    0 -0.15998912811E+01 -0.28043123375E+02 -0.16984413578E+03  0.18846851362E+03  0.76709671792E+02 0.  0.
         24    2    4    4    0    0  0.12952063543E+04 -0.41953717887E+03  0.49821469976E+03  0.14519633986E+04  0.80055474823E+02 0.  0.
         11    1    3    3    0    0 -0.73080571663E+03  0.21723344471E+03  0.66908966428E+03  0.10143709104E+04  0.00000000000E+00 0. -1.
        -11    1    3    3    0    0 -0.56280074639E+03  0.23034685753E+03  0.61048154873E+03  0.86167979914E+03  0.00000000000E+00 0.  1.
          2    1    6    6  502    0  0.68194041435E+03 -0.17904800897E+03  0.25333740438E+03  0.74918673153E+03  0.00000000000E+00 0. -1.
          1    1    5    5  503    0 -0.11679623979E+02 -0.53251335106E+02 -0.11554692803E+03  0.12776232185E+03  0.00000000000E+00 0. -1.
         -2    1    5    5    0  503  0.10079732698E+02  0.25208211732E+02 -0.54297207750E+02  0.60706191772E+02  0.00000000000E+00 0.  1.
         -1    1    6    6    0  502  0.61326593994E+03 -0.24048916990E+03  0.24487729539E+03  0.70277666703E+03  0.00000000000E+00 0.  1.
<mgrwt>
<rscale>  0 0.31273269E+04</rscale>
<asrwt>0</asrwt>
<pdfrwt beam="1">  1        1 0.39418649E+00 0.31273269E+04</pdfrwt>
<pdfrwt beam="2">  1       -1 0.14681084E+00 0.31273269E+04</pdfrwt>
<totfact> 0.38141221E-01</totfact>
</mgrwt>
</event>
<event>
12    1  0.1496989E-007  0.1252459E+04  0.7818608E-02  0.9068139E-01
          1   -1    0    0  501    0  0.00000000000E+00  0.00000000000E+00  0.60873582123E+03  0.60873582123E+03  0.00000000000E+00 0. -1.
         -1   -1    0    0    0  501 -0.00000000000E+00 -0.00000000000E+00 -0.64422622943E+03  0.64422622943E+03  0.00000000000E+00 0.  1.
         23    2    1    2    0    0 -0.15705398671E+03  0.12616911023E-01 -0.27771612454E+03  0.33219648401E+03  0.92532714539E+02 0.  0.
        254    2    1    2    0    0  0.15705398671E+03 -0.12616911023E-01  0.24222571633E+03  0.92076556665E+03  0.87433973728E+03 0.  0.
        -24    2    4    4    0    0  0.78954716954E+02 -0.22879582605E+03 -0.25607779438E+03  0.36147499272E+03  0.80665706730E+02 0.  0.
         24    2    4    4    0    0  0.78099269752E+02  0.22878320913E+03  0.49830351072E+03  0.55929057393E+03  0.77835111464E+02 0.  0.
         11    1    3    3    0    0 -0.12217326722E+03  0.39402754608E+02 -0.21417768082E+03  0.24970174860E+03  0.00000000000E+00 0.  1.
        -11    1    3    3    0    0 -0.34880719485E+02 -0.39390137697E+02 -0.63538443722E+02  0.82494735409E+02  0.00000000000E+00 0. -1.
          4    1    6    6  502    0 -0.95335129980E+01  0.82233072095E+02  0.17827785902E+03  0.19656083290E+03  0.00000000000E+00 0. -1.
          3    1    5    5  503    0  0.74375924813E+01  0.56035025169E+01 -0.47907899527E+01  0.10472282022E+02  0.00000000000E+00 0. -1.
         -4    1    5    5    0  503  0.71517124472E+02 -0.23439932856E+03 -0.25128700443E+03  0.35100271070E+03  0.00000000000E+00 0.  1.
         -3    1    6    6    0  502  0.87632782750E+02  0.14655013704E+03  0.32002565170E+03  0.36272974103E+03  0.00000000000E+00 0.  1.
<mgrwt>
<rscale>  0 0.12524593E+04</rscale>
<asrwt>0</asrwt>
<pdfrwt beam="1">  1        1 0.93651665E-01 0.12524593E+04</pdfrwt>
<pdfrwt beam="2">  1       -1 0.99111727E-01 0.12524593E+04</pdfrwt>
<totfact> 0.32183819E+01</totfact>
</mgrwt>
</event>
<event>
12    1  0.1496989E-007  0.1425121E+04  0.7818608E-02  0.8935833E-01
         -1   -1    0    0    0  501 -0.00000000000E+00  0.00000000000E+00  0.51755592065E+03  0.51755592065E+03  0.00000000000E+00 0.  1.
          1   -1    0    0  501    0  0.00000000000E+00 -0.00000000000E+00 -0.98103826243E+03  0.98103826243E+03  0.00000000000E+00 0. -1.
         23    2    1    2    0    0  0.25989310582E+03  0.26219363628E+03  0.65764674005E+02  0.38675256343E+03  0.94671134026E+02 0.  0.
        254    2    1    2    0    0 -0.25989310582E+03 -0.26219363628E+03 -0.52924701578E+03  0.11118416197E+04  0.90542777411E+03 0.  0.
        -24    2    4    4    0    0  0.15747782359E+03  0.23676633535E+03 -0.50692555001E+02  0.30031079285E+03  0.82214808235E+02 0.  0.
         24    2    4    4    0    0 -0.41737092941E+03 -0.49895997163E+03 -0.47855446078E+03  0.81153082680E+03  0.80052263625E+02 0.  0.
         13    1    3    3    0    0  0.21048567624E+02 -0.54835421629E+01 -0.13127125249E+01  0.21790700949E+02  0.00000000000E+00 0. -1.
        -13    1    3    3    0    0  0.23884453819E+03  0.26767717844E+03  0.67077386529E+02  0.36496186248E+03  0.00000000000E+00 0.  1.
          2    1    6    6  502    0 -0.19608076883E+03 -0.20292518947E+03 -0.24980736312E+03  0.37686870272E+03  0.00000000000E+00 0. -1.
          1    1    5    5  503    0  0.13467781417E+03  0.21827664068E+03 -0.69144323350E+02  0.26563836874E+03  0.00000000000E+00 0. -1.
         -2    1    5    5    0  503  0.22800009421E+02  0.18489694673E+02  0.18451768349E+02  0.34672424114E+02  0.00000000000E+00 0.  1.
         -1    1    6    6    0  502 -0.22129016058E+03 -0.29603478216E+03 -0.22874709767E+03  0.43466212408E+03  0.00000000000E+00 0.  1.
<mgrwt>
<rscale>  0 0.14251206E+04</rscale>
<asrwt>0</asrwt>
<pdfrwt beam="1">  1        1 0.15092896E+00 0.14251206E+04</pdfrwt>
<pdfrwt beam="2">  1       -1 0.79623988E-01 0.14251206E+04</pdfrwt>
<totfact> 0.24016814E+01</totfact>
</mgrwt>
</event>
<event>
12    1  0.1496989E-007  0.1992465E+04  0.7818608E-02  0.8610151E-01
         -1   -1    0    0    0  501 -0.00000000000E+00  0.00000000000E+00  0.66081977043E+03  0.66081977043E+03  0.00000000000E+00 0.  1.
          1   -1    0    0  501    0  0.00000000000E+00 -0.00000000000E+00 -0.15018913528E+04  0.15018913528E+04  0.00000000000E+00 0. -1.
         23    2    1    2    0    0 -0.31199402324E+03 -0.13905784202E+03 -0.11143061233E+04  0.11690542137E+04  0.91281236788E+02 0.  0.
        254    2    1    2    0    0  0.31199402324E+03  0.13905784202E+03  0.27323454097E+03  0.99365690948E+03  0.89219929692E+03 0.  0.
        -24    2    4    4    0    0 -0.17631153674E+02 -0.20409989200E+03  0.43288749450E+03  0.48541943336E+03  0.79201135731E+02 0.  0.
         24    2    4    4    0    0  0.32962517691E+03  0.34315773401E+03 -0.15965295353E+03  0.50823747612E+03  0.80039233443E+02 0.  0.
         13    1    3    3    0    0 -0.28163576037E+03 -0.15248779376E+03 -0.10011393859E+04  0.10511190697E+04  0.00000000000E+00 0. -1.
        -13    1    3    3    0    0 -0.30358262864E+02  0.13429951746E+02 -0.11316673742E+03  0.11793514398E+03  0.00000000000E+00 0.  1.
          2    1    6    6  502    0  0.24392716336E+03  0.27964115723E+03 -0.93350305272E+02  0.38264071573E+03  0.00000000000E+00 0. -1.
          1    1    5    5  503    0 -0.39069913181E+02 -0.18961803413E+03  0.37555523478E+03  0.42252004847E+03  0.00000000000E+00 0. -1.
         -2    1    5    5    0  503  0.21438759507E+02 -0.14481857872E+02  0.57332259716E+02  0.62899384900E+02  0.00000000000E+00 0.  1.
         -1    1    6    6    0  502  0.85698013547E+02  0.63516576786E+02 -0.66302648257E+02  0.12559676038E+03  0.00000000000E+00 0.  1.
<mgrwt>
<rscale>  0 0.19924653E+04</rscale>
<asrwt>0</asrwt>
<pdfrwt beam="1">  1        1 0.23106020E+00 0.19924653E+04</pdfrwt>
<pdfrwt beam="2">  1       -1 0.10166458E+00 0.19924653E+04</pdfrwt>
<totfact> 0.55548647E+00</totfact>
</mgrwt>
</event>
<event>
12    1  0.1496989E-007  0.1388824E+04  0.7818608E-02  0.8961948E-01
          1   -1    0    0  501    0  0.00000000000E+00  0.00000000000E+00  0.24171863412E+04  0.24171863412E+04  0.00000000000E+00 0. -1.
         -1   -1    0    0    0  501 -0.00000000000E+00 -0.00000000000E+00 -0.19949148754E+03  0.19949148754E+03  0.00000000000E+00 0.  1.
         23    2    1    2    0    0 -0.22593348704E+03 -0.10597217501E+03  0.76544241699E+02  0.27641976916E+03  0.90955073525E+02 0.  0.
        254    2    1    2    0    0  0.22593348704E+03  0.10597217501E+03  0.21411506120E+04  0.23402580596E+04  0.91104654100E+03 0.  0.
        -24    2    4    4    0    0  0.35124418496E+03  0.37623043519E+03  0.73622442186E+03  0.90190284967E+03  0.80501758163E+02 0.  0.
         24    2    4    4    0    0 -0.12531069792E+03 -0.27025826018E+03  0.14049261901E+04  0.14383552099E+04  0.79409143201E+02 0.  0.
         11    1    3    3    0    0 -0.19410066925E+03 -0.81262432078E+02  0.26376711283E+02  0.21207164726E+03  0.00000000000E+00 0.  1.
        -11    1    3    3    0    0 -0.31832817789E+02 -0.24709742935E+02  0.50167530415E+02  0.64348121901E+02  0.00000000000E+00 0. -1.
          4    1    6    6  502    0 -0.92960703379E+02 -0.25549873936E+03  0.12738360161E+04  0.13025281164E+04  0.00000000000E+00 0. -1.
          1    1    5    5  503    0  0.11845076548E+03  0.15808916397E+03  0.22616115746E+03  0.30028592499E+03  0.00000000000E+00 0. -1.
         -2    1    5    5    0  503  0.23279341948E+03  0.21814127122E+03  0.51006326440E+03  0.60161692468E+03  0.00000000000E+00 0.  1.
         -3    1    6    6    0  502 -0.32349994540E+02 -0.14759520821E+02  0.13109017401E+03  0.13582709349E+03  0.00000000000E+00 0.  1.
<mgrwt>
<rscale>  0 0.13888241E+04</rscale>
<asrwt>0</asrwt>
<pdfrwt beam="1">  1        1 0.37187480E+00 0.13888241E+04</pdfrwt>
<pdfrwt beam="2">  1       -1 0.30691000E-01 0.13888241E+04</pdfrwt>
<totfact> 0.14834706E+01</totfact>
</mgrwt>
</event>
<event>
12    1  0.1829667E-007  0.1615799E+04  0.7818608E-02  0.8810901E-01
         -2   -1    0    0    0  501 -0.00000000000E+00  0.00000000000E+00  0.43437663604E+03  0.43437663604E+03  0.00000000000E+00 0.  1.
          2   -1    0    0  501    0  0.00000000000E+00 -0.00000000000E+00 -0.15026162373E+04  0.15026162373E+04  0.00000000000E+00 0. -1.
         23    2    1    2    0    0 -0.41997262997E+03 -0.34811948024E+03 -0.44149940779E+03  0.70734547387E+03  0.88609874575E+02 0.  0.
        254    2    1    2    0    0  0.41997262997E+03  0.34811948024E+03 -0.62674019345E+03  0.12296473995E+04  0.90645754144E+03 0.  0.
        -24    2    4    4    0    0  0.54590502051E+03  0.48811186791E+03 -0.69624535870E+03  0.10135471055E+04  0.79086336559E+02 0.  0.
         24    2    4    4    0    0 -0.12593239054E+03 -0.13999238767E+03  0.69505165251E+02  0.21610029391E+03  0.80072051543E+02 0.  0.
         13    1    3    3    0    0 -0.23657828955E+03 -0.19718148066E+03 -0.30476357877E+03  0.43327896597E+03  0.00000000000E+00 0. -1.
        -13    1    3    3    0    0 -0.18339434042E+03 -0.15093799958E+03 -0.13673582902E+03  0.27406650790E+03  0.00000000000E+00 0.  1.
          4    1    6    6  502    0 -0.13202313088E+03 -0.14014475633E+03  0.76182202284E+02  0.20706131400E+03  0.00000000000E+00 0. -1.
          3    1    5    5  503    0  0.53283298726E+03  0.45958629786E+03 -0.67852782854E+03  0.97751244063E+03  0.00000000000E+00 0. -1.
         -4    1    5    5    0  503  0.13072033250E+02  0.28525570058E+02 -0.17717530167E+02  0.36034664916E+02  0.00000000000E+00 0.  1.
         -3    1    6    6    0  502  0.60907403423E+01  0.15236865601E+00 -0.66770370330E+01  0.90389799018E+01  0.00000000000E+00 0.  1.
<mgrwt>
<rscale>  0 0.16157987E+04</rscale>
<asrwt>0</asrwt>
<pdfrwt beam="1">  1        2 0.23117173E+00 0.16157987E+04</pdfrwt>
<pdfrwt beam="2">  1       -2 0.66827175E-01 0.16157987E+04</pdfrwt>
<totfact> 0.24913329E+01</totfact>
</mgrwt>
</event>
<event>
12    1  0.1496989E-007  0.1809126E+04  0.7818608E-02  0.8701462E-01
         -2   -1    0    0    0  501 -0.00000000000E+00  0.00000000000E+00  0.74633078638E+03  0.74633078638E+03  0.00000000000E+00 0.  1.
          2   -1    0    0  501    0  0.00000000000E+00 -0.00000000000E+00 -0.10963422388E+04  0.10963422388E+04  0.00000000000E+00 0. -1.
         23    2    1    2    0    0  0.40703740399E+03  0.50184190693E+03 -0.34018385564E+03  0.73562500157E+03  0.88850095574E+02 0.  0.
        254    2    1    2    0    0 -0.40703740399E+03 -0.50184190693E+03 -0.98275967558E+01  0.11070480236E+04  0.89885148778E+03 0.  0.
        -24    2    4    4    0    0 -0.39347150798E+03  0.58165643892E+02  0.25843379366E+03  0.48087023803E+03  0.79025884375E+02 0.  0.
         24    2    4    4    0    0 -0.13565896014E+02 -0.56000755083E+03 -0.26826139041E+03  0.62617778556E+03  0.79636392623E+02 0.  0.
         13    1    3    3    0    0  0.18446583691E+03  0.16576049283E+03 -0.10858226974E+03  0.27072919176E+03  0.00000000000E+00 0. -1.
        -13    1    3    3    0    0  0.22257156708E+03  0.33608141411E+03 -0.23160158591E+03  0.46489580981E+03  0.00000000000E+00 0.  1.
          4    1    6    6  502    0 -0.38057083127E+02 -0.42469467321E+03 -0.22440721271E+03  0.48184282100E+03  0.00000000000E+00 0. -1.
          1    1    5    5  503    0 -0.39413681907E+03  0.57304900505E+02  0.24544600070E+03  0.46783696201E+03  0.00000000000E+00 0. -1.
         -2    1    5    5    0  503  0.66531108582E+00  0.86074338692E+00  0.12987792952E+02  0.13033276019E+02  0.00000000000E+00 0.  1.
         -3    1    6    6    0  502  0.24491187113E+02 -0.13531287761E+03 -0.43854177707E+02  0.14433496457E+03  0.00000000000E+00 0.  1.
<mgrwt>
<rscale>  0 0.18091257E+04</rscale>
<asrwt>0</asrwt>
<pdfrwt beam="1">  1        2 0.16866804E+00 0.18091257E+04</pdfrwt>
<pdfrwt beam="2">  1       -2 0.11482012E+00 0.18091257E+04</pdfrwt>
<totfact> 0.12230552E+01</totfact>
</mgrwt>
</event>
<event>
12    1  0.1496989E-007  0.1489255E+04  0.7818608E-02  0.8891630E-01
         -2   -1    0    0    0  501 -0.00000000000E+00  0.00000000000E+00  0.24600241421E+03  0.24600241421E+03  0.00000000000E+00 0. -1.
          2   -1    0    0  501    0  0.00000000000E+00 -0.00000000000E+00 -0.22539217600E+04  0.22539217600E+04  0.00000000000E+00 0.  1.
         23    2    1    2    0    0  0.11932571754E+03  0.79345183484E+02 -0.12972032069E+04  0.13082389158E+04  0.90656581526E+02 0.  0.
        254    2    1    2    0    0 -0.11932571754E+03 -0.79345183484E+02 -0.71071613890E+03  0.11916852584E+04  0.94576003303E+03 0.  0.
        -24    2    4    4    0    0 -0.27703360443E+03 -0.20329647974E+03  0.88598688218E+02  0.36379255454E+03  0.80113784862E+02 0.  0.
         24    2    4    4    0    0  0.15770788689E+03  0.12395129625E+03 -0.79931482712E+03  0.82789270390E+03  0.79160816669E+02 0.  0.
         11    1    3    3    0    0 -0.11233668989E+02 -0.66122449542E+01 -0.11891619282E+03  0.11962850002E+03  0.00000000000E+00 0. -1.
        -11    1    3    3    0    0  0.13055938653E+03  0.85957428438E+02 -0.11782870140E+04  0.11886104157E+04  0.00000000000E+00 0.  1.
          2    1    6    6  502    0  0.38778495038E+02  0.20297440887E+02 -0.77188462589E+02  0.88734528459E+02  0.00000000000E+00 0. -1.
          1    1    5    5  503    0 -0.55528573034E+01  0.31181474462E+01  0.12995882022E+02  0.14472388098E+02  0.00000000000E+00 0. -1.
         -2    1    5    5    0  503 -0.27148074713E+03 -0.20641462718E+03  0.75602806196E+02  0.34932016644E+03  0.00000000000E+00 0.  1.
         -1    1    6    6    0  502  0.11892939185E+03  0.10365385537E+03 -0.72212636453E+03  0.73915817544E+03  0.00000000000E+00 0.  1.
<mgrwt>
<rscale>  0 0.14892551E+04</rscale>
<asrwt>0</asrwt>
<pdfrwt beam="1">  1        2 0.34675721E+00 0.14892551E+04</pdfrwt>
<pdfrwt beam="2">  1       -2 0.37846524E-01 0.14892551E+04</pdfrwt>
<totfact> 0.30715213E+01</totfact>
</mgrwt>
</event>
<event>
12    1  0.1496989E-007  0.1480308E+04  0.7818608E-02  0.8897654E-01
         -1   -1    0    0    0  501 -0.00000000000E+00  0.00000000000E+00  0.39007169847E+03  0.39007169847E+03  0.00000000000E+00 0.  1.
          1   -1    0    0  501    0  0.00000000000E+00 -0.00000000000E+00 -0.14044291694E+04  0.14044291694E+04  0.00000000000E+00 0. -1.
         23    2    1    2    0    0 -0.33370268977E+03  0.29252014069E+03 -0.47770308380E+03  0.65835898934E+03  0.91163614979E+02 0.  0.
        254    2    1    2    0    0  0.33370268977E+03 -0.29252014069E+03 -0.53665438714E+03  0.11361418785E+04  0.89771650262E+03 0.  0.
        -24    2    4    4    0    0  0.50830462651E+03 -0.46323276716E+03 -0.21659220704E+03  0.72548368450E+03  0.80350497330E+02 0.  0.
         24    2    4    4    0    0 -0.17460193674E+03  0.17071262646E+03 -0.32006218010E+03  0.41065819405E+03  0.81066121538E+02 0.  0.
         13    1    3    3    0    0 -0.31582637353E+03  0.29528552933E+03 -0.47021435058E+03  0.63878116561E+03  0.00000000000E+00 0. -1.
        -13    1    3    3    0    0 -0.17876316239E+02 -0.27653886374E+01 -0.74887332270E+01  0.19577823728E+02  0.00000000000E+00 0.  1.
          4    1    6    6  502    0 -0.11972043245E+03  0.10157275743E+03 -0.26054703411E+03  0.30419527278E+03  0.00000000000E+00 0. -1.
          3    1    5    5  503    0  0.36867131713E+03 -0.34281478821E+03 -0.12088477120E+03  0.51773897573E+03  0.00000000000E+00 0. -1.
         -4    1    5    5    0  503  0.13963330938E+03 -0.12041797895E+03 -0.95707435844E+02  0.20774470876E+03  0.00000000000E+00 0.  1.
         -3    1    6    6    0  502 -0.54881504292E+02  0.69139869028E+02 -0.59515145989E+02  0.10646292127E+03  0.00000000000E+00 0.  1.
<mgrwt>
<rscale>  0 0.14803082E+04</rscale>
<asrwt>0</asrwt>
<pdfrwt beam="1">  1        1 0.21606603E+00 0.14803082E+04</pdfrwt>
<pdfrwt beam="2">  1       -1 0.60011031E-01 0.14803082E+04</pdfrwt>
<totfact> 0.20807052E+01</totfact>
</mgrwt>
</event>
<event>
12    1  0.1496989E-007  0.2242408E+04  0.7818608E-02  0.8500981E-01
          1   -1    0    0  501    0  0.00000000000E+00  0.00000000000E+00  0.77919202148E+03  0.77919202148E+03  0.00000000000E+00 0.  1.
         -1   -1    0    0    0  501 -0.00000000000E+00 -0.00000000000E+00 -0.16133358814E+04  0.16133358814E+04  0.00000000000E+00 0. -1.
         23    2    1    2    0    0 -0.54338051440E+02  0.85577614272E+03  0.56983719723E+02  0.86419720517E+03  0.91017772025E+02 0.  0.
        254    2    1    2    0    0  0.54338051440E+02 -0.85577614272E+03 -0.89112757962E+03  0.15283306977E+04  0.89798715361E+03 0.  0.
        -24    2    4    4    0    0  0.33431913987E+02 -0.45997283789E+03  0.81081507481E+02  0.47537421819E+03  0.81937366325E+02 0.  0.
         24    2    4    4    0    0  0.20906137453E+02 -0.39580330483E+03 -0.97220908710E+03  0.10529564795E+04  0.80184262566E+02 0.  0.
         13    1    3    3    0    0 -0.68100208914E+02  0.71488969351E+03  0.22392202775E+02  0.71847499824E+03  0.00000000000E+00 0.  1.
        -13    1    3    3    0    0  0.13762157473E+02  0.14088644921E+03  0.34591516948E+02  0.14572220694E+03  0.00000000000E+00 0. -1.
          4    1    6    6  502    0  0.32392179041E+02 -0.32824248924E+03 -0.72648617466E+03  0.79785621949E+03  0.00000000000E+00 0. -1.
          3    1    5    5  503    0  0.87169957050E+01 -0.34751431700E+03  0.92351260602E+02  0.35968172302E+03  0.00000000000E+00 0. -1.
         -4    1    5    5    0  503  0.24714918282E+02 -0.11245852089E+03 -0.11269753120E+02  0.11569249518E+03  0.00000000000E+00 0.  1.
         -3    1    6    6    0  502 -0.11486041588E+02 -0.67560815591E+02 -0.24572291244E+03  0.25510026001E+03  0.00000000000E+00 0.  1.
<mgrwt>
<rscale>  0 0.22424080E+04</rscale>
<asrwt>0</asrwt>
<pdfrwt beam="1">  1        1 0.11987570E+00 0.22424080E+04</pdfrwt>
<pdfrwt beam="2">  1       -1 0.24820552E+00 0.22424080E+04</pdfrwt>
<totfact> 0.15004455E+00</totfact>
</mgrwt>
</event>
<event>
12    1  0.1496989E-007  0.1630744E+04  0.7818608E-02  0.8801880E-01
         -1   -1    0    0    0  501 -0.00000000000E+00  0.00000000000E+00  0.15819867460E+04  0.15819867460E+04  0.00000000000E+00 0.  1.
          1   -1    0    0  501    0  0.00000000000E+00 -0.00000000000E+00 -0.42025097044E+03  0.42025097044E+03  0.00000000000E+00 0. -1.
         23    2    1    2    0    0  0.33646940039E+03  0.22998586756E+03 -0.64790105979E+02  0.42492602814E+03  0.10128778248E+03 0.  0.
        254    2    1    2    0    0 -0.33646940039E+03 -0.22998586756E+03  0.12265258815E+04  0.15773116883E+04  0.90412458614E+03 0.  0.
        -24    2    4    4    0    0 -0.53051989044E+03  0.91804322434E+02  0.43102087073E+03  0.69392300435E+03  0.76620866593E+02 0.  0.
         24    2    4    4    0    0  0.19405049005E+03 -0.32179019000E+03  0.79550501076E+03  0.88338868390E+03  0.79641858515E+02 0.  0.
         11    1    3    3    0    0  0.10688829035E+02  0.30310047563E+02 -0.25074343335E+02  0.40763620338E+02  0.00000000000E+00 0.  1.
        -11    1    3    3    0    0  0.32578057135E+03  0.19967582000E+03 -0.39715762644E+02  0.38416240780E+03  0.00000000000E+00 0. -1.
          2    1    6    6  502    0  0.50637361643E+02 -0.37740368794E+02  0.17510379381E+03  0.18614461163E+03  0.00000000000E+00 0. -1.
          1    1    5    5  503    0 -0.26583995360E+02  0.10962508156E+02  0.47425238197E+02  0.55462046594E+02  0.00000000000E+00 0. -1.
         -2    1    5    5    0  503 -0.50393589508E+03  0.80841814277E+02  0.38359563253E+03  0.63846095776E+03  0.00000000000E+00 0.  1.
         -1    1    6    6    0  502  0.14341312841E+03 -0.28404982120E+03  0.62040121695E+03  0.69724407228E+03  0.00000000000E+00 0.  1.
<mgrwt>
<rscale>  0 0.16307440E+04</rscale>
<asrwt>0</asrwt>
<pdfrwt beam="1">  1        1 0.64653996E-01 0.16307440E+04</pdfrwt>
<pdfrwt beam="2">  1       -1 0.24338257E+00 0.16307440E+04</pdfrwt>
<totfact> 0.41412213E+00</totfact>
</mgrwt>
</event>
<event>
12    1  0.1496989E-007  0.1339060E+04  0.7818608E-02  0.8999151E-01
          1   -1    0    0  501    0  0.00000000000E+00  0.00000000000E+00  0.66592367823E+03  0.66592367823E+03  0.00000000000E+00 0. -1.
         -1   -1    0    0    0  501 -0.00000000000E+00 -0.00000000000E+00 -0.67315562627E+03  0.67315562627E+03  0.00000000000E+00 0.  1.
         23    2    1    2    0    0  0.43163041008E+02 -0.56229212258E+02 -0.35456860309E+03  0.37284597748E+03  0.90942048605E+02 0.  0.
        254    2    1    2    0    0 -0.43163041008E+02  0.56229212258E+02  0.34733665506E+03  0.96623332703E+03  0.89885444756E+03 0.  0.
        -24    2    4    4    0    0  0.30477467438E+03 -0.22519929873E+03  0.33466678825E+03  0.51129180016E+03  0.76256930600E+02 0.  0.
         24    2    4    4    0    0 -0.34793771539E+03  0.28142851099E+03  0.12669866808E+02  0.45494152687E+03  0.80923462347E+02 0.  0.
         13    1    3    3    0    0  0.49518427924E+01  0.11145763605E+02 -0.19591672498E+03  0.19629598039E+03  0.00000000000E+00 0. -1.
        -13    1    3    3    0    0  0.38211198216E+02 -0.67374975862E+02 -0.15865187811E+03  0.17654999709E+03  0.00000000000E+00 0.  1.
          4    1    6    6  502    0 -0.81579393023E+02  0.10648473297E+03 -0.15458163241E+02  0.13503018378E+03  0.00000000000E+00 0. -1.
          1    1    5    5  503    0  0.16152956637E+03 -0.11832932984E+03  0.22680760312E+03  0.30254804568E+03  0.00000000000E+00 0. -1.
         -4    1    5    5    0  503  0.14324510800E+03 -0.10686996889E+03  0.10785918513E+03  0.20874375448E+03  0.00000000000E+00 0.  1.
         -3    1    6    6    0  502 -0.26635832236E+03  0.17494377802E+03  0.28128030049E+02  0.31991134308E+03  0.00000000000E+00 0.  1.
<mgrwt>
<rscale>  0 0.13390598E+04</rscale>
<asrwt>0</asrwt>
<pdfrwt beam="1">  1        1 0.10244980E+00 0.13390598E+04</pdfrwt>
<pdfrwt beam="2">  1       -1 0.10356240E+00 0.13390598E+04</pdfrwt>
<totfact> 0.25312265E+01</totfact>
</mgrwt>
</event>
<event>
12    1  0.1496989E-007  0.1621794E+04  0.7818608E-02  0.8807270E-01
          2   -1    0    0  501    0  0.00000000000E+00  0.00000000000E+00  0.12948447663E+04  0.12948447663E+04  0.00000000000E+00 0. -1.
         -2   -1    0    0    0  501 -0.00000000000E+00 -0.00000000000E+00 -0.50782468709E+03  0.50782468709E+03  0.00000000000E+00 0.  1.
         23    2    1    2    0    0 -0.47067400706E+03  0.31552700298E+03  0.24836728990E+03  0.62537158997E+03  0.91170194218E+02 0.  0.
        254    2    1    2    0    0  0.47067400706E+03 -0.31552700298E+03  0.53865278936E+03  0.11772978635E+04  0.88022276800E+03 0.  0.
        -24    2    4    4    0    0 -0.48440554972E+02 -0.37099759523E+03  0.52307680677E+03  0.64909606651E+03  0.87924142024E+02 0.  0.
         24    2    4    4    0    0  0.51911456203E+03  0.55470592249E+02  0.15575982591E+02  0.52820179696E+03  0.78724913192E+02 0.  0.
         13    1    3    3    0    0 -0.46834060165E+03  0.31914227210E+03  0.25151129566E+03  0.62004245084E+03  0.00000000000E+00 0.  1.
        -13    1    3    3    0    0 -0.23334054130E+01 -0.36152691216E+01 -0.31440057618E+01  0.53291391306E+01  0.00000000000E+00 0. -1.
          4    1    6    6  502    0  0.92305466368E+02  0.23006438032E+02  0.30501659666E+02  0.99899682455E+02  0.00000000000E+00 0. -1.
          3    1    5    5  503    0  0.16687999834E+02 -0.67861573864E+02  0.13821600814E+03  0.15487849254E+03  0.00000000000E+00 0. -1.
         -4    1    5    5    0  503 -0.65128554806E+02 -0.30313602137E+03  0.38486079863E+03  0.49421757397E+03  0.00000000000E+00 0.  1.
         -3    1    6    6    0  502  0.42680909566E+03  0.32464154217E+02 -0.14925677074E+02  0.42830211450E+03  0.00000000000E+00 0.  1.
<mgrwt>
<rscale>  0 0.16217942E+04</rscale>
<asrwt>0</asrwt>
<pdfrwt beam="1">  1        2 0.19920689E+00 0.16217942E+04</pdfrwt>
<pdfrwt beam="2">  1       -2 0.78126876E-01 0.16217942E+04</pdfrwt>
<totfact> 0.23233838E+01</totfact>
</mgrwt>
</event>
<event>
12    1  0.1496989E-007  0.1463009E+04  0.7818608E-02  0.8909431E-01
         -2   -1    0    0    0  501 -0.00000000000E+00  0.00000000000E+00  0.86150379086E+03  0.86150379086E+03  0.00000000000E+00 0.  1.
          2   -1    0    0  501    0  0.00000000000E+00 -0.00000000000E+00 -0.62112182731E+03  0.62112182731E+03  0.00000000000E+00 0. -1.
         23    2    1    2    0    0  0.30672967744E+02  0.44302898185E+03  0.14446638032E+02  0.45346989916E+03  0.90613102720E+02 0.  0.
        254    2    1    2    0    0 -0.30672967744E+02 -0.44302898185E+03  0.22593532551E+03  0.10291557190E+04  0.90049942418E+03 0.  0.
        -24    2    4    4    0    0  0.99724155212E+02 -0.48743858229E+03  0.50214238937E+03  0.71163296858E+03  0.82056225471E+02 0.  0.
         24    2    4    4    0    0 -0.13039712296E+03  0.44409600440E+02 -0.27620706385E+03  0.31752275043E+03  0.74530078685E+02 0.  0.
         13    1    3    3    0    0  0.49150012837E+01  0.41088148487E+03  0.38249274495E+01  0.41092868228E+03  0.00000000000E+00 0. -1.
        -13    1    3    3    0    0  0.25757966460E+02  0.32147496976E+02  0.10621710583E+02  0.42541216881E+02  0.00000000000E+00 0.  1.
          2    1    6    6  502    0 -0.32068786776E+02  0.11516978818E+02 -0.16450314257E+02  0.37837292788E+02  0.00000000000E+00 0. -1.
          1    1    5    5  503    0  0.26377492745E+02 -0.43522020552E+02  0.28408768882E+02  0.58283758852E+02  0.00000000000E+00 0. -1.
         -2    1    5    5    0  503  0.73346662467E+02 -0.44391656174E+03  0.47373362049E+03  0.65334920973E+03  0.00000000000E+00 0.  1.
         -1    1    6    6    0  502 -0.98328336180E+02  0.32892621622E+02 -0.25975674960E+03  0.27968545764E+03  0.00000000000E+00 0.  1.
<mgrwt>
<rscale>  0 0.14630090E+04</rscale>
<asrwt>0</asrwt>
<pdfrwt beam="1">  1        2 0.95557204E-01 0.14630090E+04</pdfrwt>
<pdfrwt beam="2">  1       -2 0.13253904E+00 0.14630090E+04</pdfrwt>
<totfact> 0.19040247E+01</totfact>
</mgrwt>
</event>
<event>
12    1  0.1496989E-007  0.2126156E+04  0.7818608E-02  0.8549808E-01
          1   -1    0    0  501    0  0.00000000000E+00  0.00000000000E+00  0.10482000799E+04  0.10482000799E+04  0.00000000000E+00 0. -1.
         -1   -1    0    0    0  501 -0.00000000000E+00 -0.00000000000E+00 -0.10781667149E+04  0.10781667149E+04  0.00000000000E+00 0.  1.
         23    2    1    2    0    0 -0.12584273500E+03 -0.68327451759E+03  0.51607118167E+03  0.87049212209E+03  0.93416324738E+02 0.  0.
        254    2    1    2    0    0  0.12584273500E+03  0.68327451759E+03 -0.54603781666E+03  0.12558746726E+04  0.89239197431E+03 0.  0.
        -24    2    4    4    0    0 -0.36069412156E+03  0.15068231944E+03 -0.25565896035E+03  0.47410623909E+03  0.81300745483E+02 0.  0.
         24    2    4    4    0    0  0.48653685656E+03  0.53259219815E+03 -0.29037885631E+03  0.78176843356E+03  0.80432836527E+02 0.  0.
         13    1    3    3    0    0 -0.26769921299E+02 -0.40043654986E+03  0.29493542254E+03  0.49804915683E+03  0.00000000000E+00 0. -1.
        -13    1    3    3    0    0 -0.99072813703E+02 -0.28283796773E+03  0.22113575913E+03  0.37244296526E+03  0.00000000000E+00 0.  1.
          4    1    6    6  502    0  0.43390704574E+03  0.44926382094E+03 -0.27319308101E+03  0.68172411184E+03  0.00000000000E+00 0. -1.
          1    1    5    5  503    0 -0.23053822163E+03  0.13060615521E+03 -0.14471222909E+03  0.30190639055E+03  0.00000000000E+00 0. -1.
         -2    1    5    5    0  503 -0.13015589993E+03  0.20076164228E+02 -0.11094673126E+03  0.17219984853E+03  0.00000000000E+00 0.  1.
         -3    1    6    6    0  502  0.52629810821E+02  0.83328377215E+02 -0.17185775298E+02  0.10004432172E+03  0.00000000000E+00 0.  1.
<mgrwt>
<rscale>  0 0.21261556E+04</rscale>
<asrwt>0</asrwt>
<pdfrwt beam="1">  1        1 0.16126155E+00 0.21261556E+04</pdfrwt>
<pdfrwt beam="2">  1       -1 0.16587180E+00 0.21261556E+04</pdfrwt>
<totfact> 0.33633899E+00</totfact>
</mgrwt>
</event>
<event>
12    1  0.1496989E-007  0.1766254E+04  0.7818608E-02  0.8724454E-01
         -1   -1    0    0    0  501 -0.00000000000E+00  0.00000000000E+00  0.23452776231E+03  0.23452776231E+03  0.00000000000E+00 0.  1.
          1   -1    0    0  501    0  0.00000000000E+00 -0.00000000000E+00 -0.33254619226E+04  0.33254619226E+04  0.00000000000E+00 0. -1.
         23    2    1    2    0    0  0.33417320783E+03 -0.23664421236E+02 -0.56738976444E+02  0.35145701806E+03  0.89838668908E+02 0.  0.
        254    2    1    2    0    0 -0.33417320783E+03  0.23664421236E+02 -0.30341951838E+04  0.32085326669E+04  0.98798265319E+03 0.  0.
        -24    2    4    4    0    0 -0.22008758573E+03 -0.43349373931E+03 -0.95143128545E+03  0.10716006680E+04  0.82165280267E+02 0.  0.
         24    2    4    4    0    0 -0.11408562210E+03  0.45715816054E+03 -0.20827638984E+04  0.21369319989E+04  0.81017272551E+02 0.  0.
         11    1    3    3    0    0  0.31552351338E+03 -0.44713910050E+02 -0.50534992329E+02  0.32265803368E+03  0.00000000000E+00 0.  1.
        -11    1    3    3    0    0  0.18649694448E+02  0.21049488814E+02 -0.62039841152E+01  0.28798984378E+02  0.00000000000E+00 0. -1.
          4    1    6    6  502    0 -0.28469208971E+02  0.23830052175E+03 -0.93090364518E+03  0.96134241097E+03  0.00000000000E+00 0. -1.
          3    1    5    5  503    0 -0.15504466400E+03 -0.26393066249E+03 -0.67066740562E+03  0.73721978500E+03  0.00000000000E+00 0. -1.
         -4    1    5    5    0  503 -0.65042921725E+02 -0.16956307682E+03 -0.28076387984E+03  0.33438088299E+03  0.00000000000E+00 0.  1.
         -3    1    6    6    0  502 -0.85616413128E+02  0.21885763879E+03 -0.11518602532E+04  0.11755895879E+04  0.00000000000E+00 0.  1.
<mgrwt>
<rscale>  0 0.17662538E+04</rscale>
<asrwt>0</asrwt>
<pdfrwt beam="1">  1        1 0.51160951E+00 0.17662538E+04</pdfrwt>
<pdfrwt beam="2">  1       -1 0.36081195E-01 0.17662538E+04</pdfrwt>
<totfact> 0.23873376E+00</totfact>
</mgrwt>
</event>
<event>
12    1  0.1496989E-007  0.1576606E+04  0.7818608E-02  0.8835050E-01
         -2   -1    0    0    0  501 -0.00000000000E+00  0.00000000000E+00  0.62954459004E+03  0.62954459004E+03  0.00000000000E+00 0.  1.
          2   -1    0    0  501    0  0.00000000000E+00 -0.00000000000E+00 -0.98709747167E+03  0.98709747167E+03  0.00000000000E+00 0. -1.
         23    2    1    2    0    0  0.36588242586E+03 -0.34277830641E+03  0.41641275577E+02  0.51135983245E+03  0.91585836846E+02 0.  0.
        254    2    1    2    0    0 -0.36588242586E+03  0.34277830641E+03 -0.39919415721E+03  0.11052822293E+04  0.90051424991E+03 0.  0.
        -24    2    4    4    0    0  0.88418016577E+02 -0.77559268602E+02 -0.45706415914E+03  0.47862748384E+03  0.79645696180E+02 0.  0.
         24    2    4    4    0    0 -0.45430044244E+03  0.42033757501E+03  0.57870001924E+02  0.62665474543E+03  0.79212776001E+02 0.  0.
         11    1    3    3    0    0  0.89084719642E+02 -0.39081674625E+02 -0.72468737931E+01  0.97549893619E+02  0.00000000000E+00 0. -1.
        -11    1    3    3    0    0  0.27679770622E+03 -0.30369663178E+03  0.48888149371E+02  0.41380993883E+03  0.00000000000E+00 0.  1.
          2    1    6    6  502    0 -0.40791841379E+02  0.38571742458E+02 -0.17578486535E+02  0.58828197560E+02  0.00000000000E+00 0. -1.
          3    1    5    5  503    0  0.12854709085E+02  0.13909614989E+02 -0.11553870599E+03  0.11708079910E+03  0.00000000000E+00 0. -1.
         -4    1    5    5    0  503  0.75563307492E+02 -0.91468883591E+02 -0.34152545314E+03  0.36154668474E+03  0.00000000000E+00 0.  1.
         -1    1    6    6    0  502 -0.41350860106E+03  0.38176583255E+03  0.75448488460E+02  0.56782654787E+03  0.00000000000E+00 0.  1.
<mgrwt>
<rscale>  0 0.15766063E+04</rscale>
<asrwt>0</asrwt>
<pdfrwt beam="1">  1        2 0.15186115E+00 0.15766063E+04</pdfrwt>
<pdfrwt beam="2">  1       -2 0.96853014E-01 0.15766063E+04</pdfrwt>
<totfact> 0.21975191E+01</totfact>
</mgrwt>
</event>
<event>
12    1  0.1496989E-007  0.1962116E+04  0.7818608E-02  0.8624540E-01
         -2   -1    0    0    0  501 -0.00000000000E+00  0.00000000000E+00  0.30637625084E+03  0.30637625084E+03  0.00000000000E+00 0.  1.
          2   -1    0    0  501    0  0.00000000000E+00 -0.00000000000E+00 -0.31414797760E+04  0.31414797760E+04  0.00000000000E+00 0. -1.
         23    2    1    2    0    0 -0.63429119824E+03 -0.12768247799E+02 -0.35012191669E+03  0.73026267146E+03  0.90608280366E+02 0.  0.
        254    2    1    2    0    0  0.63429119824E+03  0.12768247799E+02 -0.24849816085E+04  0.27175933554E+04  0.89871669529E+03 0.  0.
        -24    2    4    4    0    0 -0.19566488428E+03 -0.75614697519E+02 -0.28466757353E+03  0.36263946005E+03  0.80432711874E+02 0.  0.
         24    2    4    4    0    0  0.82995608252E+03  0.88382945318E+02 -0.22003140350E+04  0.23549538954E+04  0.88245978932E+02 0.  0.
         11    1    3    3    0    0 -0.59659739586E+03 -0.34025317838E+02 -0.32517703540E+03  0.68031336850E+03  0.00000000000E+00 0.  1.
        -11    1    3    3    0    0 -0.37693802375E+02  0.21257070040E+02 -0.24944881292E+02  0.49949302966E+02  0.00000000000E+00 0. -1.
          2    1    6    6  502    0  0.74724286138E+03  0.86848880716E+02 -0.19015176387E+04  0.20449166125E+04  0.00000000000E+00 0. -1.
          1    1    5    5  503    0 -0.17889971632E+03 -0.62916985077E+02 -0.20088624094E+03  0.27625882304E+03  0.00000000000E+00 0. -1.
         -2    1    5    5    0  503 -0.16765167966E+02 -0.12697712442E+02 -0.83781332594E+02  0.86380637005E+02  0.00000000000E+00 0.  1.
         -1    1    6    6    0  502  0.82713221147E+02  0.15340646019E+01 -0.29879639631E+03  0.31003728285E+03  0.00000000000E+00 0.  1.
<mgrwt>
<rscale>  0 0.19621160E+04</rscale>
<asrwt>0</asrwt>
<pdfrwt beam="1">  1        2 0.48330459E+00 0.19621160E+04</pdfrwt>
<pdfrwt beam="2">  1       -2 0.47134807E-01 0.19621160E+04</pdfrwt>
<totfact> 0.56463759E+00</totfact>
</mgrwt>
</event>
<event>
12    1  0.1496989E-007  0.1538160E+04  0.7818608E-02  0.8859466E-01
         -2   -1    0    0    0  501 -0.00000000000E+00  0.00000000000E+00  0.32179410592E+03  0.32179410592E+03  0.00000000000E+00 0.  1.
          2   -1    0    0  501    0  0.00000000000E+00 -0.00000000000E+00 -0.18380822179E+04  0.18380822179E+04  0.00000000000E+00 0. -1.
         23    2    1    2    0    0 -0.17407570780E+03 -0.30834909051E+02  0.15358058241E+03  0.25270453077E+03  0.94970737156E+02 0.  0.
        254    2    1    2    0    0  0.17407570780E+03  0.30834909051E+02 -0.16698686944E+04  0.19071717931E+04  0.90420664013E+03 0.  0.
        -24    2    4    4    0    0  0.48459590010E+03  0.19614098022E+03 -0.73701073389E+03  0.90718554511E+03  0.80599757302E+02 0.  0.
         24    2    4    4    0    0 -0.31052019231E+03 -0.16530607117E+03 -0.93285796053E+03  0.99998624796E+03  0.77457308221E+02 0.  0.
         13    1    3    3    0    0 -0.18231718979E+03 -0.34614397475E+02  0.15693652761E+03  0.24303659787E+03  0.00000000000E+00 0.  1.
        -13    1    3    3    0    0  0.82414819973E+01  0.37794884238E+01 -0.33559452015E+01  0.96679328945E+01  0.00000000000E+00 0. -1.
          4    1    6    6  502    0 -0.28989910493E+03 -0.12762221098E+03 -0.80332045139E+03  0.86351182238E+03  0.00000000000E+00 0. -1.
          3    1    5    5  503    0  0.40146753855E+03  0.15344013170E+03 -0.65161706196E+03  0.78059262997E+03  0.00000000000E+00 0. -1.
         -4    1    5    5    0  503  0.83128361558E+02  0.42700848519E+02 -0.85393671925E+02  0.12659291514E+03  0.00000000000E+00 0.  1.
         -3    1    6    6    0  502 -0.20621087377E+02 -0.37683860187E+02 -0.12953750914E+03  0.13647442558E+03  0.00000000000E+00 0.  1.
<mgrwt>
<rscale>  0 0.15381600E+04</rscale>
<asrwt>0</asrwt>
<pdfrwt beam="1">  1        2 0.28278187E+00 0.15381600E+04</pdfrwt>
<pdfrwt beam="2">  1       -2 0.49506787E-01 0.15381600E+04</pdfrwt>
<totfact> 0.30577279E+01</totfact>
</mgrwt>
</event>
<event>
12    1  0.1496989E-007  0.1930338E+04  0.7818608E-02  0.8639901E-01
          1   -1    0    0  501    0  0.00000000000E+00  0.00000000000E+00  0.84160236397E+03  0.84160236397E+03  0.00000000000E+00 0. -1.
         -1   -1    0    0    0  501 -0.00000000000E+00 -0.00000000000E+00 -0.11068785960E+04  0.11068785960E+04  0.00000000000E+00 0.  1.
         23    2    1    2    0    0 -0.64039130348E+03 -0.34154378601E+02  0.29302558552E+03  0.71110354583E+03  0.92394350337E+02 0.  0.
        254    2    1    2    0    0  0.64039130348E+03  0.34154378601E+02 -0.55830181756E+03  0.12373774142E+04  0.89896295943E+03 0.  0.
        -24    2    4    4    0    0  0.18210291274E+03 -0.41130237360E+03 -0.27695457685E+03  0.53450552270E+03  0.81616192038E+02 0.  0.
         24    2    4    4    0    0  0.45828839074E+03  0.44545675220E+03 -0.28134724071E+03  0.70287189145E+03  0.80079078250E+02 0.  0.
         13    1    3    3    0    0 -0.98170110975E+02 -0.38668045643E+02  0.41731959606E+02  0.11346428907E+03  0.00000000000E+00 0.  1.
        -13    1    3    3    0    0 -0.54222119250E+03  0.45136670421E+01  0.25129362591E+03  0.59763925675E+03  0.00000000000E+00 0. -1.
          4    1    6    6  502    0  0.22599270845E+03  0.22854420836E+03 -0.98315103206E+02  0.33611161683E+03  0.00000000000E+00 0. -1.
          1    1    5    5  503    0  0.16682654194E+03 -0.33136429874E+03 -0.25511617492E+03  0.45024177537E+03  0.00000000000E+00 0. -1.
         -2    1    5    5    0  503  0.15276370803E+02 -0.79938074856E+02 -0.21838401930E+02  0.84263747338E+02  0.00000000000E+00 0.  1.
         -3    1    6    6    0  502  0.23229568229E+03  0.21691254384E+03 -0.18303213750E+03  0.36676027463E+03  0.00000000000E+00 0.  1.
<mgrwt>
<rscale>  0 0.19303385E+04</rscale>
<asrwt>0</asrwt>
<pdfrwt beam="1">  1        1 0.12947729E+00 0.19303385E+04</pdfrwt>
<pdfrwt beam="2">  1       -1 0.17028901E+00 0.19303385E+04</pdfrwt>
<totfact> 0.46520051E+00</totfact>
</mgrwt>
</event>
<event>
12    1  0.1496989E-007  0.1409503E+04  0.7818608E-02  0.8946969E-01
         -1   -1    0    0    0  501 -0.00000000000E+00  0.00000000000E+00  0.69117689573E+03  0.69117689573E+03  0.00000000000E+00 0.  1.
          1   -1    0    0  501    0  0.00000000000E+00 -0.00000000000E+00 -0.71859226515E+03  0.71859226515E+03  0.00000000000E+00 0. -1.
         23    2    1    2    0    0  0.25916567498E+03  0.16424037511E+03  0.25326565027E+03  0.40900749751E+03  0.94878319518E+02 0.  0.
        254    2    1    2    0    0 -0.25916567498E+03 -0.16424037511E+03 -0.28068101969E+03  0.10007616634E+04  0.91027486187E+03 0.  0.
        -24    2    4    4    0    0 -0.53411733544E+03 -0.27955603181E+03 -0.32399886445E+03  0.68860036815E+03  0.75909814350E+02 0.  0.
         24    2    4    4    0    0  0.27495166046E+03  0.11531565671E+03  0.43317844762E+02  0.31216129522E+03  0.81683059954E+02 0.  0.
         11    1    3    3    0    0  0.48828159991E+02  0.11157959799E+01  0.71873630477E+02  0.86897945699E+02  0.00000000000E+00 0. -1.
        -11    1    3    3    0    0  0.21033751498E+03  0.16312457913E+03  0.18139201979E+03  0.32210955181E+03  0.00000000000E+00 0.  1.
          2    1    6    6  502    0  0.17210360746E+03  0.10883578335E+03  0.47231028158E+02  0.20903504362E+03  0.00000000000E+00 0. -1.
          3    1    5    5  503    0 -0.51579974487E+03 -0.26392829973E+03 -0.29277947576E+03  0.64917435688E+03  0.00000000000E+00 0. -1.
         -4    1    5    5    0  503 -0.18317590564E+02 -0.15627732087E+02 -0.31219388692E+02  0.39426011269E+02  0.00000000000E+00 0.  1.
         -1    1    6    6    0  502  0.10284805300E+03  0.64798733561E+01 -0.39131833961E+01  0.10312625160E+03  0.00000000000E+00 0.  1.
<mgrwt>
<rscale>  0 0.14095026E+04</rscale>
<asrwt>0</asrwt>
<pdfrwt beam="1">  1        1 0.11055265E+00 0.14095026E+04</pdfrwt>
<pdfrwt beam="2">  1       -1 0.10633491E+00 0.14095026E+04</pdfrwt>
<totfact> 0.21087632E+01</totfact>
</mgrwt>
</event>
<event>
12    1  0.1496989E-007  0.1807071E+04  0.7818608E-02  0.8702548E-01
         -1   -1    0    0    0  501 -0.00000000000E+00  0.00000000000E+00  0.53433876262E+03  0.53433876262E+03  0.00000000000E+00 0.  1.
          1   -1    0    0  501    0  0.00000000000E+00 -0.00000000000E+00 -0.15278251503E+04  0.15278251503E+04  0.00000000000E+00 0. -1.
         23    2    1    2    0    0 -0.12223205418E+03 -0.29480747855E+03  0.29991914683E+03  0.44811086952E+03  0.94866918715E+02 0.  0.
        254    2    1    2    0    0  0.12223205418E+03  0.29480747855E+03 -0.12934055345E+04  0.16140530434E+04  0.91127231153E+03 0.  0.
        -24    2    4    4    0    0 -0.75426875552E+01  0.59321236230E+03 -0.61946809198E+03  0.86133543213E+03  0.78741417012E+02 0.  0.
         24    2    4    4    0    0  0.12977474174E+03 -0.29840488374E+03 -0.67393744254E+03  0.75271761128E+03  0.80654619480E+02 0.  0.
         11    1    3    3    0    0 -0.52384654987E+02 -0.20854884149E+03  0.23902592011E+03  0.32151230435E+03  0.00000000000E+00 0.  1.
        -11    1    3    3    0    0 -0.69847399195E+02 -0.86258637062E+02  0.60893226717E+02  0.12659856517E+03  0.00000000000E+00 0. -1.
          4    1    6    6  502    0  0.73429978032E+02 -0.90334194633E+02 -0.28837845340E+03  0.31098932583E+03  0.00000000000E+00 0. -1.
          1    1    5    5  503    0 -0.76805144915E+00  0.25821766214E+03 -0.32638593577E+03  0.41617872364E+03  0.00000000000E+00 0. -1.
         -2    1    5    5    0  503 -0.67746361061E+01  0.33499470016E+03 -0.29308215621E+03  0.44515670849E+03  0.00000000000E+00 0.  1.
         -3    1    6    6    0  502  0.56344763705E+02 -0.20807068911E+03 -0.38555898914E+03  0.44172828545E+03  0.00000000000E+00 0.  1.
<mgrwt>
<rscale>  0 0.18070708E+04</rscale>
<asrwt>0</asrwt>
<pdfrwt beam="1">  1        1 0.23505002E+00 0.18070708E+04</pdfrwt>
<pdfrwt beam="2">  1       -1 0.82205965E-01 0.18070708E+04</pdfrwt>
<totfact> 0.86838876E+00</totfact>
</mgrwt>
</event>
<event>
12    1  0.1496989E-007  0.1964553E+04  0.7818608E-02  0.8623375E-01
         -4   -1    0    0    0  501 -0.00000000000E+00  0.00000000000E+00  0.15284564704E+04  0.15284564704E+04  0.00000000000E+00 0.  1.
          4   -1    0    0  501    0  0.00000000000E+00 -0.00000000000E+00 -0.63126916789E+03  0.63126916789E+03  0.00000000000E+00 0. -1.
         23    2    1    2    0    0 -0.46751793220E+03  0.59911490270E+03  0.50401584165E+03  0.91656527221E+03  0.92456725077E+02 0.  0.
        254    2    1    2    0    0  0.46751793220E+03 -0.59911490270E+03  0.39317146086E+03  0.12431603661E+04  0.90186041858E+03 0.  0.
        -24    2    4    4    0    0  0.54192273755E+02 -0.71862878995E+03  0.14403101607E+03  0.73966801258E+03  0.83664179635E+02 0.  0.
         24    2    4    4    0    0  0.41332565845E+03  0.11951388725E+03  0.24914044479E+03  0.50349235351E+03  0.79447590483E+02 0.  0.
         13    1    3    3    0    0 -0.97057117409E+02  0.16896516027E+03  0.16515825793E+03  0.25543406113E+03  0.00000000000E+00 0. -1.
        -13    1    3    3    0    0 -0.37046081479E+03  0.43014974243E+03  0.33885758373E+03  0.66113121107E+03  0.00000000000E+00 0.  1.
          2    1    6    6  502    0  0.19310753745E+03  0.70772218873E+02  0.76415883209E+02  0.21940513939E+03  0.00000000000E+00 0. -1.
          1    1    5    5  503    0  0.26749519702E+02 -0.63506102515E+03  0.14390024348E+03  0.65170953847E+03  0.00000000000E+00 0. -1.
         -2    1    5    5    0  503  0.27442754053E+02 -0.83567764809E+02  0.13077258641E+00  0.87958474104E+02  0.00000000000E+00 0.  1.
         -1    1    6    6    0  502  0.22021812100E+03  0.48741668382E+02  0.17272456158E+03  0.28408721412E+03  0.00000000000E+00 0.  1.
<mgrwt>
<rscale>  0 0.19645533E+04</rscale>
<asrwt>0</asrwt>
<pdfrwt beam="1">  1        4 0.97118334E-01 0.19645533E+04</pdfrwt>
<pdfrwt beam="2">  1       -4 0.23514715E+00 0.19645533E+04</pdfrwt>
<totfact> 0.12904406E-01</totfact>
</mgrwt>
</event>
<event>
12    1  0.1496989E-007  0.1556763E+04  0.7818608E-02  0.8847559E-01
          2   -1    0    0  501    0  0.00000000000E+00  0.00000000000E+00  0.20406773669E+04  0.20406773669E+04  0.00000000000E+00 0. -1.
         -2   -1    0    0    0  501 -0.00000000000E+00 -0.00000000000E+00 -0.29690043806E+03  0.29690043806E+03  0.00000000000E+00 0.  1.
         23    2    1    2    0    0 -0.43916084935E+03 -0.25960086263E+03  0.57997989627E+03  0.77787713761E+03  0.91985333976E+02 0.  0.
        254    2    1    2    0    0  0.43916084935E+03  0.25960086263E+03  0.11637970326E+04  0.15597006674E+04  0.90442676831E+03 0.  0.
        -24    2    4    4    0    0 -0.12805297881E+03  0.24734913671E+03  0.32227522182E+02  0.29136495606E+03  0.79219717372E+02 0.  0.
         24    2    4    4    0    0  0.56721382816E+03  0.12251725921E+02  0.11315695104E+04  0.12683357113E+04  0.79651039170E+02 0.  0.
         11    1    3    3    0    0 -0.30549969144E+03 -0.13433924547E+03  0.34602129632E+03  0.48073675942E+03  0.00000000000E+00 0.  1.
        -11    1    3    3    0    0 -0.13366115791E+03 -0.12526161716E+03  0.23395859994E+03  0.29714037819E+03  0.00000000000E+00 0. -1.
          2    1    6    6  502    0  0.21903196689E+03  0.65678636706E+01  0.35372419607E+03  0.41609968305E+03  0.00000000000E+00 0. -1.
          3    1    5    5  503    0 -0.27883074264E+02  0.64449355275E+01  0.49446597791E+01  0.29042256880E+02  0.00000000000E+00 0. -1.
         -4    1    5    5    0  503 -0.10016990455E+03  0.24090420118E+03  0.27282862403E+02  0.26232269918E+03  0.00000000000E+00 0.  1.
         -1    1    6    6    0  502  0.34818186127E+03  0.56838622509E+01  0.77784531438E+03  0.85223602829E+03  0.00000000000E+00 0.  1.
<mgrwt>
<rscale>  0 0.15567633E+04</rscale>
<asrwt>0</asrwt>
<pdfrwt beam="1">  1        2 0.31395036E+00 0.15567633E+04</pdfrwt>
<pdfrwt beam="2">  1       -2 0.45676992E-01 0.15567633E+04</pdfrwt>
<totfact> 0.27740130E+01</totfact>
</mgrwt>
</event>
<event>
12    1  0.1496989E-007  0.1744762E+04  0.7818608E-02  0.8736239E-01
          1   -1    0    0  501    0  0.00000000000E+00  0.00000000000E+00  0.30166179172E+04  0.30166179172E+04  0.00000000000E+00 0. -1.
         -1   -1    0    0    0  501 -0.00000000000E+00 -0.00000000000E+00 -0.25228526114E+03  0.25228526114E+03  0.00000000000E+00 0.  1.
         23    2    1    2    0    0  0.67442641893E+02  0.67558440920E+02 -0.15942707217E+03  0.20802558834E+03  0.93514711018E+02 0.  0.
        254    2    1    2    0    0 -0.67442641893E+02 -0.67558440920E+02  0.29237597283E+04  0.30608775900E+04  0.90082629828E+03 0.  0.
        -24    2    4    4    0    0  0.26448149729E+03 -0.34365137495E+03  0.10980397704E+04  0.11830874807E+04  0.77187560797E+02 0.  0.
         24    2    4    4    0    0 -0.33192413919E+03  0.27609293403E+03  0.18257199578E+04  0.18777901094E+04  0.80258258311E+02 0.  0.
         13    1    3    3    0    0  0.17655139159E+02  0.66902287777E+02 -0.43172048766E+02  0.81556396703E+02  0.00000000000E+00 0. -1.
        -13    1    3    3    0    0  0.49787502734E+02  0.65615314301E+00 -0.11625502341E+03  0.12646919164E+03  0.00000000000E+00 0.  1.
          2    1    6    6  502    0 -0.33627841811E+03  0.27134932801E+03  0.18085259145E+04  0.18594299169E+04  0.00000000000E+00 0. -1.
          1    1    5    5  503    0  0.15044991019E+03 -0.23736087942E+03  0.63191471607E+03  0.69158627151E+03  0.00000000000E+00 0. -1.
         -2    1    5    5    0  503  0.11403158710E+03 -0.10629049552E+03  0.46612505435E+03  0.49150120914E+03  0.00000000000E+00 0.  1.
         -1    1    6    6    0  502  0.43542789190E+01  0.47436060124E+01  0.17194043349E+02  0.18360192526E+02  0.00000000000E+00 0.  1.
<mgrwt>
<rscale>  0 0.17447616E+04</rscale>
<asrwt>0</asrwt>
<pdfrwt beam="1">  1        1 0.46409504E+00 0.17447616E+04</pdfrwt>
<pdfrwt beam="2">  1       -1 0.38813119E-01 0.17447616E+04</pdfrwt>
<totfact> 0.35596227E+00</totfact>
</mgrwt>
</event>
<event>
12    1  0.1496989E-007  0.1476100E+04  0.7818608E-02  0.8900503E-01
         -2   -1    0    0    0  501 -0.00000000000E+00  0.00000000000E+00  0.27823162113E+03  0.27823162113E+03  0.00000000000E+00 0.  1.
          2   -1    0    0  501    0  0.00000000000E+00 -0.00000000000E+00 -0.19577865217E+04  0.19577865217E+04  0.00000000000E+00 0. -1.
         23    2    1    2    0    0  0.15091647964E+03  0.66779045232E+01 -0.11963216189E+04  0.12092256994E+04  0.90669720365E+02 0.  0.
        254    2    1    2    0    0 -0.15091647964E+03 -0.66779045232E+01 -0.48323328171E+03  0.10267924434E+04  0.89329051210E+03 0.  0.
        -24    2    4    4    0    0 -0.43803169107E+02 -0.37413191398E+03 -0.50537496170E+03  0.63526232945E+03  0.79126282755E+02 0.  0.
         24    2    4    4    0    0 -0.10711331053E+03  0.36745400946E+03  0.22141679990E+02  0.39153011394E+03  0.79434663497E+02 0.  0.
         11    1    3    3    0    0  0.27603947809E+02  0.29937975455E+02 -0.50250473962E+03  0.50415203426E+03  0.00000000000E+00 0.  1.
        -11    1    3    3    0    0  0.12331253183E+03 -0.23260070932E+02 -0.69381687923E+03  0.70507366517E+03  0.00000000000E+00 0. -1.
          4    1    6    6  502    0 -0.13627740853E+02  0.18552376470E+03  0.24392459703E+01  0.18603959931E+03  0.00000000000E+00 0. -1.
          3    1    5    5  503    0 -0.13344405643E+02 -0.15052556010E+02 -0.94343818421E+01  0.22218464509E+02  0.00000000000E+00 0. -1.
         -4    1    5    5    0  503 -0.30458763465E+02 -0.35907935797E+03 -0.49594057986E+03  0.61304386494E+03  0.00000000000E+00 0.  1.
         -3    1    6    6    0  502 -0.93485569677E+02  0.18193024476E+03  0.19702434020E+02  0.20549051463E+03  0.00000000000E+00 0.  1.
<mgrwt>
<rscale>  0 0.14761004E+04</rscale>
<asrwt>0</asrwt>
<pdfrwt beam="1">  1        2 0.30119792E+00 0.14761004E+04</pdfrwt>
<pdfrwt beam="2">  1       -2 0.42804866E-01 0.14761004E+04</pdfrwt>
<totfact> 0.35330618E+01</totfact>
</mgrwt>
</event>
<event>
12    1  0.1496989E-007  0.1505468E+04  0.7818608E-02  0.8880825E-01
         -1   -1    0    0    0  501 -0.00000000000E+00  0.00000000000E+00  0.36475291175E+03  0.36475291175E+03  0.00000000000E+00 0.  1.
          1   -1    0    0  501    0  0.00000000000E+00 -0.00000000000E+00 -0.15534043124E+04  0.15534043124E+04  0.00000000000E+00 0. -1.
         23    2    1    2    0    0 -0.10231432314E+03 -0.45757527846E+03 -0.48829745784E+03  0.68315632591E+03  0.91786720833E+02 0.  0.
        254    2    1    2    0    0  0.10231432314E+03  0.45757527846E+03 -0.70035394278E+03  0.12350008982E+04  0.90271159140E+03 0.  0.
        -24    2    4    4    0    0  0.22287412440E+03 -0.19992785595E+03 -0.85550675998E+02  0.32313154106E+03  0.86319474926E+02 0.  0.
         24    2    4    4    0    0 -0.12055980125E+03  0.65750313441E+03 -0.61480326678E+03  0.91186935715E+03  0.81716768352E+02 0.  0.
         11    1    3    3    0    0 -0.72880583938E+02 -0.33492054041E+03 -0.41120927629E+03  0.53532832618E+03  0.00000000000E+00 0.  1.
        -11    1    3    3    0    0 -0.29433739206E+02 -0.12265473805E+03 -0.77088181548E+02  0.14782799973E+03  0.00000000000E+00 0. -1.
          4    1    6    6  502    0 -0.49862930996E+02  0.39366261587E+03 -0.31802025910E+03  0.50852084738E+03  0.00000000000E+00 0. -1.
          3    1    5    5  503    0  0.91518326461E+02 -0.13466468372E+03 -0.26248784353E+02  0.16492173841E+03  0.00000000000E+00 0. -1.
         -4    1    5    5    0  503  0.13135579794E+03 -0.65263172229E+02 -0.59301891646E+02  0.15820980265E+03  0.00000000000E+00 0.  1.
         -3    1    6    6    0  502 -0.70696870257E+02  0.26384051854E+03 -0.29678300768E+03  0.40334850977E+03  0.00000000000E+00 0.  1.
<mgrwt>
<rscale>  0 0.15054684E+04</rscale>
<asrwt>0</asrwt>
<pdfrwt beam="1">  1        1 0.23898528E+00 0.15054684E+04</pdfrwt>
<pdfrwt beam="2">  1       -1 0.56115832E-01 0.15054684E+04</pdfrwt>
<totfact> 0.18663972E+01</totfact>
</mgrwt>
</event>
<event>
12    1  0.1496989E-007  0.1230608E+04  0.7818608E-02  0.9086479E-01
         -2   -1    0    0    0  501 -0.00000000000E+00  0.00000000000E+00  0.55069522402E+03  0.55069522402E+03  0.00000000000E+00 0.  1.
          2   -1    0    0  501    0  0.00000000000E+00 -0.00000000000E+00 -0.68749294441E+03  0.68749294441E+03  0.00000000000E+00 0. -1.
         23    2    1    2    0    0 -0.47823731960E+02 -0.67730175438E+02 -0.29386061026E+03  0.32163313663E+03  0.10109070340E+03 0.  0.
        254    2    1    2    0    0  0.47823731960E+02  0.67730175438E+02  0.15706288987E+03  0.91655503181E+03  0.89918290072E+03 0.  0.
        -24    2    4    4    0    0  0.43958454504E+03 -0.57823854625E+02 -0.42737157670E+02  0.45221030211E+03  0.78035391244E+02 0.  0.
         24    2    4    4    0    0 -0.39176081308E+03  0.12555403006E+03  0.19980004754E+03  0.46434472970E+03  0.80346872194E+02 0.  0.
         13    1    3    3    0    0  0.17430290778E+02 -0.13346097505E+02 -0.79138501800E+01  0.23335860385E+02  0.00000000000E+00 0.  1.
        -13    1    3    3    0    0 -0.65254022738E+02 -0.54384077933E+02 -0.28594676008E+03  0.29829727625E+03  0.00000000000E+00 0. -1.
          2    1    6    6  502    0 -0.23274994527E+03  0.58861946266E+02  0.75105622142E+02  0.25155142659E+03  0.00000000000E+00 0. -1.
          1    1    5    5  503    0  0.12748582405E+03 -0.44615390446E+02 -0.35902281068E+02  0.13975744054E+03  0.00000000000E+00 0. -1.
         -2    1    5    5    0  503  0.31209872099E+03 -0.13208464179E+02 -0.68348766027E+01  0.31245286157E+03  0.00000000000E+00 0.  1.
         -1    1    6    6    0  502 -0.15901086781E+03  0.66692083797E+02  0.12469442540E+03  0.21279330311E+03  0.00000000000E+00 0.  1.
<mgrwt>
<rscale>  0 0.12306081E+04</rscale>
<asrwt>0</asrwt>
<pdfrwt beam="1">  1        2 0.10576815E+00 0.12306081E+04</pdfrwt>
<pdfrwt beam="2">  1       -2 0.84722342E-01 0.12306081E+04</pdfrwt>
<totfact> 0.50134062E+01</totfact>
</mgrwt>
</event>
<event>
12    1  0.1496989E-007  0.1093160E+04  0.7818608E-02  0.9211884E-01
         -2   -1    0    0    0  501 -0.00000000000E+00  0.00000000000E+00  0.22103432411E+03  0.22103432411E+03  0.00000000000E+00 0.  1.
          2   -1    0    0  501    0  0.00000000000E+00 -0.00000000000E+00 -0.13515982979E+04  0.13515982979E+04  0.00000000000E+00 0. -1.
         23    2    1    2    0    0  0.10802279779E+03  0.15722895259E+03 -0.19178705459E+03  0.28623632932E+03  0.93590029062E+02 0.  0.
        254    2    1    2    0    0 -0.10802279779E+03 -0.15722895259E+03 -0.93877691924E+03  0.12863962927E+04  0.85855893768E+03 0.  0.
        -24    2    4    4    0    0  0.17193113455E+02 -0.26729040601E+03 -0.10389055280E+04  0.10758616740E+04  0.80086710676E+02 0.  0.
         24    2    4    4    0    0 -0.12521591124E+03  0.11006145342E+03  0.10012860873E+03  0.21053461873E+03  0.80663123171E+02 0.  0.
         13    1    3    3    0    0  0.80788551854E+02  0.89510256491E+02 -0.57927436535E+02  0.13377019112E+03  0.00000000000E+00 0.  1.
        -13    1    3    3    0    0  0.27234245933E+02  0.67718696096E+02 -0.13385961805E+03  0.15246613820E+03  0.00000000000E+00 0. -1.
          4    1    6    6  502    0 -0.11292321822E+02 -0.77162039952E+01  0.28681271933E+02  0.31775331563E+02  0.00000000000E+00 0. -1.
          3    1    5    5  503    0  0.10266409800E+02 -0.10278637123E+03 -0.55987620340E+03  0.56932574193E+03  0.00000000000E+00 0. -1.
         -4    1    5    5    0  503  0.69267036554E+01 -0.16450403478E+03 -0.47902932457E+03  0.50653593207E+03  0.00000000000E+00 0.  1.
         -3    1    6    6    0  502 -0.11392358942E+03  0.11777765741E+03  0.71447336800E+02  0.17875928717E+03  0.00000000000E+00 0.  1.
<mgrwt>
<rscale>  0 0.10931599E+04</rscale>
<asrwt>0</asrwt>
<pdfrwt beam="1">  1        2 0.20793820E+00 0.10931599E+04</pdfrwt>
<pdfrwt beam="2">  1       -2 0.34005281E-01 0.10931599E+04</pdfrwt>
<totfact> 0.12393215E+02</totfact>
</mgrwt>
</event>
<event>
12    1  0.1496989E-007  0.1294881E+04  0.7818608E-02  0.9033635E-01
          2   -1    0    0  501    0  0.00000000000E+00  0.00000000000E+00  0.22217381994E+04  0.22217381994E+04  0.00000000000E+00 0.  1.
         -2   -1    0    0    0  501 -0.00000000000E+00 -0.00000000000E+00 -0.18867162347E+03  0.18867162347E+03  0.00000000000E+00 0. -1.
         23    2    1    2    0    0 -0.12705344354E+03  0.21553975215E+03  0.90412234833E+03  0.94291414873E+03  0.95131008881E+02 0.  0.
        254    2    1    2    0    0  0.12705344354E+03 -0.21553975215E+03  0.11289442276E+04  0.14674956742E+04  0.90356434323E+03 0.  0.
        -24    2    4    4    0    0 -0.27359137191E+03 -0.37948013506E+03  0.74953485396E+03  0.88730988021E+03  0.81602172321E+02 0.  0.
         24    2    4    4    0    0  0.40064481545E+03  0.16394038291E+03  0.37940937368E+03  0.58018579397E+03  0.72604169291E+02 0.  0.
         13    1    3    3    0    0 -0.11367670903E+03  0.15886759770E+03  0.54177628716E+03  0.57591913764E+03  0.00000000000E+00 0. -1.
        -13    1    3    3    0    0 -0.13376734511E+02  0.56672154451E+02  0.36234606118E+03  0.36699501109E+03  0.00000000000E+00 0.  1.
          4    1    6    6  502    0  0.10538769832E+03  0.37172211068E+02  0.14186318984E+03  0.18059209524E+03  0.00000000000E+00 0. -1.
          3    1    5    5  503    0 -0.78363348032E+01 -0.12009847783E+02  0.62317155763E+02  0.63945855920E+02  0.00000000000E+00 0. -1.
         -4    1    5    5    0  503 -0.26575503710E+03 -0.36747028728E+03  0.68721769820E+03  0.82336402429E+03  0.00000000000E+00 0.  1.
         -3    1    6    6    0  502  0.29525711713E+03  0.12676817185E+03  0.23754618383E+03  0.39959369873E+03  0.00000000000E+00 0.  1.
<mgrwt>
<rscale>  0 0.12948806E+04</rscale>
<asrwt>0</asrwt>
<pdfrwt beam="1">  1        2 0.34180586E+00 0.12948806E+04</pdfrwt>
<pdfrwt beam="2">  1       -2 0.29026405E-01 0.12948806E+04</pdfrwt>
<totfact> 0.53801271E+01</totfact>
</mgrwt>
</event>
<event>
12    1  0.1496989E-007  0.2170251E+04  0.7818608E-02  0.8530913E-01
         -2   -1    0    0    0  501 -0.00000000000E+00  0.00000000000E+00  0.43562475951E+03  0.43562475951E+03  0.00000000000E+00 0.  1.
          2   -1    0    0  501    0  0.00000000000E+00 -0.00000000000E+00 -0.27030074916E+04  0.27030074916E+04  0.00000000000E+00 0. -1.
         23    2    1    2    0    0  0.24062144677E+03 -0.29385817487E+03  0.23006962903E+03  0.45338998143E+03  0.91537606888E+02 0.  0.
        254    2    1    2    0    0 -0.24062144677E+03  0.29385817487E+03 -0.24974523611E+04  0.26852422697E+04  0.91049790954E+03 0.  0.
        -24    2    4    4    0    0 -0.47883451542E+03 -0.50715343519E+02 -0.18228200542E+04  0.18870176262E+04  0.79423122703E+02 0.  0.
         24    2    4    4    0    0  0.23821306865E+03  0.34457351839E+03 -0.67463230691E+03  0.79822464347E+03  0.80978122094E+02 0.  0.
         11    1    3    3    0    0  0.20161266896E+03 -0.26168410420E+03  0.23052075013E+03  0.40282260974E+03  0.00000000000E+00 0.  1.
        -11    1    3    3    0    0  0.39008777803E+02 -0.32174070669E+02 -0.45112109863E+00  0.50567371687E+02  0.00000000000E+00 0. -1.
          2    1    6    6  502    0  0.15742540126E+03  0.24431831625E+03 -0.39532247774E+03  0.49066695224E+03  0.00000000000E+00 0. -1.
          3    1    5    5  503    0 -0.66391542745E+01  0.73906169357E+01 -0.73042884835E+02  0.73715416388E+02  0.00000000000E+00 0. -1.
         -4    1    5    5    0  503 -0.47219536115E+03 -0.58105960455E+02 -0.17497771694E+04  0.18133022098E+04  0.00000000000E+00 0.  1.
         -1    1    6    6    0  502  0.80787667389E+02  0.10025520214E+03 -0.27930982918E+03  0.30755769123E+03  0.00000000000E+00 0.  1.
<mgrwt>
<rscale>  0 0.21702507E+04</rscale>
<asrwt>0</asrwt>
<pdfrwt beam="1">  1        2 0.41584732E+00 0.21702507E+04</pdfrwt>
<pdfrwt beam="2">  1       -2 0.67019192E-01 0.21702507E+04</pdfrwt>
<totfact> 0.49545404E+00</totfact>
</mgrwt>
</event>
<event>
12    1  0.1496989E-007  0.3118065E+04  0.7818608E-02  0.8210797E-01
          2   -1    0    0  501    0  0.00000000000E+00  0.00000000000E+00  0.38974428579E+04  0.38974428579E+04  0.00000000000E+00 0. -1.
         -2   -1    0    0    0  501 -0.00000000000E+00 -0.00000000000E+00 -0.62363527803E+03  0.62363527803E+03  0.00000000000E+00 0.  1.
         23    2    1    2    0    0 -0.63454470362E+03  0.12330938859E+04  0.10327803264E+04  0.17316328095E+04  0.93538612224E+02 0.  0.
        254    2    1    2    0    0  0.63454470362E+03 -0.12330938859E+04  0.22410272535E+04  0.27894453265E+04  0.91413049718E+03 0.  0.
        -24    2    4    4    0    0 -0.20755820728E+02 -0.20930533959E+03 -0.14852171024E+02  0.22568946851E+03  0.80471236731E+02 0.  0.
         24    2    4    4    0    0  0.65530052434E+03 -0.10237885463E+04  0.22558794246E+04  0.25637558580E+04  0.79311765985E+02 0.  0.
         13    1    3    3    0    0 -0.12149090261E+03  0.21171450446E+03  0.22531867959E+03  0.33219208027E+03  0.00000000000E+00 0.  1.
        -13    1    3    3    0    0 -0.51305380101E+03  0.10213793815E+04  0.80746164677E+03  0.13994407292E+04  0.00000000000E+00 0. -1.
          2    1    6    6  502    0  0.10720236306E+03 -0.11828088914E+03  0.30205345411E+03  0.34164163171E+03  0.00000000000E+00 0. -1.
          1    1    5    5  503    0  0.12947798286E+02 -0.80321796397E+01  0.12605273061E+02  0.19775092899E+02  0.00000000000E+00 0. -1.
         -2    1    5    5    0  503 -0.33703619015E+02 -0.20127315995E+03 -0.27457444085E+02  0.20591437562E+03  0.00000000000E+00 0.  1.
         -1    1    6    6    0  502  0.54809816128E+03 -0.90550765721E+03  0.19538259705E+04  0.22221142262E+04  0.00000000000E+00 0.  1.
<mgrwt>
<rscale>  0 0.31180653E+04</rscale>
<asrwt>0</asrwt>
<pdfrwt beam="1">  1        2 0.59960658E+00 0.31180653E+04</pdfrwt>
<pdfrwt beam="2">  1       -2 0.95943892E-01 0.31180653E+04</pdfrwt>
<totfact> 0.31843537E-01</totfact>
</mgrwt>
</event>
<event>
12    1  0.1496989E-007  0.1181278E+04  0.7818608E-02  0.9129403E-01
          2   -1    0    0  501    0  0.00000000000E+00  0.00000000000E+00  0.43909693158E+03  0.43909693158E+03  0.00000000000E+00 0. -1.
         -2   -1    0    0    0  501 -0.00000000000E+00 -0.00000000000E+00 -0.79448224192E+03  0.79448224192E+03  0.00000000000E+00 0.  1.
         23    2    1    2    0    0 -0.12022104628E+03 -0.38458041475E+02 -0.29902481036E+03  0.33709305235E+03  0.91015206477E+02 0.  0.
        254    2    1    2    0    0  0.12022104628E+03  0.38458041475E+02 -0.56360499972E+02  0.89648612115E+03  0.88576449383E+03 0.  0.
        -24    2    4    4    0    0  0.28879792178E+02 -0.24575647692E+03  0.31825868413E+03  0.41085369870E+03  0.79258333079E+02 0.  0.
         24    2    4    4    0    0  0.91341254104E+02  0.28421451840E+03 -0.37461918411E+03  0.48563242245E+03  0.79863630391E+02 0.  0.
         13    1    3    3    0    0  0.14704133432E+01 -0.30627554520E+02 -0.90219203448E+02  0.95287532668E+02  0.00000000000E+00 0. -1.
        -13    1    3    3    0    0 -0.12169145963E+03 -0.78304869552E+01 -0.20880560691E+03  0.24180551969E+03  0.00000000000E+00 0.  1.
          2    1    6    6  502    0  0.53702861159E+02  0.15360565155E+03 -0.26518481803E+03  0.31112968550E+03  0.00000000000E+00 0. -1.
          3    1    5    5  503    0  0.46120263425E+02 -0.73994439328E+02  0.10889490957E+03  0.13950038380E+03  0.00000000000E+00 0. -1.
         -4    1    5    5    0  503 -0.17240471248E+02 -0.17176203760E+03  0.20936377457E+03  0.27135331490E+03  0.00000000000E+00 0.  1.
         -1    1    6    6    0  502  0.37638392945E+02  0.13060886685E+03 -0.10943436607E+03  0.17450273695E+03  0.00000000000E+00 0.  1.
<mgrwt>
<rscale>  0 0.11812785E+04</rscale>
<asrwt>0</asrwt>
<pdfrwt beam="1">  1        2 0.67553374E-01 0.11812785E+04</pdfrwt>
<pdfrwt beam="2">  1       -2 0.12222804E+00 0.11812785E+04</pdfrwt>
<totfact> 0.35825179E+01</totfact>
</mgrwt>
</event>
<event>
12    1  0.1496989E-007  0.3179802E+04  0.7818608E-02  0.8194172E-01
          2   -1    0    0  501    0  0.00000000000E+00  0.00000000000E+00  0.30951243973E+04  0.30951243973E+04  0.00000000000E+00 0. -1.
         -2   -1    0    0    0  501 -0.00000000000E+00 -0.00000000000E+00 -0.81669926790E+03  0.81669926790E+03  0.00000000000E+00 0.  1.
         23    2    1    2    0    0 -0.28030336929E+02  0.11938705782E+04  0.20874784917E+04  0.24067487198E+04  0.93596417425E+02 0.  0.
        254    2    1    2    0    0  0.28030336929E+02 -0.11938705782E+04  0.19094663762E+03  0.15050749454E+04  0.89592260573E+03 0.  0.
        -24    2    4    4    0    0  0.44008253906E+03 -0.45427288780E+03  0.21058901761E+02  0.63779057741E+03  0.79352665454E+02 0.  0.
         24    2    4    4    0    0 -0.41205220213E+03 -0.73959769043E+03  0.16988773586E+03  0.86728436797E+03  0.80799574014E+02 0.  0.
         11    1    3    3    0    0  0.17515306909E+02  0.59171146492E+02  0.12442999870E+03  0.13889145089E+03  0.00000000000E+00 0.  1.
        -11    1    3    3    0    0 -0.45545643838E+02  0.11346994317E+04  0.19630484930E+04  0.22678572689E+04  0.00000000000E+00 0. -1.
          2    1    6    6  502    0 -0.39124093916E+03 -0.69020759489E+03  0.17792696180E+03  0.81308917116E+03  0.00000000000E+00 0. -1.
          3    1    5    5  503    0  0.39618044009E+03 -0.41482446940E+03 -0.40926186616E+01  0.57363318510E+03  0.00000000000E+00 0. -1.
         -4    1    5    5    0  503  0.43902098967E+02 -0.39448418397E+02  0.25151520422E+02  0.64157392304E+02  0.00000000000E+00 0.  1.
         -1    1    6    6    0  502 -0.20811262967E+02 -0.49390095543E+02 -0.80392259389E+01  0.54195196814E+02  0.00000000000E+00 0.  1.
<mgrwt>
<rscale>  0 0.31798024E+04</rscale>
<asrwt>0</asrwt>
<pdfrwt beam="1">  1        2 0.47617298E+00 0.31798024E+04</pdfrwt>
<pdfrwt beam="2">  1       -2 0.12564604E+00 0.31798024E+04</pdfrwt>
<totfact> 0.60460059E-01</totfact>
</mgrwt>
</event>
<event>
12    1  0.1496989E-007  0.1266666E+04  0.7818608E-02  0.9056425E-01
         -2   -1    0    0    0  501 -0.00000000000E+00  0.00000000000E+00  0.16439203815E+03  0.16439203815E+03  0.00000000000E+00 0.  1.
          2   -1    0    0  501    0  0.00000000000E+00 -0.00000000000E+00 -0.24399651708E+04  0.24399651708E+04  0.00000000000E+00 0. -1.
         23    2    1    2    0    0  0.79502180729E+02 -0.20012079189E+03 -0.14492544733E+03  0.27477597476E+03  0.90163867108E+02 0.  0.
        254    2    1    2    0    0 -0.79502180729E+02  0.20012079189E+03 -0.21306476853E+04  0.23295812342E+04  0.91701703348E+03 0.  0.
        -24    2    4    4    0    0 -0.40462215557E+02  0.28739427227E+03 -0.13466127697E+03  0.32950540705E+03  0.78787658540E+02 0.  0.
         24    2    4    4    0    0 -0.39039965172E+02 -0.87273480374E+02 -0.19959864084E+04  0.20000758272E+04  0.84857485030E+02 0.  0.
         11    1    3    3    0    0  0.65375346660E+02 -0.18115640826E+03 -0.15676674804E+03  0.24832920387E+03  0.00000000000E+00 0. -1.
        -11    1    3    3    0    0  0.14126834069E+02 -0.18964383638E+02  0.11841300718E+02  0.26446770885E+02  0.00000000000E+00 0.  1.
          4    1    6    6  502    0 -0.34994601588E+02  0.14303691163E+00 -0.34459032521E+03  0.34636272148E+03  0.00000000000E+00 0. -1.
          1    1    5    5  503    0 -0.10552533361E+01  0.13317129905E+03 -0.10014657392E+03  0.16662846311E+03  0.00000000000E+00 0. -1.
         -2    1    5    5    0  503 -0.39406962221E+02  0.15422297321E+03 -0.34514703043E+02  0.16287694393E+03  0.00000000000E+00 0.  1.
         -3    1    6    6    0  502 -0.40453635848E+01 -0.87416517286E+02 -0.16513960832E+04  0.16537131057E+04  0.00000000000E+00 0.  1.
<mgrwt>
<rscale>  0 0.12666663E+04</rscale>
<asrwt>0</asrwt>
<pdfrwt beam="1">  1        2 0.37537926E+00 0.12666663E+04</pdfrwt>
<pdfrwt beam="2">  1       -2 0.25291083E-01 0.12666663E+04</pdfrwt>
<totfact> 0.52274519E+01</totfact>
</mgrwt>
</event>
<event>
12    1  0.1496989E-007  0.2596190E+04  0.7818608E-02  0.8369496E-01
          2   -1    0    0  501    0  0.00000000000E+00  0.00000000000E+00  0.12907942588E+04  0.12907942588E+04  0.00000000000E+00 0.  1.
         -2   -1    0    0    0  501 -0.00000000000E+00 -0.00000000000E+00 -0.13054374909E+04  0.13054374909E+04  0.00000000000E+00 0. -1.
         23    2    1    2    0    0  0.49539036150E+03  0.85623659647E+03 -0.57142866341E+03  0.11460859787E+04  0.91813037329E+02 0.  0.
        254    2    1    2    0    0 -0.49539036150E+03 -0.85623659647E+03  0.55678543129E+03  0.14501457711E+04  0.90241898332E+03 0.  0.
        -24    2    4    4    0    0 -0.48653026430E+03 -0.50766495745E+03  0.76014217053E+03  0.10385746537E+04  0.79911105465E+02 0.  0.
         24    2    4    4    0    0 -0.88600971958E+01 -0.34857163902E+03 -0.20335673925E+03  0.41157111737E+03  0.80350061619E+02 0.  0.
         13    1    3    3    0    0  0.44818747724E+03  0.76566474264E+03 -0.47852046331E+03  0.10080160449E+04  0.00000000000E+00 0. -1.
        -13    1    3    3    0    0  0.47202884257E+02  0.90571853832E+02 -0.92908200100E+02  0.13806993385E+03  0.00000000000E+00 0.  1.
          2    1    6    6  502    0 -0.46590500513E+01 -0.14627703688E+03 -0.40547465054E+02  0.15186433152E+03  0.00000000000E+00 0. -1.
          1    1    5    5  503    0 -0.17440023521E+03 -0.13016652874E+03  0.24640663326E+03  0.32874761773E+03  0.00000000000E+00 0. -1.
         -2    1    5    5    0  503 -0.31213002909E+03 -0.37749842871E+03  0.51373553727E+03  0.70982703597E+03  0.00000000000E+00 0.  1.
         -1    1    6    6    0  502 -0.42010471445E+01 -0.20229460214E+03 -0.16280927419E+03  0.25970678585E+03  0.00000000000E+00 0.  1.
<mgrwt>
<rscale>  0 0.25961905E+04</rscale>
<asrwt>0</asrwt>
<pdfrwt beam="1">  1        2 0.19858373E+00 0.25961905E+04</pdfrwt>
<pdfrwt beam="2">  1       -2 0.20083654E+00 0.25961905E+04</pdfrwt>
<totfact> 0.19450371E+00</totfact>
</mgrwt>
</event>
<event>
12    1  0.1496989E-007  0.1504180E+04  0.7818608E-02  0.8881678E-01
          2   -1    0    0  501    0  0.00000000000E+00  0.00000000000E+00  0.15905812608E+04  0.15905812608E+04  0.00000000000E+00 0. -1.
         -2   -1    0    0    0  501 -0.00000000000E+00 -0.00000000000E+00 -0.35561803797E+03  0.35561803797E+03  0.00000000000E+00 0.  1.
         23    2    1    2    0    0  0.20922894122E+03 -0.84964174561E+01 -0.15995707542E+03  0.27821009284E+03  0.89250494840E+02 0.  0.
        254    2    1    2    0    0 -0.20922894122E+03  0.84964174561E+01  0.13949202982E+04  0.16679892059E+04  0.89024514246E+03 0.  0.
        -24    2    4    4    0    0 -0.37871566012E+02  0.30840657097E+02 -0.11273414524E+03  0.14841311331E+03  0.83259011867E+02 0.  0.
         24    2    4    4    0    0 -0.17135737521E+03 -0.22344239641E+02  0.15076544434E+04  0.15195760926E+04  0.78911122418E+02 0.  0.
         13    1    3    3    0    0  0.15232353585E+03  0.32375176615E+02 -0.93480641730E+02  0.18162940845E+03  0.00000000000E+00 0.  1.
        -13    1    3    3    0    0  0.56905405371E+02 -0.40871594071E+02 -0.66476433688E+02  0.96580684395E+02  0.00000000000E+00 0. -1.
          2    1    6    6  502    0 -0.53428881006E+02  0.37593971424E+01  0.79129129628E+03  0.79310194424E+03  0.00000000000E+00 0. -1.
          3    1    5    5  503    0 -0.63780494701E+02  0.15097394716E+02 -0.84903037456E+02  0.10725860619E+03  0.00000000000E+00 0. -1.
         -4    1    5    5    0  503  0.25908928689E+02  0.15743262380E+02 -0.27831107780E+02  0.41154507122E+02  0.00000000000E+00 0.  1.
         -1    1    6    6    0  502 -0.11792849420E+03 -0.26103636783E+02  0.71636314717E+03  0.72647414835E+03  0.00000000000E+00 0.  1.
<mgrwt>
<rscale>  0 0.15041800E+04</rscale>
<asrwt>0</asrwt>
<pdfrwt beam="1">  1        2 0.24470481E+00 0.15041800E+04</pdfrwt>
<pdfrwt beam="2">  1       -2 0.54710468E-01 0.15041800E+04</pdfrwt>
<totfact> 0.34266458E+01</totfact>
</mgrwt>
</event>
<event>
12    1  0.1496989E-007  0.1295469E+04  0.7818608E-02  0.9033166E-01
          1   -1    0    0  501    0  0.00000000000E+00  0.00000000000E+00  0.71993123460E+03  0.71993123460E+03  0.00000000000E+00 0. -1.
         -1   -1    0    0    0  501 -0.00000000000E+00 -0.00000000000E+00 -0.58277807948E+03  0.58277807948E+03  0.00000000000E+00 0.  1.
         23    2    1    2    0    0  0.23623594954E+03 -0.19373154015E+03 -0.91648035727E+02  0.33140592739E+03  0.89951057518E+02 0.  0.
        254    2    1    2    0    0 -0.23623594954E+03  0.19373154015E+03  0.22880119084E+03  0.97130338669E+03  0.89316345120E+03 0.  0.
        -24    2    4    4    0    0  0.73810244617E+02  0.32986594848E+03 -0.21336044692E+03  0.40821077390E+03  0.82788039223E+02 0.  0.
         24    2    4    4    0    0 -0.31004619416E+03 -0.13613440833E+03  0.44216163776E+03  0.56309261279E+03  0.83097274546E+02 0.  0.
         13    1    3    3    0    0  0.23291851745E+03 -0.17092697641E+03 -0.10167307368E+03  0.30627517194E+03  0.00000000000E+00 0.  1.
        -13    1    3    3    0    0  0.33174320873E+01 -0.22804563743E+02  0.10025037953E+02  0.25130755443E+02  0.00000000000E+00 0. -1.
          2    1    6    6  502    0 -0.19952473132E+03 -0.12083312185E+03  0.33637634391E+03  0.40934069733E+03  0.00000000000E+00 0. -1.
          3    1    5    5  503    0  0.50906878820E+02  0.79201143793E+02 -0.38464815165E+02  0.10170483516E+03  0.00000000000E+00 0. -1.
         -4    1    5    5    0  503  0.22903365797E+02  0.25066480469E+03 -0.17489563175E+03  0.30650593874E+03  0.00000000000E+00 0.  1.
         -1    1    6    6    0  502 -0.11052146284E+03 -0.15301286477E+02  0.10578529385E+03  0.15375191547E+03  0.00000000000E+00 0.  1.
<mgrwt>
<rscale>  0 0.12954692E+04</rscale>
<asrwt>0</asrwt>
<pdfrwt beam="1">  1        1 0.11075865E+00 0.12954692E+04</pdfrwt>
<pdfrwt beam="2">  1       -1 0.89658166E-01 0.12954692E+04</pdfrwt>
<totfact> 0.31261077E+01</totfact>
</mgrwt>
</event>
<event>
12    1  0.1496989E-007  0.2838422E+04  0.7818608E-02  0.8291438E-01
          2   -1    0    0  501    0  0.00000000000E+00  0.00000000000E+00  0.13230080070E+04  0.13230080070E+04  0.00000000000E+00 0. -1.
         -2   -1    0    0    0  501 -0.00000000000E+00 -0.00000000000E+00 -0.15224088943E+04  0.15224088943E+04  0.00000000000E+00 0.  1.
         23    2    1    2    0    0 -0.64018703148E+03 -0.39808958539E+03  0.94511360334E+03  0.12124699539E+04  0.92352112116E+02 0.  0.
        254    2    1    2    0    0  0.64018703148E+03  0.39808958539E+03 -0.11445144907E+04  0.16329469474E+04  0.88785559662E+03 0.  0.
        -24    2    4    4    0    0  0.61512018261E+03  0.34857009545E+03 -0.12815982467E+04  0.14658941832E+04  0.80484407875E+02 0.  0.
         24    2    4    4    0    0  0.25066848874E+02  0.49519489944E+02  0.13708375597E+03  0.16705276426E+03  0.77679747023E+02 0.  0.
         13    1    3    3    0    0 -0.32487144498E+03 -0.25609248243E+03  0.51872363416E+03  0.66347496106E+03  0.00000000000E+00 0. -1.
        -13    1    3    3    0    0 -0.31531558651E+03 -0.14199710296E+03  0.42638996919E+03  0.54899499284E+03  0.00000000000E+00 0.  1.
          4    1    6    6  502    0 -0.99700597771E+01  0.57225735226E+02  0.98621955243E+02  0.11445731484E+03  0.00000000000E+00 0. -1.
          3    1    5    5  503    0  0.54499165585E+03  0.31567147580E+03 -0.11859697640E+04  0.13428286066E+04  0.00000000000E+00 0. -1.
         -4    1    5    5    0  503  0.70128526757E+02  0.32898619653E+02 -0.95628482651E+02  0.12306557656E+03  0.00000000000E+00 0.  1.
         -3    1    6    6    0  502  0.35036908651E+02 -0.77062452820E+01  0.38461800732E+02  0.52595449420E+02  0.00000000000E+00 0.  1.
<mgrwt>
<rscale>  0 0.28384215E+04</rscale>
<asrwt>0</asrwt>
<pdfrwt beam="1">  1        2 0.20353969E+00 0.28384215E+04</pdfrwt>
<pdfrwt beam="2">  1       -2 0.23421675E+00 0.28384215E+04</pdfrwt>
<totfact> 0.11188213E+00</totfact>
</mgrwt>
</event>
<event>
12    1  0.1496989E-007  0.1999871E+04  0.7818608E-02  0.8606681E-01
         -1   -1    0    0    0  501 -0.00000000000E+00  0.00000000000E+00  0.55118660971E+03  0.55118660971E+03  0.00000000000E+00 0.  1.
          1   -1    0    0  501    0  0.00000000000E+00 -0.00000000000E+00 -0.18140330321E+04  0.18140330321E+04  0.00000000000E+00 0. -1.
         23    2    1    2    0    0 -0.59091836819E+03  0.29620918273E+03 -0.10125151305E+04  0.12126035541E+04  0.91082887006E+02 0.  0.
        254    2    1    2    0    0  0.59091836819E+03 -0.29620918273E+03 -0.25033129190E+03  0.11526160876E+04  0.91045795728E+03 0.  0.
        -24    2    4    4    0    0 -0.86209432687E+02  0.30389009237E+02 -0.36781642730E+03  0.38750767795E+03  0.80732385802E+02 0.  0.
         24    2    4    4    0    0  0.67712780088E+03 -0.32659819196E+03  0.11748513540E+03  0.76510840968E+03  0.80122929327E+02 0.  0.
         11    1    3    3    0    0 -0.44637458476E+03  0.24201557931E+03 -0.70875493030E+03  0.87186889024E+03  0.00000000000E+00 0. -1.
        -11    1    3    3    0    0 -0.14454378343E+03  0.54193603413E+02 -0.30376020016E+03  0.34073466390E+03  0.00000000000E+00 0.  1.
          4    1    6    6  502    0  0.41405679085E+03 -0.19443280354E+03  0.32044707364E+02  0.45855643536E+03  0.00000000000E+00 0. -1.
          1    1    5    5  503    0 -0.16095001263E+02 -0.17592377490E+02 -0.25945398719E+02  0.35237828056E+02  0.00000000000E+00 0. -1.
         -2    1    5    5    0  503 -0.70114431424E+02  0.47981386727E+02 -0.34187102858E+03  0.35226984990E+03  0.00000000000E+00 0.  1.
         -3    1    6    6    0  502  0.26307101003E+03 -0.13216538843E+03  0.85440428036E+02  0.30655197432E+03  0.00000000000E+00 0.  1.
<mgrwt>
<rscale>  0 0.19998707E+04</rscale>
<asrwt>0</asrwt>
<pdfrwt beam="1">  1        1 0.27908200E+00 0.19998707E+04</pdfrwt>
<pdfrwt beam="2">  1       -1 0.84797940E-01 0.19998707E+04</pdfrwt>
<totfact> 0.50874341E+00</totfact>
</mgrwt>
</event>
<event>
12    1  0.1496989E-007  0.1633810E+04  0.7818608E-02  0.8800042E-01
         -2   -1    0    0    0  501 -0.00000000000E+00  0.00000000000E+00  0.46379502488E+03  0.46379502488E+03  0.00000000000E+00 0. -1.
          2   -1    0    0  501    0  0.00000000000E+00 -0.00000000000E+00 -0.14388555410E+04  0.14388555410E+04  0.00000000000E+00 0.  1.
         23    2    1    2    0    0  0.21682719719E+03  0.38471663909E+03 -0.75372900518E+03  0.87842812296E+03  0.92236804614E+02 0.  0.
        254    2    1    2    0    0 -0.21682719719E+03 -0.38471663909E+03 -0.22133151089E+03  0.10242224429E+04  0.89723076682E+03 0.  0.
        -24    2    4    4    0    0 -0.57003113470E+02  0.21628630783E+03  0.16373691944E+03  0.28855341205E+03  0.80150925895E+02 0.  0.
         24    2    4    4    0    0 -0.15982408372E+03 -0.60100294691E+03 -0.38506843033E+03  0.73566903081E+03  0.78631717034E+02 0.  0.
         13    1    3    3    0    0  0.21334866386E+03  0.30987811818E+03 -0.62933018176E+03  0.73321114161E+03  0.00000000000E+00 0.  1.
        -13    1    3    3    0    0  0.34785333253E+01  0.74838520904E+02 -0.12439882342E+03  0.14521698135E+03  0.00000000000E+00 0. -1.
          2    1    6    6  502    0 -0.10493995251E+03 -0.49963002350E+03 -0.33012636631E+03  0.60796872597E+03  0.00000000000E+00 0. -1.
          3    1    5    5  503    0  0.79703256496E+01 -0.32260394850E+01  0.46241207031E+01  0.97629869403E+01  0.00000000000E+00 0. -1.
         -4    1    5    5    0  503 -0.64973439120E+02  0.21951234731E+03  0.15911279874E+03  0.27879042511E+03  0.00000000000E+00 0.  1.
         -1    1    6    6    0  502 -0.54884131205E+02 -0.10137292341E+03 -0.54942064016E+02  0.12770030484E+03  0.00000000000E+00 0.  1.
<mgrwt>
<rscale>  0 0.16338103E+04</rscale>
<asrwt>0</asrwt>
<pdfrwt beam="1">  1        2 0.22136239E+00 0.16338103E+04</pdfrwt>
<pdfrwt beam="2">  1       -2 0.71353081E-01 0.16338103E+04</pdfrwt>
<totfact> 0.23440971E+01</totfact>
</mgrwt>
</event>
<event>
12    1  0.1496989E-007  0.2168091E+04  0.7818608E-02  0.8531828E-01
          2   -1    0    0  501    0  0.00000000000E+00  0.00000000000E+00  0.27102745245E+04  0.27102745245E+04  0.00000000000E+00 0. -1.
         -2   -1    0    0    0  501 -0.00000000000E+00 -0.00000000000E+00 -0.43359247424E+03  0.43359247424E+03  0.00000000000E+00 0.  1.
         23    2    1    2    0    0  0.18958128286E+03 -0.79301162471E+03  0.40990568117E+03  0.91769370915E+03  0.96594909867E+02 0.  0.
        254    2    1    2    0    0 -0.18958128286E+03  0.79301162471E+03  0.18667763691E+04  0.22261732896E+04  0.89787805596E+03 0.  0.
        -24    2    4    4    0    0  0.23283631768E+03  0.73260437484E+03  0.10941225643E+04  0.13398788172E+04  0.85141871908E+02 0.  0.
         24    2    4    4    0    0 -0.42241760054E+03  0.60407249872E+02  0.77265380488E+03  0.88629447241E+03  0.80239170940E+02 0.  0.
         11    1    3    3    0    0  0.15270236853E+03 -0.64771116637E+03  0.37470365125E+03  0.76370844872E+03  0.00000000000E+00 0. -1.
        -11    1    3    3    0    0  0.36878914323E+02 -0.14530045835E+03  0.35202029924E+02  0.15398526042E+03  0.00000000000E+00 0.  1.
          4    1    6    6  502    0 -0.36758728527E+03  0.76764753267E+02  0.64390617834E+03  0.74540486056E+03  0.00000000000E+00 0. -1.
          3    1    5    5  503    0  0.15052453347E+03  0.57828750504E+03  0.87361838678E+03  0.10584342962E+04  0.00000000000E+00 0. -1.
         -4    1    5    5    0  503  0.82311784211E+02  0.15431686980E+03  0.22050417748E+03  0.28144452102E+03  0.00000000000E+00 0.  1.
         -3    1    6    6    0  502 -0.54830315271E+02 -0.16357503394E+02  0.12874762654E+03  0.14088961186E+03  0.00000000000E+00 0.  1.
<mgrwt>
<rscale>  0 0.21680910E+04</rscale>
<asrwt>0</asrwt>
<pdfrwt beam="1">  1        2 0.41696530E+00 0.21680910E+04</pdfrwt>
<pdfrwt beam="2">  1       -2 0.66706536E-01 0.21680910E+04</pdfrwt>
<totfact> 0.49562261E+00</totfact>
</mgrwt>
</event>
<event>
12    1  0.1496989E-007  0.1486552E+04  0.7818608E-02  0.8893446E-01
         -2   -1    0    0    0  501 -0.00000000000E+00  0.00000000000E+00  0.19766929907E+03  0.19766929907E+03  0.00000000000E+00 0. -1.
          2   -1    0    0  501    0  0.00000000000E+00 -0.00000000000E+00 -0.27948643777E+04  0.27948643777E+04  0.00000000000E+00 0.  1.
         23    2    1    2    0    0 -0.18921841362E+03 -0.41986364914E+03 -0.70239619427E+03  0.84484742135E+03  0.91201204588E+02 0.  0.
        254    2    1    2    0    0  0.18921841362E+03  0.41986364914E+03 -0.18947988844E+04  0.21476862554E+04  0.90011351928E+03 0.  0.
        -24    2    4    4    0    0  0.20584126192E+03 -0.13635935982E+03 -0.13134516529E+04  0.13389577384E+04  0.81780685961E+02 0.  0.
         24    2    4    4    0    0 -0.16622848308E+02  0.55622300896E+03 -0.58134723150E+03  0.80872851705E+03  0.80105280312E+02 0.  0.
         11    1    3    3    0    0 -0.11961677692E+03 -0.25052948931E+03 -0.34097783541E+03  0.43970340296E+03  0.00000000000E+00 0.  1.
        -11    1    3    3    0    0 -0.69601636697E+02 -0.16933415983E+03 -0.36141835887E+03  0.40514401840E+03  0.00000000000E+00 0. -1.
          2    1    6    6  502    0 -0.11841442556E+02  0.23948556989E+02 -0.49593036706E+02  0.56331362786E+02  0.00000000000E+00 0. -1.
          1    1    5    5  503    0  0.14593948958E+03 -0.61595309886E+02 -0.67366189946E+03  0.69203516645E+03  0.00000000000E+00 0. -1.
         -2    1    5    5    0  503  0.59901772339E+02 -0.74764049932E+02 -0.63978975342E+03  0.64692257193E+03  0.00000000000E+00 0.  1.
         -1    1    6    6    0  502 -0.47814057523E+01  0.53227445197E+03 -0.53175419480E+03  0.75239715427E+03  0.00000000000E+00 0.  1.
<mgrwt>
<rscale>  0 0.14865516E+04</rscale>
<asrwt>0</asrwt>
<pdfrwt beam="1">  1        2 0.42997910E+00 0.14865516E+04</pdfrwt>
<pdfrwt beam="2">  1       -2 0.30410664E-01 0.14865516E+04</pdfrwt>
<totfact> 0.22640338E+01</totfact>
</mgrwt>
</event>
<event>
12    1  0.1496989E-007  0.2283646E+04  0.7818608E-02  0.8484397E-01
         -1   -1    0    0    0  501 -0.00000000000E+00  0.00000000000E+00  0.20094401245E+04  0.20094401245E+04  0.00000000000E+00 0.  1.
          1   -1    0    0  501    0  0.00000000000E+00 -0.00000000000E+00 -0.64881770091E+03  0.64881770091E+03  0.00000000000E+00 0. -1.
         23    2    1    2    0    0 -0.23573101085E+03  0.92570071699E+03  0.45963925837E+03  0.10640776842E+04  0.92207067289E+02 0.  0.
        254    2    1    2    0    0  0.23573101085E+03 -0.92570071699E+03  0.90098316523E+03  0.15941801412E+04  0.90396279332E+03 0.  0.
        -24    2    4    4    0    0 -0.14012565380E+03 -0.23000040705E+03  0.72909015093E+03  0.78093606689E+03  0.75850552351E+02 0.  0.
         24    2    4    4    0    0  0.37585666465E+03 -0.69570030994E+03  0.17189301430E+03  0.81324407433E+03  0.80941722556E+02 0.  0.
         11    1    3    3    0    0 -0.90093418747E+02  0.41155429077E+03  0.15461512411E+03  0.44877566217E+03  0.00000000000E+00 0. -1.
        -11    1    3    3    0    0 -0.14563759211E+03  0.51414642622E+03  0.30502413426E+03  0.61530202203E+03  0.00000000000E+00 0.  1.
          2    1    6    6  502    0  0.29315551866E+02 -0.46936447049E+02  0.33891570008E+02  0.64892758921E+02  0.00000000000E+00 0. -1.
          1    1    5    5  503    0 -0.79868368602E+02 -0.13521022829E+03  0.31631092736E+03  0.35314779471E+03  0.00000000000E+00 0. -1.
         -2    1    5    5    0  503 -0.60257285195E+02 -0.94790178758E+02  0.41277922357E+03  0.42778827219E+03  0.00000000000E+00 0.  1.
         -1    1    6    6    0  502  0.34654111278E+03 -0.64876386289E+03  0.13800144429E+03  0.74835131541E+03  0.00000000000E+00 0.  1.
<mgrwt>
<rscale>  0 0.22836465E+04</rscale>
<asrwt>0</asrwt>
<pdfrwt beam="1">  1        1 0.99818109E-01 0.22836465E+04</pdfrwt>
<pdfrwt beam="2">  1       -1 0.30914463E+00 0.22836465E+04</pdfrwt>
<totfact> 0.79648748E-01</totfact>
</mgrwt>
</event>
<event>
12    1  0.1496989E-007  0.1194430E+04  0.7818608E-02  0.9117746E-01
          2   -1    0    0  501    0  0.00000000000E+00  0.00000000000E+00  0.60892723085E+03  0.60892723085E+03  0.00000000000E+00 0.  1.
         -2   -1    0    0    0  501 -0.00000000000E+00 -0.00000000000E+00 -0.58572774149E+03  0.58572774149E+03  0.00000000000E+00 0. -1.
         23    2    1    2    0    0  0.57626671282E+02  0.23281969973E+03 -0.61816357581E+02  0.26382350760E+03  0.90861076795E+02 0.  0.
        254    2    1    2    0    0 -0.57626671282E+02 -0.23281969973E+03  0.85015846931E+02  0.93083146474E+03  0.89537348391E+03 0.  0.
        -24    2    4    4    0    0 -0.42013163714E+03 -0.29586318708E+02 -0.14190942332E+03  0.45131594267E+03  0.78497470642E+02 0.  0.
         24    2    4    4    0    0  0.36250496586E+03 -0.20323338102E+03  0.22692527025E+03  0.47951552207E+03  0.75672981914E+02 0.  0.
         13    1    3    3    0    0  0.15900066508E+02  0.20645344783E+03 -0.52075278686E+02  0.21351269959E+03  0.00000000000E+00 0. -1.
        -13    1    3    3    0    0  0.41726604774E+02  0.26366251897E+02 -0.97410788948E+01  0.50310808015E+02  0.00000000000E+00 0.  1.
          4    1    6    6  502    0  0.31379851862E+03 -0.14982428728E+03  0.16764674865E+03  0.38603401363E+03  0.00000000000E+00 0. -1.
          1    1    5    5  503    0 -0.57118921130E+02 -0.12446272455E+02  0.63853025624E+01  0.58806912331E+02  0.00000000000E+00 0. -1.
         -2    1    5    5    0  503 -0.36301271601E+03 -0.17140046254E+02 -0.14829472588E+03  0.39250903034E+03  0.00000000000E+00 0.  1.
         -3    1    6    6    0  502  0.48706447246E+02 -0.53409093739E+02  0.59278521599E+02  0.93481508441E+02  0.00000000000E+00 0.  1.
<mgrwt>
<rscale>  0 0.11944297E+04</rscale>
<asrwt>0</asrwt>
<pdfrwt beam="1">  1        2 0.93681113E-01 0.11944297E+04</pdfrwt>
<pdfrwt beam="2">  1       -2 0.90111960E-01 0.11944297E+04</pdfrwt>
<totfact> 0.50694087E+01</totfact>
</mgrwt>
</event>
<event>
12    1  0.1496989E-007  0.1368349E+04  0.7818608E-02  0.8977053E-01
          2   -1    0    0  501    0  0.00000000000E+00  0.00000000000E+00  0.15823187828E+04  0.15823187828E+04  0.00000000000E+00 0. -1.
         -2   -1    0    0    0  501 -0.00000000000E+00 -0.00000000000E+00 -0.29582836240E+03  0.29582836240E+03  0.00000000000E+00 0.  1.
         23    2    1    2    0    0 -0.64988899958E+02 -0.18362093910E+03  0.79554160663E+03  0.82382885313E+03  0.88697942384E+02 0.  0.
        254    2    1    2    0    0  0.64988899958E+02  0.18362093910E+03  0.49094881375E+03  0.10543182920E+04  0.91247800895E+03 0.  0.
        -24    2    4    4    0    0 -0.16821288215E+01 -0.35036990832E+03  0.32902202463E+03  0.48697326872E+03  0.78266017839E+02 0.  0.
         24    2    4    4    0    0  0.66671028780E+02  0.53399084742E+03  0.16192678912E+03  0.56734502331E+03  0.77902755048E+02 0.  0.
         13    1    3    3    0    0 -0.70984352392E+02 -0.17850621667E+03  0.79238620531E+03  0.81533989602E+03  0.00000000000E+00 0. -1.
        -13    1    3    3    0    0  0.59954524341E+01 -0.51147224305E+01  0.31554013212E+01  0.84889571166E+01  0.00000000000E+00 0.  1.
          4    1    6    6  502    0  0.22329804640E+01  0.83647527188E+01 -0.73813245293E+01  0.11377136793E+02  0.00000000000E+00 0. -1.
          1    1    5    5  503    0  0.84482756105E+01 -0.63294241500E+01  0.27259028578E+02  0.29231654244E+02  0.00000000000E+00 0. -1.
         -2    1    5    5    0  503 -0.10130404432E+02 -0.34404048417E+03  0.30176299605E+03  0.45774161448E+03  0.00000000000E+00 0.  1.
         -3    1    6    6    0  502  0.64438048316E+02  0.52562609470E+03  0.16930811365E+03  0.55596788652E+03  0.00000000000E+00 0.  1.
<mgrwt>
<rscale>  0 0.13683490E+04</rscale>
<asrwt>0</asrwt>
<pdfrwt beam="1">  1        2 0.24343365E+00 0.13683490E+04</pdfrwt>
<pdfrwt beam="2">  1       -2 0.45512057E-01 0.13683490E+04</pdfrwt>
<totfact> 0.50941305E+01</totfact>
</mgrwt>
</event>
<event>
12    1  0.1496989E-007  0.2306198E+04  0.7818608E-02  0.8475481E-01
         -1   -1    0    0    0  501 -0.00000000000E+00  0.00000000000E+00  0.48635125394E+03  0.48635125394E+03  0.00000000000E+00 0.  1.
          1   -1    0    0  501    0  0.00000000000E+00 -0.00000000000E+00 -0.27339039580E+04  0.27339039580E+04  0.00000000000E+00 0. -1.
         23    2    1    2    0    0 -0.41551639079E+03 -0.56109095950E+03 -0.19007522768E+04  0.20272543536E+04  0.97077599923E+02 0.  0.
        254    2    1    2    0    0  0.41551639079E+03  0.56109095950E+03 -0.34680042727E+03  0.11930008584E+04  0.90305236610E+03 0.  0.
        -24    2    4    4    0    0  0.58096257831E+03  0.14734403795E+03  0.27706393887E+02  0.60533317388E+03  0.80204888958E+02 0.  0.
         24    2    4    4    0    0 -0.16544618752E+03  0.41374692154E+03 -0.37450682116E+03  0.58766768452E+03  0.80864035757E+02 0.  0.
         13    1    3    3    0    0 -0.39581024564E+03 -0.50497186918E+03 -0.16714950205E+04  0.17904072003E+04  0.00000000000E+00 0. -1.
        -13    1    3    3    0    0 -0.19706145158E+02 -0.56119090319E+02 -0.22925725631E+03  0.23684715330E+03  0.00000000000E+00 0.  1.
          2    1    6    6  502    0 -0.31171804663E+02  0.52996737502E+02 -0.20801465931E+02  0.64907908430E+02  0.00000000000E+00 0. -1.
          3    1    5    5  503    0  0.25648380150E+03  0.51698661445E+02 -0.25542652233E+02  0.26288613336E+03  0.00000000000E+00 0. -1.
         -4    1    5    5    0  503  0.32447877681E+03  0.95645376508E+02  0.53249046120E+02  0.34244704052E+03  0.00000000000E+00 0.  1.
         -1    1    6    6    0  502 -0.13427438285E+03  0.36075018404E+03 -0.35370535523E+03  0.52275977609E+03  0.00000000000E+00 0.  1.
<mgrwt>
<rscale>  0 0.23061983E+04</rscale>
<asrwt>0</asrwt>
<pdfrwt beam="1">  1        1 0.42060062E+00 0.23061983E+04</pdfrwt>
<pdfrwt beam="2">  1       -1 0.74823268E-01 0.23061983E+04</pdfrwt>
<totfact> 0.15075282E+00</totfact>
</mgrwt>
</event>
<event>
12    1  0.1496989E-007  0.1754177E+04  0.7818608E-02  0.8731054E-01
         -2   -1    0    0    0  501 -0.00000000000E+00  0.00000000000E+00  0.28305719759E+03  0.28305719759E+03  0.00000000000E+00 0.  1.
          2   -1    0    0  501    0  0.00000000000E+00 -0.00000000000E+00 -0.27177706675E+04  0.27177706675E+04  0.00000000000E+00 0. -1.
         23    2    1    2    0    0  0.81078169869E+02 -0.16021104733E+03 -0.22141034027E+04  0.22231753124E+04  0.89517273200E+02 0.  0.
        254    2    1    2    0    0 -0.81078169869E+02  0.16021104733E+03 -0.22061006720E+03  0.77765255276E+03  0.72376338795E+03 0.  0.
        -24    2    4    4    0    0  0.63754964390E+02  0.27030367631E+03 -0.41152942369E+03  0.50197949958E+03  0.74149703521E+02 0.  0.
         24    2    4    4    0    0 -0.14483313426E+03 -0.11009262897E+03  0.19091935649E+03  0.27567305317E+03  0.80301978994E+02 0.  0.
         11    1    3    3    0    0  0.45274120558E+02 -0.15811562744E+03 -0.17689213069E+04  0.17765508402E+04  0.00000000000E+00 0. -1.
        -11    1    3    3    0    0  0.35804049312E+02 -0.20954198931E+01 -0.44518209581E+03  0.44662447219E+03  0.00000000000E+00 0.  1.
          4    1    6    6  502    0 -0.45552483325E+01 -0.66574510299E+01 -0.78897367750E+01  0.11283611477E+02  0.00000000000E+00 0. -1.
          3    1    5    5  503    0 -0.68402698060E+01  0.40804147922E+01 -0.32414856035E+02  0.33379064811E+02  0.00000000000E+00 0. -1.
         -4    1    5    5    0  503  0.70595234196E+02  0.26622326151E+03 -0.37911456765E+03  0.46860043477E+03  0.00000000000E+00 0.  1.
         -3    1    6    6    0  502 -0.14027788593E+03 -0.10343517794E+03  0.19880909326E+03  0.26438944170E+03  0.00000000000E+00 0.  1.
<mgrwt>
<rscale>  0 0.17541774E+04</rscale>
<asrwt>0</asrwt>
<pdfrwt beam="1">  1        2 0.41811854E+00 0.17541774E+04</pdfrwt>
<pdfrwt beam="2">  1       -2 0.43547263E-01 0.17541774E+04</pdfrwt>
<totfact> 0.12307935E+01</totfact>
</mgrwt>
</event>
<event>
12    1  0.1496989E-007  0.1326162E+04  0.7818608E-02  0.9009072E-01
         -1   -1    0    0    0  501 -0.00000000000E+00  0.00000000000E+00  0.70903540865E+03  0.70903540865E+03  0.00000000000E+00 0.  1.
          1   -1    0    0  501    0  0.00000000000E+00 -0.00000000000E+00 -0.62010464930E+03  0.62010464930E+03  0.00000000000E+00 0. -1.
         23    2    1    2    0    0  0.27938194929E+03 -0.56295107310E+02 -0.10432394488E+03  0.31758432514E+03  0.93556963402E+02 0.  0.
        254    2    1    2    0    0 -0.27938194929E+03  0.56295107310E+02  0.19325470423E+03  0.10115557328E+04  0.95114363120E+03 0.  0.
        -24    2    4    4    0    0  0.32062922854E+03 -0.47576566065E+02 -0.73710917794E+02  0.34182079703E+03  0.79633699211E+02 0.  0.
         24    2    4    4    0    0 -0.60001117783E+03  0.10387167337E+03  0.26696562202E+03  0.66973493577E+03  0.80445651185E+02 0.  0.
         11    1    3    3    0    0  0.13785154295E+03 -0.69629810501E+02 -0.77970296420E+02  0.17300498701E+03  0.00000000000E+00 0. -1.
        -11    1    3    3    0    0  0.14153040634E+03  0.13334703191E+02 -0.26353648457E+02  0.14457933813E+03  0.00000000000E+00 0.  1.
          2    1    6    6  502    0 -0.10644179499E+02 -0.13719512620E+01  0.18802022817E+02  0.21649408063E+02  0.00000000000E+00 0. -1.
          3    1    5    5  503    0  0.79117948846E+01 -0.17280333476E+02 -0.90685162179E+01  0.21058119805E+02  0.00000000000E+00 0. -1.
         -4    1    5    5    0  503  0.31271743366E+03 -0.30296232589E+02 -0.64642401576E+02  0.32076267723E+03  0.00000000000E+00 0.  1.
         -1    1    6    6    0  502 -0.58936699833E+03  0.10524362464E+03  0.24816359921E+03  0.64808552771E+03  0.00000000000E+00 0.  1.
<mgrwt>
<rscale>  0 0.13261616E+04</rscale>
<asrwt>0</asrwt>
<pdfrwt beam="1">  1        1 0.95400715E-01 0.13261616E+04</pdfrwt>
<pdfrwt beam="2">  1       -1 0.10908237E+00 0.13261616E+04</pdfrwt>
<totfact> 0.24930734E+01</totfact>
</mgrwt>
</event>
<event>
12    1  0.1496989E-007  0.1781050E+04  0.7818608E-02  0.8716442E-01
         -1   -1    0    0    0  501 -0.00000000000E+00  0.00000000000E+00  0.55687851737E+03  0.55687851737E+03  0.00000000000E+00 0.  1.
          1   -1    0    0  501    0  0.00000000000E+00 -0.00000000000E+00 -0.14240707787E+04  0.14240707787E+04  0.00000000000E+00 0. -1.
         23    2    1    2    0    0 -0.11033785816E+03  0.55534025849E+03  0.50241064234E+02  0.57585320575E+03  0.92225291528E+02 0.  0.
        254    2    1    2    0    0  0.11033785816E+03 -0.55534025849E+03 -0.91743332556E+03  0.14050960903E+04  0.90112921966E+03 0.  0.
        -24    2    4    4    0    0  0.49057945840E+03 -0.21609135794E+03 -0.54656948386E+03  0.76966025524E+03  0.79215073232E+02 0.  0.
         24    2    4    4    0    0 -0.38024160024E+03 -0.33924890055E+03 -0.37086384170E+03  0.63543583507E+03  0.81026047322E+02 0.  0.
         13    1    3    3    0    0 -0.12036372294E+03  0.54591487217E+03  0.44035638394E+02  0.56075806807E+03  0.00000000000E+00 0. -1.
        -13    1    3    3    0    0  0.10025864777E+02  0.94253863168E+01  0.62054258398E+01  0.15095137681E+02  0.00000000000E+00 0.  1.
          4    1    6    6  502    0 -0.25390805433E+03 -0.23104743528E+03 -0.20156262183E+03  0.39809509910E+03  0.00000000000E+00 0. -1.
          1    1    5    5  503    0  0.14187682390E+03 -0.91360289970E+02 -0.20839094853E+03  0.26814645844E+03  0.00000000000E+00 0. -1.
         -2    1    5    5    0  503  0.34870263450E+03 -0.12473106797E+03 -0.33817853533E+03  0.50151379680E+03  0.00000000000E+00 0.  1.
         -3    1    6    6    0  502 -0.12633354590E+03 -0.10820146527E+03 -0.16930121986E+03  0.23734073597E+03  0.00000000000E+00 0.  1.
<mgrwt>
<rscale>  0 0.17810496E+04</rscale>
<asrwt>0</asrwt>
<pdfrwt beam="1">  1        1 0.21908781E+00 0.17810496E+04</pdfrwt>
<pdfrwt beam="2">  1       -1 0.85673618E-01 0.17810496E+04</pdfrwt>
<totfact> 0.93991840E+00</totfact>
</mgrwt>
</event>
<event>
12    1  0.1496989E-007  0.1954150E+04  0.7818608E-02  0.8628362E-01
         -1   -1    0    0    0  501 -0.00000000000E+00  0.00000000000E+00  0.43301935063E+03  0.43301935063E+03  0.00000000000E+00 0. -1.
          1   -1    0    0  501    0  0.00000000000E+00 -0.00000000000E+00 -0.22046955340E+04  0.22046955340E+04  0.00000000000E+00 0.  1.
         23    2    1    2    0    0 -0.15199113210E+03  0.16755999382E+03  0.28949637507E+03  0.37860794661E+03  0.91423029323E+02 0.  0.
        254    2    1    2    0    0  0.15199113210E+03 -0.16755999382E+03 -0.20611725584E+04  0.22591069380E+04  0.89663492347E+03 0.  0.
        -24    2    4    4    0    0 -0.97583046964E+02  0.24869592182E+03 -0.14395097562E+04  0.14662298038E+04  0.79179458745E+02 0.  0.
         24    2    4    4    0    0  0.24957417907E+03 -0.41625591564E+03 -0.62166280218E+03  0.79287713419E+03  0.81444779756E+02 0.  0.
         11    1    3    3    0    0 -0.11949625195E+03  0.17370260769E+03  0.25374356321E+03  0.32990566230E+03  0.00000000000E+00 0. -1.
        -11    1    3    3    0    0 -0.32494880151E+02 -0.61426138646E+01  0.35752811862E+02  0.48702284311E+02  0.00000000000E+00 0.  1.
          2    1    6    6  502    0  0.42322884250E+02 -0.71403313472E+02 -0.62001889229E+02  0.10360450750E+03  0.00000000000E+00 0. -1.
          1    1    5    5  503    0  0.44857936596E+00  0.85235543271E+02 -0.54633761122E+03  0.55294672844E+03  0.00000000000E+00 0. -1.
         -2    1    5    5    0  503 -0.98031626330E+02  0.16346037855E+03 -0.89317214501E+03  0.91328307536E+03  0.00000000000E+00 0.  1.
         -1    1    6    6    0  502  0.20725129482E+03 -0.34485260217E+03 -0.55966091295E+03  0.68927262670E+03  0.00000000000E+00 0.  1.
<mgrwt>
<rscale>  0 0.19541503E+04</rscale>
<asrwt>0</asrwt>
<pdfrwt beam="1">  1        1 0.33918394E+00 0.19541503E+04</pdfrwt>
<pdfrwt beam="2">  1       -1 0.66618359E-01 0.19541503E+04</pdfrwt>
<totfact> 0.45985985E+00</totfact>
</mgrwt>
</event>
<event>
12    1  0.1496989E-007  0.1187136E+04  0.7818608E-02  0.9124192E-01
          1   -1    0    0  501    0  0.00000000000E+00  0.00000000000E+00  0.39459394040E+04  0.39459394040E+04  0.00000000000E+00 0. -1.
         -1   -1    0    0    0  501 -0.00000000000E+00 -0.00000000000E+00 -0.89287450286E+02  0.89287450286E+02  0.00000000000E+00 0.  1.
         23    2    1    2    0    0 -0.33035219849E+02 -0.10649306531E+03  0.11036593251E+03  0.18192632163E+03  0.92111067365E+02 0.  0.
        254    2    1    2    0    0  0.33035219849E+02  0.10649306531E+03  0.37462860212E+04  0.38533005326E+04  0.89489325824E+03 0.  0.
        -24    2    4    4    0    0  0.37563215072E+03  0.25026054569E+03  0.27334717090E+04  0.27715375272E+04  0.76307454442E+02 0.  0.
         24    2    4    4    0    0 -0.34259693087E+03 -0.14376748038E+03  0.10128143122E+04  0.10817630054E+04  0.79853762833E+02 0.  0.
         11    1    3    3    0    0 -0.59924013863E+02 -0.99893190774E+02  0.94621366635E+02  0.15007578094E+03  0.00000000000E+00 0.  1.
        -11    1    3    3    0    0  0.26888794014E+02 -0.65998745380E+01  0.15744565880E+02  0.31850540690E+02  0.00000000000E+00 0. -1.
          4    1    6    6  502    0 -0.14573369984E+03 -0.19238165516E+02  0.38091757520E+03  0.40829721696E+03  0.00000000000E+00 0. -1.
          3    1    5    5  503    0  0.21443037577E+03  0.13185198666E+03  0.17417991085E+04  0.17598947317E+04  0.00000000000E+00 0. -1.
         -4    1    5    5    0  503  0.16120177496E+03  0.11840855903E+03  0.99167260049E+03  0.10116427955E+04  0.00000000000E+00 0.  1.
         -3    1    6    6    0  502 -0.19686323104E+03 -0.12452931487E+03  0.63189673702E+03  0.67346578848E+03  0.00000000000E+00 0.  1.
<mgrwt>
<rscale>  0 0.11871358E+04</rscale>
<asrwt>0</asrwt>
<pdfrwt beam="1">  1        1 0.60706747E+00 0.11871358E+04</pdfrwt>
<pdfrwt beam="2">  1       -1 0.13736534E-01 0.11871358E+04</pdfrwt>
<totfact> 0.41620757E+00</totfact>
</mgrwt>
</event>
<event>
12    1  0.1754388E-007  0.1571840E+04  0.7818608E-02  0.8838037E-01
         -2   -1    0    0    0  501 -0.00000000000E+00  0.00000000000E+00  0.39996501793E+03  0.39996501793E+03  0.00000000000E+00 0. -1.
          2   -1    0    0  501    0  0.00000000000E+00 -0.00000000000E+00 -0.15443101106E+04  0.15443101106E+04  0.00000000000E+00 0.  1.
         23    2    1    2    0    0 -0.13189789398E+03  0.17642888416E+03 -0.96660111625E+03  0.99560931307E+03  0.91629584397E+02 0.  0.
        254    2    1    2    0    0  0.13189789398E+03 -0.17642888416E+03 -0.17774397638E+03  0.94866581542E+03  0.90545552215E+03 0.  0.
        -24    2    4    4    0    0  0.60469750497E+01  0.24697280126E+03 -0.37553996858E+03  0.45786919468E+03  0.87073537686E+02 0.  0.
         24    2    4    4    0    0  0.12585091893E+03 -0.42340168542E+03  0.19779599221E+03  0.49079662074E+03  0.81551378810E+02 0.  0.
         11    1    3    3    0    0 -0.12922007034E+03  0.11563062313E+03 -0.62400544961E+03  0.64765042170E+03  0.00000000000E+00 0.  1.
        -11    1    3    3    0    0 -0.26778236316E+01  0.60798261027E+02 -0.34259566663E+03  0.34795889137E+03  0.00000000000E+00 0. -1.
          2    1    6    6  502    0  0.10813225692E+03 -0.39989406185E+03  0.20230594472E+03  0.46101577083E+03  0.00000000000E+00 0. -1.
          3    1    5    5  503    0  0.40746992113E+02  0.19510044269E+03 -0.27775277556E+03  0.34186416079E+03  0.00000000000E+00 0. -1.
         -4    1    5    5    0  503 -0.34700017064E+02  0.51872358570E+02 -0.97787193026E+02  0.11600503389E+03  0.00000000000E+00 0.  1.
         -3    1    6    6    0  502  0.17718662011E+02 -0.23507623567E+02 -0.45099525160E+01  0.29780849902E+02  0.00000000000E+00 0.  1.
<mgrwt>
<rscale>  0 0.15718397E+04</rscale>
<asrwt>0</asrwt>
<pdfrwt beam="1">  1        2 0.23758616E+00 0.15718397E+04</pdfrwt>
<pdfrwt beam="2">  1       -2 0.61533082E-01 0.15718397E+04</pdfrwt>
<totfact> 0.28268354E+01</totfact>
</mgrwt>
</event>
<event>
12    1  0.1496989E-007  0.1557756E+04  0.7818608E-02  0.8846928E-01
         -1   -1    0    0    0  501 -0.00000000000E+00  0.00000000000E+00  0.57874863900E+03  0.57874863900E+03  0.00000000000E+00 0.  1.
          1   -1    0    0  501    0  0.00000000000E+00 -0.00000000000E+00 -0.10482120859E+04  0.10482120859E+04  0.00000000000E+00 0. -1.
         23    2    1    2    0    0  0.19791635291E+03  0.45528113591E+03 -0.31588333350E+03  0.59552465613E+03  0.91736253543E+02 0.  0.
        254    2    1    2    0    0 -0.19791635291E+03 -0.45528113591E+03 -0.15358011344E+03  0.10314360688E+04  0.89096673189E+03 0.  0.
        -24    2    4    4    0    0 -0.21161244655E+03 -0.70657448502E+03 -0.18936186062E+03  0.76506278983E+03  0.73728065973E+02 0.  0.
         24    2    4    4    0    0  0.13696093638E+02  0.25129334911E+03  0.35781747178E+02  0.26637327898E+03  0.79614446150E+02 0.  0.
         11    1    3    3    0    0  0.86601613943E+02  0.26529992036E+03 -0.21999508461E+03  0.35536139989E+03  0.00000000000E+00 0. -1.
        -11    1    3    3    0    0  0.11131473897E+03  0.18998121556E+03 -0.95888248895E+02  0.24016325625E+03  0.00000000000E+00 0.  1.
          4    1    6    6  502    0  0.26782793729E+02  0.15805210464E+03  0.56490726986E+02  0.16996760884E+03  0.00000000000E+00 0. -1.
          1    1    5    5  503    0 -0.17872636009E+03 -0.57792346740E+03 -0.12590733613E+03  0.61789263084E+03  0.00000000000E+00 0. -1.
         -2    1    5    5    0  503 -0.32886086464E+02 -0.12865101762E+03 -0.63454524497E+02  0.14717015899E+03  0.00000000000E+00 0.  1.
         -3    1    6    6    0  502 -0.13086700091E+02  0.93241244472E+02 -0.20708979807E+02  0.96405670138E+02  0.00000000000E+00 0.  1.
<mgrwt>
<rscale>  0 0.15577565E+04</rscale>
<asrwt>0</asrwt>
<pdfrwt beam="1">  1        1 0.16126340E+00 0.15577565E+04</pdfrwt>
<pdfrwt beam="2">  1       -1 0.89038253E-01 0.15577565E+04</pdfrwt>
<totfact> 0.16537589E+01</totfact>
</mgrwt>
</event>
<event>
12    1  0.1496989E-007  0.1682745E+04  0.7818608E-02  0.8771267E-01
          1   -1    0    0  501    0  0.00000000000E+00  0.00000000000E+00  0.60770988673E+03  0.60770988673E+03  0.00000000000E+00 0. -1.
         -1   -1    0    0    0  501 -0.00000000000E+00 -0.00000000000E+00 -0.11648777361E+04  0.11648777361E+04  0.00000000000E+00 0.  1.
         23    2    1    2    0    0  0.23999220918E+03  0.41862267428E+03 -0.58065588601E+03  0.76054988447E+03  0.91834987527E+02 0.  0.
        254    2    1    2    0    0 -0.23999220918E+03 -0.41862267428E+03  0.23488036671E+02  0.10120377383E+04  0.88928482052E+03 0.  0.
        -24    2    4    4    0    0  0.12140393277E+03 -0.12723877389E+03 -0.35787182233E+03  0.40595614585E+03  0.76154649632E+02 0.  0.
         24    2    4    4    0    0 -0.36139614195E+03 -0.29138390039E+03  0.38135985901E+03  0.60608159246E+03  0.79923750159E+02 0.  0.
         13    1    3    3    0    0  0.36232850996E+02  0.36477099826E+02 -0.28393980912E+02  0.58733435580E+02  0.00000000000E+00 0. -1.
        -13    1    3    3    0    0  0.20375935818E+03  0.38214557445E+03 -0.55226190509E+03  0.70181644889E+03  0.00000000000E+00 0.  1.
          4    1    6    6  502    0 -0.73874409186E+02 -0.24245412823E+02  0.76990487625E+02  0.10942030689E+03  0.00000000000E+00 0. -1.
          3    1    5    5  503    0  0.78211804149E+01 -0.36090216399E+02 -0.13310838197E+03  0.13813586042E+03  0.00000000000E+00 0. -1.
         -4    1    5    5    0  503  0.11358275235E+03 -0.91148557487E+02 -0.22476344036E+03  0.26782028543E+03  0.00000000000E+00 0.  1.
         -3    1    6    6    0  502 -0.28752173276E+03 -0.26713848757E+03  0.30436937138E+03  0.49666128557E+03  0.00000000000E+00 0.  1.
<mgrwt>
<rscale>  0 0.16827450E+04</rscale>
<asrwt>0</asrwt>
<pdfrwt beam="1">  1        1 0.93493829E-01 0.16827450E+04</pdfrwt>
<pdfrwt beam="2">  1       -1 0.17921196E+00 0.16827450E+04</pdfrwt>
<totfact> 0.67544989E+00</totfact>
</mgrwt>
</event>
<event>
12    1  0.1496989E-007  0.1038554E+04  0.7818608E-02  0.9267242E-01
         -2   -1    0    0    0  501 -0.00000000000E+00  0.00000000000E+00  0.36220432063E+03  0.36220432063E+03  0.00000000000E+00 0.  1.
          2   -1    0    0  501    0  0.00000000000E+00 -0.00000000000E+00 -0.74446486399E+03  0.74446486399E+03  0.00000000000E+00 0. -1.
         23    2    1    2    0    0 -0.27613624743E+02  0.21276050112E+02 -0.14749715944E+03  0.17647602287E+03  0.90405707924E+02 0.  0.
        254    2    1    2    0    0  0.27613624743E+02 -0.21276050112E+02 -0.23476338392E+03  0.93019316175E+03  0.89940551986E+03 0.  0.
        -24    2    4    4    0    0  0.11168304492E+02  0.25185062657E+03 -0.48271870165E+03  0.55117268154E+03  0.84973588978E+02 0.  0.
         24    2    4    4    0    0  0.16445320251E+02 -0.27312667668E+03  0.24795531773E+03  0.37902048021E+03  0.85475462892E+02 0.  0.
         13    1    3    3    0    0 -0.12336375398E+02  0.27501318134E+02 -0.15532047808E+03  0.15821807599E+03  0.00000000000E+00 0. -1.
        -13    1    3    3    0    0 -0.15277249345E+02 -0.62252680221E+01  0.78233186490E+01  0.18257946877E+02  0.00000000000E+00 0.  1.
          2    1    6    6  502    0  0.23023026963E+02 -0.54840308069E+02  0.18582693420E+02  0.62312403697E+02  0.00000000000E+00 0. -1.
          3    1    5    5  503    0 -0.10696111785E+02  0.94984517542E+01 -0.51866471182E+01  0.15216067211E+02  0.00000000000E+00 0. -1.
         -4    1    5    5    0  503  0.21864416277E+02  0.24235217482E+03 -0.47753205453E+03  0.53595661433E+03  0.00000000000E+00 0.  1.
         -1    1    6    6    0  502 -0.65777067124E+01 -0.21828636861E+03  0.22937262431E+03  0.31670807652E+03  0.00000000000E+00 0.  1.
<mgrwt>
<rscale>  0 0.10385536E+04</rscale>
<asrwt>0</asrwt>
<pdfrwt beam="1">  1        2 0.11453306E+00 0.10385536E+04</pdfrwt>
<pdfrwt beam="2">  1       -2 0.55723742E-01 0.10385536E+04</pdfrwt>
<totfact> 0.11416470E+02</totfact>
</mgrwt>
</event>
<event>
12    1  0.1496989E-007  0.1695783E+04  0.7818608E-02  0.8763773E-01
         -1   -1    0    0    0  501 -0.00000000000E+00  0.00000000000E+00  0.68502715325E+03  0.68502715325E+03  0.00000000000E+00 0.  1.
          1   -1    0    0  501    0  0.00000000000E+00 -0.00000000000E+00 -0.10494762282E+04  0.10494762282E+04  0.00000000000E+00 0. -1.
         23    2    1    2    0    0  0.50423069132E+03 -0.31282658756E+03 -0.22183316462E+03  0.63951840419E+03  0.87548686003E+02 0.  0.
        254    2    1    2    0    0 -0.50423069132E+03  0.31282658756E+03 -0.14261591031E+03  0.10949849772E+04  0.90914450917E+03 0.  0.
        -24    2    4    4    0    0  0.18673300113E+03 -0.32930881995E+02 -0.23460868045E+03  0.31262909943E+03  0.82110073498E+02 0.  0.
         24    2    4    4    0    0 -0.69096369246E+03  0.34575746956E+03  0.91992770137E+02  0.78235587781E+03  0.81480044991E+02 0.  0.
         13    1    3    3    0    0  0.74782831298E+02 -0.55369134344E+02 -0.69530827944E+02  0.11615829256E+03  0.00000000000E+00 0.  1.
        -13    1    3    3    0    0  0.42944786002E+03 -0.25745745322E+03 -0.15230233668E+03  0.52336011164E+03  0.00000000000E+00 0. -1.
          2    1    6    6  502    0 -0.11275410547E+03  0.65934889407E+02  0.45498686389E+02  0.13831496089E+03  0.00000000000E+00 0. -1.
          1    1    5    5  503    0  0.14549698144E+02 -0.20266853855E+02 -0.69086630240E+02  0.73453397193E+02  0.00000000000E+00 0. -1.
         -2    1    5    5    0  503  0.17218330299E+03 -0.12664028140E+02 -0.16552205021E+03  0.23917570224E+03  0.00000000000E+00 0.  1.
         -1    1    6    6    0  502 -0.57820958698E+03  0.27982258015E+03  0.46494083748E+02  0.64404091692E+03  0.00000000000E+00 0.  1.
<mgrwt>
<rscale>  0 0.16957827E+04</rscale>
<asrwt>0</asrwt>
<pdfrwt beam="1">  1        1 0.16145788E+00 0.16957827E+04</pdfrwt>
<pdfrwt beam="2">  1       -1 0.10538879E+00 0.16957827E+04</pdfrwt>
<totfact> 0.11132101E+01</totfact>
</mgrwt>
</event>
<event>
12    1  0.1496989E-007  0.1936589E+04  0.7818608E-02  0.8636855E-01
         -3   -1    0    0    0  501 -0.00000000000E+00  0.00000000000E+00  0.88484178773E+03  0.88484178773E+03  0.00000000000E+00 0.  1.
          3   -1    0    0  501    0  0.00000000000E+00 -0.00000000000E+00 -0.10596180270E+04  0.10596180270E+04  0.00000000000E+00 0. -1.
         23    2    1    2    0    0  0.68765153987E+03  0.31305928591E+03  0.43522786364E+02  0.76198525988E+03  0.88637162387E+02 0.  0.
        254    2    1    2    0    0 -0.68765153987E+03 -0.31305928591E+03 -0.21829902562E+03  0.11824745548E+04  0.88301803576E+03 0.  0.
        -24    2    4    4    0    0 -0.74992886705E+03 -0.41948146236E+03  0.62604250997E+02  0.86527454726E+03  0.80142042695E+02 0.  0.
         24    2    4    4    0    0  0.62277327177E+02  0.10642217645E+03 -0.28090327662E+03  0.31720000758E+03  0.80653883185E+02 0.  0.
         11    1    3    3    0    0  0.65845852519E+02  0.18412898137E+02 -0.19289600375E+02  0.71040831881E+02  0.00000000000E+00 0. -1.
        -11    1    3    3    0    0  0.62180568735E+03  0.29464638777E+03  0.62812386739E+02  0.69094442799E+03  0.00000000000E+00 0.  1.
          4    1    6    6  502    0  0.30072916494E+02  0.28165608450E+02 -0.18395817423E+03  0.18851602497E+03  0.00000000000E+00 0. -1.
          3    1    5    5  503    0 -0.41499194597E+03 -0.19256286376E+03  0.53449809741E+02  0.46060357562E+03  0.00000000000E+00 0. -1.
         -4    1    5    5    0  503 -0.33493692108E+03 -0.22691859860E+03  0.91544412557E+01  0.40467097164E+03  0.00000000000E+00 0.  1.
         -3    1    6    6    0  502  0.32204410683E+02  0.78256567995E+02 -0.96945102389E+02  0.12868398260E+03  0.00000000000E+00 0.  1.
<mgrwt>
<rscale>  0 0.19365891E+04</rscale>
<asrwt>0</asrwt>
<pdfrwt beam="1">  1        3 0.16301816E+00 0.19365891E+04</pdfrwt>
<pdfrwt beam="2">  1       -3 0.13612951E+00 0.19365891E+04</pdfrwt>
<totfact> 0.26241368E-01</totfact>
</mgrwt>
</event>
<event>
12    1  0.1496989E-007  0.1721776E+04  0.7818608E-02  0.8749041E-01
         -2   -1    0    0    0  501 -0.00000000000E+00  0.00000000000E+00  0.14911598525E+04  0.14911598525E+04  0.00000000000E+00 0. -1.
          2   -1    0    0  501    0  0.00000000000E+00 -0.00000000000E+00 -0.49701465415E+03  0.49701465415E+03  0.00000000000E+00 0.  1.
         23    2    1    2    0    0 -0.36287482201E+03  0.26764004432E+03  0.91442271761E+03  0.10233647452E+04  0.88301559696E+02 0.  0.
        254    2    1    2    0    0  0.36287482201E+03 -0.26764004432E+03  0.79722480782E+02  0.96480976151E+03  0.84923075320E+03 0.  0.
        -24    2    4    4    0    0  0.27314423744E+03  0.15468228689E+03  0.32755129476E+03  0.46072803717E+03  0.80287540781E+02 0.  0.
         24    2    4    4    0    0  0.89730584570E+02 -0.42232233121E+03 -0.24782881398E+03  0.50408172434E+03  0.79193020700E+02 0.  0.
         13    1    3    3    0    0 -0.13872447606E+02  0.33922541114E+02  0.10900608423E+03  0.11500221735E+03  0.00000000000E+00 0.  1.
        -13    1    3    3    0    0 -0.34900237440E+03  0.23371750320E+03  0.80541663339E+03  0.90836252784E+03  0.00000000000E+00 0. -1.
          4    1    6    6  502    0  0.53649337885E+02 -0.37760792072E+03 -0.21178460124E+03  0.43625532727E+03  0.00000000000E+00 0. -1.
          1    1    5    5  503    0  0.22655441033E+03  0.11040766713E+03  0.29713380924E+03  0.38962193777E+03  0.00000000000E+00 0. -1.
         -2    1    5    5    0  503  0.46589827112E+02  0.44274619762E+02  0.30417485524E+02  0.71106099394E+02  0.00000000000E+00 0.  1.
         -3    1    6    6    0  502  0.36081246685E+02 -0.44714410492E+02 -0.36044212740E+02  0.67826397074E+02  0.00000000000E+00 0.  1.
<mgrwt>
<rscale>  0 0.17217762E+04</rscale>
<asrwt>0</asrwt>
<pdfrwt beam="1">  1        2 0.76463794E-01 0.17217762E+04</pdfrwt>
<pdfrwt beam="2">  1       -2 0.22940921E+00 0.17217762E+04</pdfrwt>
<totfact> 0.50768194E+00</totfact>
</mgrwt>
</event>
<event>
12    1  0.1496989E-007  0.3814799E+04  0.7818608E-02  0.8042986E-01
          2   -1    0    0  501    0  0.00000000000E+00  0.00000000000E+00  0.49420795627E+04  0.49420795627E+04  0.00000000000E+00 0. -1.
         -2   -1    0    0    0  501 -0.00000000000E+00 -0.00000000000E+00 -0.73616239072E+03  0.73616239072E+03  0.00000000000E+00 0.  1.
         23    2    1    2    0    0 -0.12873109901E+04  0.33131982911E+03  0.18159558889E+03  0.13446442263E+04  0.90270277112E+02 0.  0.
        254    2    1    2    0    0  0.12873109901E+04 -0.33131982911E+03  0.40243215831E+04  0.43335977272E+04  0.90441287160E+03 0.  0.
        -24    2    4    4    0    0  0.13911418826E+04 -0.20240325932E+03  0.37297569824E+04  0.39866569222E+04  0.78124584505E+02 0.  0.
         24    2    4    4    0    0 -0.10383089251E+03 -0.12891656979E+03  0.29456460076E+03  0.34694080502E+03  0.78735519019E+02 0.  0.
         13    1    3    3    0    0 -0.43241022910E+03  0.68101717340E+02  0.66607890285E+02  0.44277879486E+03  0.00000000000E+00 0. -1.
        -13    1    3    3    0    0 -0.85490076101E+03  0.26321811177E+03  0.11498769861E+03  0.90186543141E+03  0.00000000000E+00 0.  1.
          2    1    6    6  502    0  0.91973108691E+01 -0.16504624183E+02  0.11623726897E+02  0.22183421144E+02  0.00000000000E+00 0. -1.
          1    1    5    5  503    0  0.41688185563E+03 -0.96879627278E+02  0.11404492239E+04  0.12181135317E+04  0.00000000000E+00 0. -1.
         -2    1    5    5    0  503  0.97426002698E+03 -0.10552363204E+03  0.25893077585E+04  0.27685433905E+04  0.00000000000E+00 0.  1.
         -1    1    6    6    0  502 -0.11302820338E+03 -0.11241194561E+03  0.28294087387E+03  0.32475738387E+03  0.00000000000E+00 0.  1.
<mgrwt>
<rscale>  0 0.38147991E+04</rscale>
<asrwt>0</asrwt>
<pdfrwt beam="1">  1        2 0.76031991E+00 0.38147991E+04</pdfrwt>
<pdfrwt beam="2">  1       -2 0.11325576E+00 0.38147991E+04</pdfrwt>
<totfact> 0.19667419E-02</totfact>
</mgrwt>
</event>
<event>
12    1  0.1496989E-007  0.1762630E+04  0.7818608E-02  0.8726429E-01
         -1   -1    0    0    0  501 -0.00000000000E+00  0.00000000000E+00  0.59569941273E+03  0.59569941273E+03  0.00000000000E+00 0.  1.
          1   -1    0    0  501    0  0.00000000000E+00 -0.00000000000E+00 -0.13038719635E+04  0.13038719635E+04  0.00000000000E+00 0. -1.
         23    2    1    2    0    0  0.39003523089E+03 -0.10326335243E+03 -0.81513449477E+03  0.91455774865E+03  0.95816646572E+02 0.  0.
        254    2    1    2    0    0 -0.39003523089E+03  0.10326335243E+03  0.10696194397E+03  0.98501362761E+03  0.89219963451E+03 0.  0.
        -24    2    4    4    0    0 -0.55574005834E+03 -0.15894291807E+03 -0.11508349811E+03  0.59476881253E+03  0.79974153104E+02 0.  0.
         24    2    4    4    0    0  0.16570482745E+03  0.26220627050E+03  0.22204544208E+03  0.39024481508E+03  0.82320223643E+02 0.  0.
         13    1    3    3    0    0  0.23433100718E+03 -0.14450052778E+02 -0.43638402697E+03  0.49553087083E+03  0.00000000000E+00 0. -1.
        -13    1    3    3    0    0  0.15570422371E+03 -0.88813299652E+02 -0.37875046780E+03  0.41902687782E+03  0.00000000000E+00 0.  1.
          2    1    6    6  502    0  0.13044167798E+03  0.24284938513E+03  0.21456992364E+03  0.34932951113E+03  0.00000000000E+00 0. -1.
          1    1    5    5  503    0 -0.38482277167E+03 -0.85632457240E+02 -0.48382488461E+02  0.39719308720E+03  0.00000000000E+00 0. -1.
         -2    1    5    5    0  503 -0.17091728668E+03 -0.73310460829E+02 -0.66701009647E+02  0.19757572533E+03  0.00000000000E+00 0.  1.
         -1    1    6    6    0  502  0.35263149470E+02  0.19356885373E+02  0.74755184320E+01  0.40915303955E+02  0.00000000000E+00 0.  1.
<mgrwt>
<rscale>  0 0.17626296E+04</rscale>
<asrwt>0</asrwt>
<pdfrwt beam="1">  1        1 0.20059568E+00 0.17626296E+04</pdfrwt>
<pdfrwt beam="2">  1       -1 0.91646065E-01 0.17626296E+04</pdfrwt>
<totfact> 0.98731881E+00</totfact>
</mgrwt>
</event>
<event>
12    1  0.1496989E-007  0.1508032E+04  0.7818608E-02  0.8879129E-01
          2   -1    0    0  501    0  0.00000000000E+00  0.00000000000E+00  0.91395567313E+03  0.91395567313E+03  0.00000000000E+00 0. -1.
         -2   -1    0    0    0  501 -0.00000000000E+00 -0.00000000000E+00 -0.62206559210E+03  0.62206559210E+03  0.00000000000E+00 0.  1.
         23    2    1    2    0    0 -0.18064260618E+02  0.45163984829E+03  0.27755475200E+03  0.53876765364E+03  0.94493778544E+02 0.  0.
        254    2    1    2    0    0  0.18064260618E+02 -0.45163984829E+03  0.14335329036E+02  0.99725361159E+03  0.88882191361E+03 0.  0.
        -24    2    4    4    0    0 -0.42430155204E+03 -0.25195448331E+03  0.57786938558E+02  0.50338613237E+03  0.80903641895E+02 0.  0.
         24    2    4    4    0    0  0.44236581265E+03 -0.19968536498E+03 -0.43451609522E+02  0.49386747923E+03  0.80344803663E+02 0.  0.
         13    1    3    3    0    0  0.37796580069E+01  0.38610141257E+03  0.19978042665E+03  0.43474222877E+03  0.00000000000E+00 0.  1.
        -13    1    3    3    0    0 -0.21843918625E+02  0.65538435718E+02  0.77774325343E+02  0.10402542487E+03  0.00000000000E+00 0. -1.
          2    1    6    6  502    0  0.43751374648E+03 -0.20247876227E+03 -0.34524499302E+02  0.48332997898E+03  0.00000000000E+00 0. -1.
          3    1    5    5  503    0 -0.30630578456E+03 -0.13867076263E+03  0.31370196375E+02  0.33769350495E+03  0.00000000000E+00 0. -1.
         -4    1    5    5    0  503 -0.11799576747E+03 -0.11328372068E+03  0.26416742183E+02  0.16569262742E+03  0.00000000000E+00 0.  1.
         -1    1    6    6    0  502  0.48520661700E+01  0.27933972861E+01 -0.89271102201E+01  0.10537500244E+02  0.00000000000E+00 0.  1.
<mgrwt>
<rscale>  0 0.15080323E+04</rscale>
<asrwt>0</asrwt>
<pdfrwt beam="1">  1        2 0.14060856E+00 0.15080323E+04</pdfrwt>
<pdfrwt beam="2">  1       -2 0.95702399E-01 0.15080323E+04</pdfrwt>
<totfact> 0.25386497E+01</totfact>
</mgrwt>
</event>
<event>
12    1  0.1496989E-007  0.1858188E+04  0.7818608E-02  0.8675953E-01
         -2   -1    0    0    0  501 -0.00000000000E+00  0.00000000000E+00  0.94947963431E+03  0.94947963431E+03  0.00000000000E+00 0.  1.
          2   -1    0    0  501    0  0.00000000000E+00 -0.00000000000E+00 -0.90914642559E+03  0.90914642559E+03  0.00000000000E+00 0. -1.
         23    2    1    2    0    0  0.46286218678E+03 -0.52590323420E+03  0.14017136612E+03  0.72023745046E+03  0.90985479489E+02 0.  0.
        254    2    1    2    0    0 -0.46286218678E+03  0.52590323420E+03 -0.99838157392E+02  0.11383886094E+04  0.89170923107E+03 0.  0.
        -24    2    4    4    0    0 -0.47109534223E+03  0.51541209597E+02 -0.35112880301E+03  0.59513430917E+03  0.79410905387E+02 0.  0.
         24    2    4    4    0    0  0.82331554514E+01  0.47436202460E+03  0.25129064562E+03  0.54325430028E+03  0.83012836134E+02 0.  0.
         13    1    3    3    0    0  0.11406716331E+03 -0.13208064411E+03 -0.46952670952E+01  0.17458138454E+03  0.00000000000E+00 0. -1.
        -13    1    3    3    0    0  0.34879502346E+03 -0.39382259008E+03  0.14486663321E+03  0.54565606591E+03  0.00000000000E+00 0.  1.
          2    1    6    6  502    0 -0.20547898469E+02  0.23078237840E+03  0.84411608731E+02  0.24659286689E+03  0.00000000000E+00 0. -1.
          1    1    5    5  503    0 -0.12019196986E+03 -0.13922934350E+02 -0.11653483588E+03  0.16798906421E+03  0.00000000000E+00 0. -1.
         -2    1    5    5    0  503 -0.35090337237E+03  0.65464143947E+02 -0.23459396713E+03  0.42714524497E+03  0.00000000000E+00 0.  1.
         -1    1    6    6    0  502  0.28781053921E+02  0.24357964620E+03  0.16687903689E+03  0.29666143339E+03  0.00000000000E+00 0.  1.
<mgrwt>
<rscale>  0 0.18581884E+04</rscale>
<asrwt>0</asrwt>
<pdfrwt beam="1">  1        2 0.13986868E+00 0.18581884E+04</pdfrwt>
<pdfrwt beam="2">  1       -2 0.14607379E+00 0.18581884E+04</pdfrwt>
<totfact> 0.87281738E+00</totfact>
</mgrwt>
</event>
<event>
12    1  0.1496989E-007  0.1821755E+04  0.7818608E-02  0.8694815E-01
         -2   -1    0    0    0  501 -0.00000000000E+00  0.00000000000E+00  0.29806433561E+03  0.29806433561E+03  0.00000000000E+00 0.  1.
          2   -1    0    0  501    0  0.00000000000E+00 -0.00000000000E+00 -0.27836186464E+04  0.27836186464E+04  0.00000000000E+00 0. -1.
         23    2    1    2    0    0 -0.40667401242E+03  0.51700008954E+03 -0.12643836930E+04  0.14281308247E+04  0.90656959197E+02 0.  0.
        254    2    1    2    0    0  0.40667401242E+03 -0.51700008954E+03 -0.12211706177E+04  0.16535521573E+04  0.90016899208E+03 0.  0.
        -24    2    4    4    0    0  0.37225119673E+03 -0.16711956000E+03 -0.38579436788E+02  0.41707773755E+03  0.77237072812E+02 0.  0.
         24    2    4    4    0    0  0.34422815692E+02 -0.34988052954E+03 -0.11825911809E+04  0.12364744197E+04  0.82132662407E+02 0.  0.
         13    1    3    3    0    0 -0.39880473787E+03  0.49204589722E+03 -0.11729747806E+04  0.13330507192E+04  0.00000000000E+00 0.  1.
        -13    1    3    3    0    0 -0.78692745451E+01  0.24954192320E+02 -0.91408912375E+02  0.95080105478E+02  0.00000000000E+00 0. -1.
          2    1    6    6  502    0  0.36219085915E+02 -0.31881723271E+03 -0.11360214794E+04  0.11804664551E+04  0.00000000000E+00 0. -1.
          1    1    5    5  503    0  0.22392555430E+03 -0.82321050374E+02  0.12042419662E+02  0.23888162147E+03  0.00000000000E+00 0. -1.
         -4    1    5    5    0  503  0.14832564242E+03 -0.84798509627E+02 -0.50621856450E+02  0.17819611608E+03  0.00000000000E+00 0.  1.
         -1    1    6    6    0  502 -0.17962702232E+01 -0.31063296827E+02 -0.46569701546E+02  0.56007964599E+02  0.00000000000E+00 0.  1.
<mgrwt>
<rscale>  0 0.18217546E+04</rscale>
<asrwt>0</asrwt>
<pdfrwt beam="1">  1        2 0.42824903E+00 0.18217546E+04</pdfrwt>
<pdfrwt beam="2">  1       -2 0.45856051E-01 0.18217546E+04</pdfrwt>
<totfact> 0.10077848E+01</totfact>
</mgrwt>
</event>
<event>
12    1  0.1496989E-007  0.1231473E+04  0.7818608E-02  0.9085745E-01
          2   -1    0    0  501    0  0.00000000000E+00  0.00000000000E+00  0.38884787999E+03  0.38884787999E+03  0.00000000000E+00 0. -1.
         -2   -1    0    0    0  501 -0.00000000000E+00 -0.00000000000E+00 -0.97501286150E+03  0.97501286150E+03  0.00000000000E+00 0.  1.
         23    2    1    2    0    0  0.13333265613E+02 -0.61741031388E+02  0.16484669029E+03  0.19955197602E+03  0.93042081362E+02 0.  0.
        254    2    1    2    0    0 -0.13333265613E+02  0.61741031388E+02 -0.75101167180E+03  0.11643087655E+04  0.88747204984E+03 0.  0.
        -24    2    4    4    0    0  0.29865049382E+03 -0.27647565408E+02 -0.76876749171E+03  0.82918411092E+03  0.81156195992E+02 0.  0.
         24    2    4    4    0    0 -0.31198375944E+03  0.89388596797E+02  0.17755819914E+02  0.33512465456E+03  0.81664420407E+02 0.  0.
         13    1    3    3    0    0 -0.22110246913E+02 -0.34505795863E+02  0.15758481952E+02  0.43907205789E+02  0.00000000000E+00 0.  1.
        -13    1    3    3    0    0  0.35443512526E+02 -0.27235235525E+02  0.14908820834E+03  0.15564477023E+03  0.00000000000E+00 0. -1.
          2    1    6    6  502    0 -0.55582606040E+02 -0.14290304410E+02  0.11225308350E+02  0.58477743132E+02  0.00000000000E+00 0. -1.
          3    1    5    5  503    0  0.15859087769E+03  0.13061659274E+02 -0.32132005567E+03  0.35856415271E+03  0.00000000000E+00 0. -1.
         -2    1    5    5    0  503  0.14005961614E+03 -0.40709224682E+02 -0.44744743604E+03  0.47061995821E+03  0.00000000000E+00 0.  1.
         -1    1    6    6    0  502 -0.25640115340E+03  0.10367890121E+03  0.65305115633E+01  0.27664691142E+03  0.00000000000E+00 0.  1.
<mgrwt>
<rscale>  0 0.12314734E+04</rscale>
<asrwt>0</asrwt>
<pdfrwt beam="1">  1        2 0.59822751E-01 0.12314734E+04</pdfrwt>
<pdfrwt beam="2">  1       -2 0.15000198E+00 0.12314734E+04</pdfrwt>
<totfact> 0.24195775E+01</totfact>
</mgrwt>
</event>
<event>
12    1  0.1496989E-007  0.1632230E+04  0.7818608E-02  0.8800989E-01
         -2   -1    0    0    0  501 -0.00000000000E+00  0.00000000000E+00  0.38070071714E+03  0.38070071714E+03  0.00000000000E+00 0.  1.
          2   -1    0    0  501    0  0.00000000000E+00 -0.00000000000E+00 -0.17495203545E+04  0.17495203545E+04  0.00000000000E+00 0. -1.
         23    2    1    2    0    0 -0.58501313708E+02 -0.43686755728E+03 -0.13711525611E+02  0.45017421669E+03  0.90516037922E+02 0.  0.
        254    2    1    2    0    0  0.58501313708E+02  0.43686755728E+03 -0.13551081117E+04  0.16800468549E+04  0.88992346523E+03 0.  0.
        -24    2    4    4    0    0  0.37942342321E+03 -0.52009459606E+02 -0.42571501620E+03  0.57900313521E+03  0.85698527336E+02 0.  0.
         24    2    4    4    0    0 -0.32092210950E+03  0.48887701689E+03 -0.92939309551E+03  0.11010437197E+04  0.80833215465E+02 0.  0.
         11    1    3    3    0    0 -0.34854151818E+02 -0.70386209627E+02  0.20976859908E+02  0.81296119564E+02  0.00000000000E+00 0. -1.
        -11    1    3    3    0    0 -0.23647161890E+02 -0.36648134766E+03 -0.34688385519E+02  0.36887809712E+03  0.00000000000E+00 0.  1.
          4    1    6    6  502    0 -0.25256679079E+02  0.86213231304E+02 -0.12002978455E+03  0.14992588259E+03  0.00000000000E+00 0. -1.
          3    1    5    5  503    0  0.22753144251E+03 -0.69181766007E+02 -0.23194134579E+03  0.33219491562E+03  0.00000000000E+00 0. -1.
         -4    1    5    5    0  503  0.15189198070E+03  0.17172306401E+02 -0.19377367042E+03  0.24680821959E+03  0.00000000000E+00 0.  1.
         -3    1    6    6    0  502 -0.29566543042E+03  0.40266378559E+03 -0.80936331096E+03  0.95111783713E+03  0.00000000000E+00 0.  1.
<mgrwt>
<rscale>  0 0.16322300E+04</rscale>
<asrwt>0</asrwt>
<pdfrwt beam="1">  1        2 0.26915698E+00 0.16322300E+04</pdfrwt>
<pdfrwt beam="2">  1       -2 0.58569341E-01 0.16322300E+04</pdfrwt>
<totfact> 0.23993142E+01</totfact>
</mgrwt>
</event>
<event>
12    1  0.1496989E-007  0.1469004E+04  0.7818608E-02  0.8905330E-01
          2   -1    0    0  501    0  0.00000000000E+00  0.00000000000E+00  0.59999250569E+03  0.59999250569E+03  0.00000000000E+00 0. -1.
         -2   -1    0    0    0  501 -0.00000000000E+00 -0.00000000000E+00 -0.89916687212E+03  0.89916687212E+03  0.00000000000E+00 0.  1.
         23    2    1    2    0    0  0.26118244339E+03  0.36967523753E+03 -0.69196689383E+02  0.46659228168E+03  0.89689049032E+02 0.  0.
        254    2    1    2    0    0 -0.26118244339E+03 -0.36967523753E+03 -0.22997767705E+03  0.10325670961E+04  0.89912681314E+03 0.  0.
        -24    2    4    4    0    0 -0.38357759106E+03  0.18892138580E+02  0.19554236991E+03  0.43818932232E+03  0.79274097282E+02 0.  0.
         24    2    4    4    0    0  0.12239514767E+03 -0.38856737611E+03 -0.42552004696E+03  0.59437777382E+03  0.79072433242E+02 0.  0.
         13    1    3    3    0    0  0.35903156361E+02  0.55116086904E+02  0.21486110889E+02  0.69198790694E+02  0.00000000000E+00 0. -1.
        -13    1    3    3    0    0  0.22527928703E+03  0.31455915063E+03 -0.90682800273E+02  0.39739349098E+03  0.00000000000E+00 0.  1.
          4    1    6    6  502    0  0.40907326957E+02 -0.11096766249E+03 -0.75690929813E+02  0.14041491506E+03  0.00000000000E+00 0. -1.
          3    1    5    5  503    0 -0.96653045208E+02  0.77172389645E+01  0.12733979026E+02  0.97793257166E+02  0.00000000000E+00 0. -1.
         -4    1    5    5    0  503 -0.28692454586E+03  0.11174899616E+02  0.18280839088E+03  0.34039606515E+03  0.00000000000E+00 0.  1.
         -3    1    6    6    0  502  0.81487820715E+02 -0.27759971363E+03 -0.34982911714E+03  0.45396285876E+03  0.00000000000E+00 0.  1.
<mgrwt>
<rscale>  0 0.14690043E+04</rscale>
<asrwt>0</asrwt>
<pdfrwt beam="1">  1        2 0.92306539E-01 0.14690043E+04</pdfrwt>
<pdfrwt beam="2">  1       -2 0.13833337E+00 0.14690043E+04</pdfrwt>
<totfact> 0.17785619E+01</totfact>
</mgrwt>
</event>
<event>
12    1  0.1496989E-007  0.2157091E+04  0.7818608E-02  0.8536503E-01
          2   -1    0    0  501    0  0.00000000000E+00  0.00000000000E+00  0.17298347223E+04  0.17298347223E+04  0.00000000000E+00 0.  1.
         -2   -1    0    0    0  501 -0.00000000000E+00 -0.00000000000E+00 -0.67246933462E+03  0.67246933462E+03  0.00000000000E+00 0. -1.
         23    2    1    2    0    0 -0.13454251532E+03 -0.26739097296E+03 -0.49344185856E+03  0.58423198016E+03  0.90788314311E+02 0.  0.
        254    2    1    2    0    0  0.13454251532E+03  0.26739097296E+03  0.15508072462E+04  0.18180720768E+04  0.90043508398E+03 0.  0.
        -24    2    4    4    0    0  0.49502977789E+03  0.10537588712E+03  0.10958667437E+04  0.12098141086E+04  0.81041341525E+02 0.  0.
         24    2    4    4    0    0 -0.36048726257E+03  0.16201508584E+03  0.45494050258E+03  0.60825796812E+03  0.82504183990E+02 0.  0.
         11    1    3    3    0    0 -0.21057083427E+02 -0.11827309704E+03 -0.24673297717E+03  0.27442501393E+03  0.00000000000E+00 0.  1.
        -11    1    3    3    0    0 -0.11348543189E+03 -0.14911787592E+03 -0.24670888139E+03  0.30980696623E+03  0.00000000000E+00 0. -1.
          4    1    6    6  502    0 -0.12801971478E+03  0.19919051749E+02  0.17356915976E+03  0.21659194171E+03  0.00000000000E+00 0. -1.
          3    1    5    5  503    0  0.21233445005E+03  0.86236932250E+02  0.48185171494E+03  0.53357642597E+03  0.00000000000E+00 0. -1.
         -4    1    5    5    0  503  0.28269532783E+03  0.19138954874E+02  0.61401502872E+03  0.67623768267E+03  0.00000000000E+00 0.  1.
         -3    1    6    6    0  502 -0.23246754779E+03  0.14209603409E+03  0.28137134283E+03  0.39166602641E+03  0.00000000000E+00 0.  1.
<mgrwt>
<rscale>  0 0.21570914E+04</rscale>
<asrwt>0</asrwt>
<pdfrwt beam="1">  1        2 0.26612842E+00 0.21570914E+04</pdfrwt>
<pdfrwt beam="2">  1       -2 0.10345682E+00 0.21570914E+04</pdfrwt>
<totfact> 0.65949034E+00</totfact>
</mgrwt>
</event>
<event>
12    1  0.1496989E-007  0.1468329E+04  0.7818608E-02  0.8905791E-01
         -2   -1    0    0    0  501 -0.00000000000E+00  0.00000000000E+00  0.42718928665E+03  0.42718928665E+03  0.00000000000E+00 0.  1.
          2   -1    0    0  501    0  0.00000000000E+00 -0.00000000000E+00 -0.12617298514E+04  0.12617298514E+04  0.00000000000E+00 0. -1.
         23    2    1    2    0    0 -0.17050571344E+03 -0.36365860066E+03 -0.59657231379E+03  0.72500724715E+03  0.91745336060E+02 0.  0.
        254    2    1    2    0    0  0.17050571344E+03  0.36365860066E+03 -0.23796825095E+03  0.96391189089E+03  0.84331338706E+03 0.  0.
        -24    2    4    4    0    0  0.12410683711E+03  0.42610736653E+03  0.21338358542E+03  0.49879252921E+03  0.79318584504E+02 0.  0.
         24    2    4    4    0    0  0.46398876334E+02 -0.62448765866E+02 -0.45135183637E+03  0.46511936168E+03  0.81023677584E+02 0.  0.
         13    1    3    3    0    0 -0.56135614052E+02 -0.11240000414E+03 -0.11714557386E+03  0.17177908362E+03  0.00000000000E+00 0. -1.
        -13    1    3    3    0    0 -0.11437009939E+03 -0.25125859652E+03 -0.47942673993E+03  0.55322816353E+03  0.00000000000E+00 0.  1.
          4    1    6    6  502    0  0.22307378728E+02 -0.45156451982E+02 -0.41572715905E+03  0.41876699377E+03  0.00000000000E+00 0. -1.
          1    1    5    5  503    0  0.54703053617E+02  0.18860092156E+03  0.51201741663E+02  0.20293927673E+03  0.00000000000E+00 0. -1.
         -2    1    5    5    0  503  0.69403783491E+02  0.23750644496E+03  0.16218184376E+03  0.29585325249E+03  0.00000000000E+00 0.  1.
         -3    1    6    6    0  502  0.24091497605E+02 -0.17292313885E+02 -0.35624677326E+02  0.46352367911E+02  0.00000000000E+00 0.  1.
<mgrwt>
<rscale>  0 0.14683289E+04</rscale>
<asrwt>0</asrwt>
<pdfrwt beam="1">  1        2 0.19411228E+00 0.14683289E+04</pdfrwt>
<pdfrwt beam="2">  1       -2 0.65721429E-01 0.14683289E+04</pdfrwt>
<totfact> 0.35941664E+01</totfact>
</mgrwt>
</event>
<event>
12    1  0.1496989E-007  0.1294854E+04  0.7818608E-02  0.9033656E-01
          2   -1    0    0  501    0  0.00000000000E+00  0.00000000000E+00  0.18891606430E+04  0.18891606430E+04  0.00000000000E+00 0. -1.
         -2   -1    0    0    0  501 -0.00000000000E+00 -0.00000000000E+00 -0.22187713318E+03  0.22187713318E+03  0.00000000000E+00 0.  1.
         23    2    1    2    0    0 -0.17225315460E+03  0.33945336715E+02 -0.76563291149E+01  0.19785109127E+03  0.90901043931E+02 0.  0.
        254    2    1    2    0    0  0.17225315460E+03 -0.33945336715E+02  0.16749398389E+04  0.19131866849E+04  0.90776450257E+03 0.  0.
        -24    2    4    4    0    0 -0.33844491498E+03  0.69074659519E+02  0.96631573005E+03  0.10296078847E+04  0.83725964066E+02 0.  0.
         24    2    4    4    0    0  0.51069806958E+03 -0.10301999623E+03  0.70862410884E+03  0.88357880016E+03  0.84485090842E+02 0.  0.
         11    1    3    3    0    0 -0.62243275814E+01  0.25135633308E+02  0.15197895581E+02  0.30025295098E+02  0.00000000000E+00 0. -1.
        -11    1    3    3    0    0 -0.16602882702E+03  0.88097034068E+01 -0.22854224696E+02  0.16782579617E+03  0.00000000000E+00 0.  1.
          4    1    6    6  502    0  0.67296686607E+02 -0.21538241488E+01  0.14116513033E+03  0.15640037406E+03  0.00000000000E+00 0. -1.
          3    1    5    5  503    0 -0.13305768685E+02  0.20772794282E+02  0.43653012221E+02  0.50141180068E+02  0.00000000000E+00 0. -1.
         -2    1    5    5    0  503 -0.32513914629E+03  0.48301865237E+02  0.92266271783E+03  0.97946670465E+03  0.00000000000E+00 0.  1.
         -3    1    6    6    0  502  0.44340138297E+03 -0.10086617208E+03  0.56745897851E+03  0.72717842610E+03  0.00000000000E+00 0.  1.
<mgrwt>
<rscale>  0 0.12948537E+04</rscale>
<asrwt>0</asrwt>
<pdfrwt beam="1">  1        2 0.29064009E+00 0.12948537E+04</pdfrwt>
<pdfrwt beam="2">  1       -2 0.34134945E-01 0.12948537E+04</pdfrwt>
<totfact> 0.60693662E+01</totfact>
</mgrwt>
</event>
<event>
12    1  0.1496989E-007  0.1717433E+04  0.7818608E-02  0.8751484E-01
         -2   -1    0    0    0  501 -0.00000000000E+00  0.00000000000E+00  0.86943156925E+03  0.86943156925E+03  0.00000000000E+00 0.  1.
          2   -1    0    0  501    0  0.00000000000E+00 -0.00000000000E+00 -0.84813318206E+03  0.84813318206E+03  0.00000000000E+00 0. -1.
         23    2    1    2    0    0  0.31529927751E+03  0.45530219352E+03 -0.23311275066E+03  0.60788890702E+03  0.92052414087E+02 0.  0.
        254    2    1    2    0    0 -0.31529927751E+03 -0.45530219352E+03  0.25441113785E+03  0.11096758443E+04  0.92733043222E+03 0.  0.
        -24    2    4    4    0    0 -0.59045836512E+03 -0.19538414940E+03  0.33851708107E+03  0.71257762142E+03  0.79730832175E+02 0.  0.
         24    2    4    4    0    0  0.27515908761E+03 -0.25991804412E+03 -0.84105943221E+02  0.39709822286E+03  0.85692915467E+02 0.  0.
         11    1    3    3    0    0  0.11514642771E+03  0.97633135337E+02 -0.75171859729E+02  0.16864678303E+03  0.00000000000E+00 0.  1.
        -11    1    3    3    0    0  0.20015284980E+03  0.35766905818E+03 -0.15794089093E+03  0.43924212400E+03  0.00000000000E+00 0. -1.
          2    1    6    6  502    0  0.38206852016E+02 -0.49987031919E+01  0.19413012043E+01  0.38581332597E+02  0.00000000000E+00 0. -1.
          1    1    5    5  503    0 -0.29116214846E+02  0.36396656226E+01  0.43744694579E+01  0.29667104945E+02  0.00000000000E+00 0. -1.
         -2    1    5    5    0  503 -0.56134215028E+03 -0.19902381502E+03  0.33414261161E+03  0.68291051648E+03  0.00000000000E+00 0.  1.
         -1    1    6    6    0  502  0.23695223560E+03 -0.25491934093E+03 -0.86047244425E+02  0.35851689027E+03  0.00000000000E+00 0.  1.
<mgrwt>
<rscale>  0 0.17174327E+04</rscale>
<asrwt>0</asrwt>
<pdfrwt beam="1">  1        2 0.13048203E+00 0.17174327E+04</pdfrwt>
<pdfrwt beam="2">  1       -2 0.13375870E+00 0.17174327E+04</pdfrwt>
<totfact> 0.12217096E+01</totfact>
</mgrwt>
</event>
<event>
12    1  0.1496989E-007  0.1386860E+04  0.7818608E-02  0.8963385E-01
          2   -1    0    0  501    0  0.00000000000E+00  0.00000000000E+00  0.17828827694E+04  0.17828827694E+04  0.00000000000E+00 0. -1.
         -2   -1    0    0    0  501 -0.00000000000E+00 -0.00000000000E+00 -0.26970088913E+03  0.26970088913E+03  0.00000000000E+00 0.  1.
         23    2    1    2    0    0  0.27240175804E+03  0.28162959551E+03  0.49630739801E+03  0.63876242230E+03  0.90434794029E+02 0.  0.
        254    2    1    2    0    0 -0.27240175804E+03 -0.28162959551E+03  0.10168744823E+04  0.14138212363E+04  0.90074348652E+03 0.  0.
        -24    2    4    4    0    0 -0.40413588748E+03 -0.48397235438E+03  0.96325994640E+03  0.11539217702E+04  0.78170787545E+02 0.  0.
         24    2    4    4    0    0  0.13173412944E+03  0.20234275887E+03  0.53614535895E+02  0.25989946607E+03  0.79854499433E+02 0.  0.
         13    1    3    3    0    0  0.53602906014E+02  0.98239353194E+02  0.18626634327E+03  0.21730023628E+03  0.00000000000E+00 0. -1.
        -13    1    3    3    0    0  0.21879885203E+03  0.18339024232E+03  0.31004105473E+03  0.42146218602E+03  0.00000000000E+00 0.  1.
          4    1    6    6  502    0  0.48593312963E+02  0.56399501574E+02 -0.19122202922E+02  0.76862685922E+02  0.00000000000E+00 0. -1.
          3    1    5    5  503    0 -0.31677744935E+03 -0.35476275201E+03  0.77671857363E+03  0.91076687755E+03  0.00000000000E+00 0. -1.
         -4    1    5    5    0  503 -0.87358438131E+02 -0.12920960237E+03  0.18654137278E+03  0.24315489264E+03  0.00000000000E+00 0.  1.
         -3    1    6    6    0  502  0.83140816477E+02  0.14594325730E+03  0.72736738818E+02  0.18303678015E+03  0.00000000000E+00 0.  1.
<mgrwt>
<rscale>  0 0.13868599E+04</rscale>
<asrwt>0</asrwt>
<pdfrwt beam="1">  1        2 0.27428965E+00 0.13868599E+04</pdfrwt>
<pdfrwt beam="2">  1       -2 0.41492446E-01 0.13868599E+04</pdfrwt>
<totfact> 0.47285205E+01</totfact>
</mgrwt>
</event>
<event>
12    1  0.1496989E-007  0.1977558E+04  0.7818608E-02  0.8617185E-01
          2   -1    0    0  501    0  0.00000000000E+00  0.00000000000E+00  0.14795396493E+04  0.14795396493E+04  0.00000000000E+00 0. -1.
         -2   -1    0    0    0  501 -0.00000000000E+00 -0.00000000000E+00 -0.66080292408E+03  0.66080292408E+03  0.00000000000E+00 0.  1.
         23    2    1    2    0    0  0.60023055338E+03  0.48953103707E+03  0.47934604321E+03  0.91577988969E+03  0.94672190970E+02 0.  0.
        254    2    1    2    0    0 -0.60023055338E+03 -0.48953103707E+03  0.33939068200E+03  0.12245626837E+04  0.88569203325E+03 0.  0.
        -24    2    4    4    0    0 -0.69607146462E+03 -0.44960333029E+03  0.53426359482E+03  0.98970098695E+03  0.86091906356E+02 0.  0.
         24    2    4    4    0    0  0.95840911242E+02 -0.39927706784E+02 -0.19487291282E+03  0.23486169674E+03  0.80030384261E+02 0.  0.
         13    1    3    3    0    0  0.49498341972E+03  0.44629226016E+03  0.41317077875E+03  0.78415270177E+03  0.00000000000E+00 0.  1.
        -13    1    3    3    0    0  0.10524713366E+03  0.43238776909E+02  0.66175264467E+02  0.13162718792E+03  0.00000000000E+00 0. -1.
          2    1    6    6  502    0  0.53402924984E+02 -0.37446322751E+02 -0.45418781196E+02  0.79479338005E+02  0.00000000000E+00 0. -1.
          3    1    5    5  503    0 -0.14827301875E+03 -0.58332562846E+02  0.11715086122E+03  0.19776728815E+03  0.00000000000E+00 0. -1.
         -4    1    5    5    0  503 -0.54779844587E+03 -0.39127076744E+03  0.41711273360E+03  0.79193369880E+03  0.00000000000E+00 0.  1.
         -1    1    6    6    0  502  0.42437986258E+02 -0.24813840326E+01 -0.14945413163E+03  0.15538235873E+03  0.00000000000E+00 0.  1.
<mgrwt>
<rscale>  0 0.19775582E+04</rscale>
<asrwt>0</asrwt>
<pdfrwt beam="1">  1        2 0.22762148E+00 0.19775582E+04</pdfrwt>
<pdfrwt beam="2">  1       -2 0.10166199E+00 0.19775582E+04</pdfrwt>
<totfact> 0.96381112E+00</totfact>
</mgrwt>
</event>
<event>
12    1  0.1496989E-007  0.1074904E+04  0.7818608E-02  0.9230003E-01
         -2   -1    0    0    0  501 -0.00000000000E+00  0.00000000000E+00  0.14467449661E+03  0.14467449661E+03  0.00000000000E+00 0.  1.
          2   -1    0    0  501    0  0.00000000000E+00 -0.00000000000E+00 -0.19965823139E+04  0.19965823139E+04  0.00000000000E+00 0. -1.
         23    2    1    2    0    0 -0.11339917231E+03  0.62427123276E+02 -0.10019005388E+03  0.18476155031E+03  0.85687021050E+02 0.  0.
        254    2    1    2    0    0  0.11339917231E+03 -0.62427123276E+02 -0.17517177634E+04  0.19564952602E+04  0.86174361760E+03 0.  0.
        -24    2    4    4    0    0  0.44699755020E+03  0.95754221971E+01 -0.60211358781E+03  0.75501218151E+03  0.87201622715E+02 0.  0.
         24    2    4    4    0    0 -0.33359837790E+03 -0.72002545473E+02 -0.11496041756E+04  0.12014830786E+04  0.74159176773E+02 0.  0.
         13    1    3    3    0    0 -0.42883196033E+02  0.46430379862E+02 -0.92520647326E+02  0.11204828806E+03  0.00000000000E+00 0. -1.
        -13    1    3    3    0    0 -0.70515976274E+02  0.15996743414E+02 -0.76694065509E+01  0.72713262247E+02  0.00000000000E+00 0.  1.
          4    1    6    6  502    0 -0.40008875512E+02 -0.11785434770E+02 -0.24499646322E+03  0.24852137450E+03  0.00000000000E+00 0. -1.
          3    1    5    5  503    0  0.41066225148E+02 -0.15267625931E+02 -0.97662547987E+02  0.10703975210E+03  0.00000000000E+00 0. -1.
         -4    1    5    5    0  503  0.40593132506E+03  0.24843048128E+02 -0.50445103982E+03  0.64797242941E+03  0.00000000000E+00 0.  1.
         -3    1    6    6    0  502 -0.29358950238E+03 -0.60217110703E+02 -0.90460771235E+03  0.95296170415E+03  0.00000000000E+00 0.  1.
<mgrwt>
<rscale>  0 0.10749038E+04</rscale>
<asrwt>0</asrwt>
<pdfrwt beam="1">  1        2 0.30716648E+00 0.10749038E+04</pdfrwt>
<pdfrwt beam="2">  1       -2 0.22257617E-01 0.10749038E+04</pdfrwt>
<totfact> 0.11828478E+02</totfact>
</mgrwt>
</event>
<event>
12    1  0.1496989E-007  0.1059761E+04  0.7818608E-02  0.9245324E-01
         -2   -1    0    0    0  501 -0.00000000000E+00  0.00000000000E+00  0.12729924082E+03  0.12729924082E+03  0.00000000000E+00 0.  1.
          2   -1    0    0  501    0  0.00000000000E+00 -0.00000000000E+00 -0.22056179808E+04  0.22056179808E+04  0.00000000000E+00 0. -1.
         23    2    1    2    0    0 -0.83920897865E+02  0.86664671867E+02 -0.33816787696E+03  0.37402828709E+03  0.10481490395E+03 0.  0.
        254    2    1    2    0    0  0.83920897865E+02 -0.86664671867E+02 -0.17401508630E+04  0.19588889345E+04  0.89138507353E+03 0.  0.
        -24    2    4    4    0    0  0.24690369781E+03 -0.38818393204E+03 -0.56919629706E+03  0.73621804815E+03  0.79902370157E+02 0.  0.
         24    2    4    4    0    0 -0.16298279995E+03  0.30151926017E+03 -0.11709545659E+04  0.12226708863E+04  0.79449628748E+02 0.  0.
         13    1    3    3    0    0 -0.63335542047E+02  0.19893401374E+02 -0.26363577587E+03  0.27186570328E+03  0.00000000000E+00 0. -1.
        -13    1    3    3    0    0 -0.20585355818E+02  0.66771270493E+02 -0.74532101090E+02  0.10216258381E+03  0.00000000000E+00 0.  1.
          2    1    6    6  502    0 -0.57389488801E+02  0.65332884735E+02 -0.40408745774E+03  0.41333837561E+03  0.00000000000E+00 0. -1.
          3    1    5    5  503    0  0.15205768868E+02 -0.50712586147E+02 -0.10297768867E+03  0.11579026800E+03  0.00000000000E+00 0. -1.
         -4    1    5    5    0  503  0.23169792895E+03 -0.33747134589E+03 -0.46621860839E+03  0.62042778015E+03  0.00000000000E+00 0.  1.
         -1    1    6    6    0  502 -0.10559331115E+03  0.23618637544E+03 -0.76686710819E+03  0.80933251073E+03  0.00000000000E+00 0.  1.
<mgrwt>
<rscale>  0 0.10597613E+04</rscale>
<asrwt>0</asrwt>
<pdfrwt beam="1">  1        2 0.33932584E+00 0.10597613E+04</pdfrwt>
<pdfrwt beam="2">  1       -2 0.19584499E-01 0.10597613E+04</pdfrwt>
<totfact> 0.11373714E+02</totfact>
</mgrwt>
</event>
<event>
12    1  0.1496989E-007  0.1662344E+04  0.7818608E-02  0.8783137E-01
          2   -1    0    0  501    0  0.00000000000E+00  0.00000000000E+00  0.21037165105E+04  0.21037165105E+04  0.00000000000E+00 0. -1.
         -2   -1    0    0    0  501 -0.00000000000E+00 -0.00000000000E+00 -0.32839346772E+03  0.32839346772E+03  0.00000000000E+00 0.  1.
         23    2    1    2    0    0 -0.41903434470E+03  0.16494818257E+03  0.87278552720E+02  0.46786976184E+03  0.92124281886E+02 0.  0.
        254    2    1    2    0    0  0.41903434470E+03 -0.16494818257E+03  0.16880444901E+04  0.19642402164E+04  0.89774592298E+03 0.  0.
        -24    2    4    4    0    0  0.37474043558E+03  0.20197645849E+03  0.30320923451E+03  0.52873669967E+03  0.80011085763E+02 0.  0.
         24    2    4    4    0    0  0.44293909118E+02 -0.36692464106E+03  0.13848352555E+04  0.14355035167E+04  0.79410445486E+02 0.  0.
         13    1    3    3    0    0 -0.15721799122E+03  0.50201109301E+02 -0.11469815673E+02  0.16543640715E+03  0.00000000000E+00 0.  1.
        -13    1    3    3    0    0 -0.26181635348E+03  0.11474707327E+03  0.98748368393E+02  0.30243335469E+03  0.00000000000E+00 0. -1.
          4    1    6    6  502    0 -0.18279414317E+02 -0.66695062131E+02  0.31984844178E+03  0.32723904720E+03  0.00000000000E+00 0. -1.
          3    1    5    5  503    0  0.14350241433E+03  0.35144934525E+02  0.94576809064E+02  0.17542201160E+03  0.00000000000E+00 0. -1.
         -4    1    5    5    0  503  0.23123802125E+03  0.16683152396E+03  0.20863242545E+03  0.35331468807E+03  0.00000000000E+00 0.  1.
         -3    1    6    6    0  502  0.62573323435E+02 -0.30022957893E+03  0.10649868138E+04  0.11082644695E+04  0.00000000000E+00 0.  1.
<mgrwt>
<rscale>  0 0.16623438E+04</rscale>
<asrwt>0</asrwt>
<pdfrwt beam="1">  1        2 0.32364868E+00 0.16623438E+04</pdfrwt>
<pdfrwt beam="2">  1       -2 0.50522073E-01 0.16623438E+04</pdfrwt>
<totfact> 0.20682624E+01</totfact>
</mgrwt>
</event>
<event>
12    1  0.1496989E-007  0.2118222E+04  0.7818608E-02  0.8553259E-01
          1   -1    0    0  501    0  0.00000000000E+00  0.00000000000E+00  0.21720891531E+04  0.21720891531E+04  0.00000000000E+00 0. -1.
         -1   -1    0    0    0  501 -0.00000000000E+00 -0.00000000000E+00 -0.51642272673E+03  0.51642272673E+03  0.00000000000E+00 0.  1.
         23    2    1    2    0    0 -0.35764963661E+03 -0.78508477929E+03  0.78167488317E+03  0.11677925655E+04  0.91937369407E+02 0.  0.
        254    2    1    2    0    0  0.35764963661E+03  0.78508477929E+03  0.87399154318E+03  0.15207193143E+04  0.89691395463E+03 0.  0.
        -24    2    4    4    0    0  0.11863507927E+03  0.82394919688E+03  0.29290444282E+03  0.88621396974E+03  0.81336501412E+02 0.  0.
         24    2    4    4    0    0  0.23901455735E+03 -0.38864417592E+02  0.58108710036E+03  0.63450534454E+03  0.79349936756E+02 0.  0.
         11    1    3    3    0    0 -0.37627778805E+02 -0.90816968590E+02  0.13177415140E+03  0.16440194190E+03  0.00000000000E+00 0. -1.
        -11    1    3    3    0    0 -0.32002185781E+03 -0.69426781070E+03  0.64990073177E+03  0.10033906236E+04  0.00000000000E+00 0.  1.
          4    1    6    6  502    0  0.14454111612E+03 -0.37325580047E+02  0.44057758351E+03  0.46518162073E+03  0.00000000000E+00 0. -1.
          3    1    5    5  503    0  0.89193532787E+02  0.57696142762E+03  0.24380715670E+03  0.63267835818E+03  0.00000000000E+00 0. -1.
         -4    1    5    5    0  503  0.29441546479E+02  0.24698776926E+03  0.49097286124E+02  0.25353561156E+03  0.00000000000E+00 0.  1.
         -3    1    6    6    0  502  0.94473441225E+02 -0.15388375453E+01  0.14050951685E+03  0.16932372381E+03  0.00000000000E+00 0.  1.
<mgrwt>
<rscale>  0 0.21182221E+04</rscale>
<asrwt>0</asrwt>
<pdfrwt beam="1">  1        1 0.33416756E+00 0.21182221E+04</pdfrwt>
<pdfrwt beam="2">  1       -1 0.79449651E-01 0.21182221E+04</pdfrwt>
<totfact> 0.33082295E+00</totfact>
</mgrwt>
</event>
<event>
12    1  0.1496989E-007  0.2133346E+04  0.7818608E-02  0.8546695E-01
          1   -1    0    0  501    0  0.00000000000E+00  0.00000000000E+00  0.75420392830E+03  0.75420392830E+03  0.00000000000E+00 0. -1.
         -1   -1    0    0    0  501 -0.00000000000E+00 -0.00000000000E+00 -0.15085990600E+04  0.15085990600E+04  0.00000000000E+00 0.  1.
         23    2    1    2    0    0 -0.79667360359E+03  0.36199229310E+03 -0.32473713645E+03  0.93781839452E+03  0.91224352029E+02 0.  0.
        254    2    1    2    0    0  0.79667360359E+03 -0.36199229310E+03 -0.42965799524E+03  0.13249845938E+04  0.89735774913E+03 0.  0.
        -24    2    4    4    0    0  0.68138490141E+03 -0.39237031203E+03 -0.67513635732E+03  0.10396813440E+04  0.82996086968E+02 0.  0.
         24    2    4    4    0    0  0.11528870218E+03  0.30378018935E+02  0.24547836208E+03  0.28530324977E+03  0.83210631481E+02 0.  0.
         13    1    3    3    0    0 -0.31879147511E+03  0.18656292264E+03 -0.16242192919E+03  0.40350292662E+03  0.00000000000E+00 0.  1.
        -13    1    3    3    0    0 -0.47788212848E+03  0.17542937046E+03 -0.16231520726E+03  0.53431546791E+03  0.00000000000E+00 0. -1.
          4    1    6    6  502    0  0.92559880195E+02 -0.24851754961E+01  0.10861343594E+03  0.14272486113E+03  0.00000000000E+00 0. -1.
          1    1    5    5  503    0  0.40559784702E+02 -0.31992838905E+02 -0.72657540393E+02  0.89150188179E+02  0.00000000000E+00 0. -1.
         -2    1    5    5    0  503  0.64082511670E+03 -0.36037747313E+03 -0.60247881693E+03  0.95053115582E+03  0.00000000000E+00 0.  1.
         -3    1    6    6    0  502  0.22728821987E+02  0.32863194431E+02  0.13686492614E+03  0.14257838863E+03  0.00000000000E+00 0.  1.
<mgrwt>
<rscale>  0 0.21333460E+04</rscale>
<asrwt>0</asrwt>
<pdfrwt beam="1">  1        1 0.11603138E+00 0.21333460E+04</pdfrwt>
<pdfrwt beam="2">  1       -1 0.23209216E+00 0.21333460E+04</pdfrwt>
<totfact> 0.20353337E+00</totfact>
</mgrwt>
</event>
<event>
12    1  0.1496989E-007  0.1147380E+04  0.7818608E-02  0.9160204E-01
         -3   -1    0    0    0  501 -0.00000000000E+00  0.00000000000E+00  0.81292878514E+03  0.81292878514E+03  0.00000000000E+00 0.  1.
          3   -1    0    0  501    0  0.00000000000E+00 -0.00000000000E+00 -0.40485757125E+03  0.40485757125E+03  0.00000000000E+00 0. -1.
         23    2    1    2    0    0 -0.14674453246E+03  0.26219014105E+02  0.26610141798E+02  0.17673792149E+03  0.91141641088E+02 0.  0.
        254    2    1    2    0    0  0.14674453246E+03 -0.26219014105E+02  0.38146107209E+03  0.10410484349E+04  0.95710391274E+03 0.  0.
        -24    2    4    4    0    0  0.33666807148E+03  0.36599242493E+03  0.92388834421E+02  0.51203948898E+03  0.79705056858E+02 0.  0.
         24    2    4    4    0    0 -0.18992353902E+03 -0.39221143903E+03  0.28907223767E+03  0.52900894592E+03  0.79918350162E+02 0.  0.
         13    1    3    3    0    0 -0.83186909300E+02  0.73764709267E+01  0.59689206762E+02  0.10265123285E+03  0.00000000000E+00 0.  1.
        -13    1    3    3    0    0 -0.63557623156E+02  0.18842543179E+02 -0.33079064964E+02  0.74086688639E+02  0.00000000000E+00 0. -1.
          2    1    6    6  502    0 -0.18060386246E+03 -0.33066454796E+03  0.22116318167E+03  0.43688665732E+03  0.00000000000E+00 0. -1.
          1    1    5    5  503    0  0.29683897695E+02  0.57067101799E+01  0.34712000023E+01  0.30426132730E+02  0.00000000000E+00 0. -1.
         -2    1    5    5    0  503  0.30698417378E+03  0.36028571475E+03  0.88917634419E+02  0.48161335625E+03  0.00000000000E+00 0.  1.
         -1    1    6    6    0  502 -0.93196765639E+01 -0.61546891072E+02  0.67909055996E+02  0.92122288607E+02  0.00000000000E+00 0.  1.
<mgrwt>
<rscale>  0 0.11473803E+04</rscale>
<asrwt>0</asrwt>
<pdfrwt beam="1">  1        3 0.62285780E-01 0.11473803E+04</pdfrwt>
<pdfrwt beam="2">  1       -3 0.12506597E+00 0.11473803E+04</pdfrwt>
<totfact> 0.33247075E+00</totfact>
</mgrwt>
</event>
<event>
12    1  0.1496989E-007  0.1488285E+04  0.7818608E-02  0.8892281E-01
         -2   -1    0    0    0  501 -0.00000000000E+00  0.00000000000E+00  0.38232164261E+03  0.38232164261E+03  0.00000000000E+00 0.  1.
          2   -1    0    0  501    0  0.00000000000E+00 -0.00000000000E+00 -0.14483833730E+04  0.14483833730E+04  0.00000000000E+00 0. -1.
         23    2    1    2    0    0 -0.14102311127E+03 -0.21286693692E+03  0.13811824307E+03  0.30346436701E+03  0.88397523873E+02 0.  0.
        254    2    1    2    0    0  0.14102311127E+03  0.21286693692E+03 -0.12041799734E+04  0.15272406486E+04  0.90399930281E+03 0.  0.
        -24    2    4    4    0    0 -0.39057677185E+02  0.49385036295E+03 -0.10225916769E+04  0.11391949122E+04  0.81594283860E+02 0.  0.
         24    2    4    4    0    0  0.18008078845E+03 -0.28098342603E+03 -0.18158829651E+03  0.38804573636E+03  0.78894917483E+02 0.  0.
         13    1    3    3    0    0 -0.86335629211E+02 -0.19358894603E+03  0.11381138186E+03  0.24059000714E+03  0.00000000000E+00 0.  1.
        -13    1    3    3    0    0 -0.54687482057E+02 -0.19277990899E+02  0.24306861208E+02  0.62874359866E+02  0.00000000000E+00 0. -1.
          2    1    6    6  502    0  0.17538863519E+03 -0.25603961123E+03 -0.18666465451E+03  0.36216177202E+03  0.00000000000E+00 0. -1.
          1    1    5    5  503    0 -0.15279422805E+02  0.39256813671E+03 -0.86906938846E+03  0.95374252536E+03  0.00000000000E+00 0. -1.
         -2    1    5    5    0  503 -0.23778254380E+02  0.10128222624E+03 -0.15352228848E+03  0.18545238686E+03  0.00000000000E+00 0.  1.
         -1    1    6    6    0  502  0.46921532637E+01 -0.24943814800E+02  0.50763580053E+01  0.25883964333E+02  0.00000000000E+00 0.  1.
<mgrwt>
<rscale>  0 0.14882853E+04</rscale>
<asrwt>0</asrwt>
<pdfrwt beam="1">  1        2 0.22282821E+00 0.14882853E+04</pdfrwt>
<pdfrwt beam="2">  1       -2 0.58818714E-01 0.14882853E+04</pdfrwt>
<totfact> 0.35463818E+01</totfact>
</mgrwt>
</event>
<event>
12    1  0.1496989E-007  0.1711381E+04  0.7818608E-02  0.8754900E-01
          1   -1    0    0  501    0  0.00000000000E+00  0.00000000000E+00  0.19237467553E+04  0.19237467553E+04  0.00000000000E+00 0. -1.
         -1   -1    0    0    0  501 -0.00000000000E+00 -0.00000000000E+00 -0.38061465957E+03  0.38061465957E+03  0.00000000000E+00 0.  1.
         23    2    1    2    0    0 -0.13858911264E+03  0.45493406748E+03  0.10848886376E+04  0.11881556488E+04  0.92512388266E+02 0.  0.
        254    2    1    2    0    0  0.13858911264E+03 -0.45493406748E+03  0.45824345820E+03  0.11162057661E+04  0.89986459948E+03 0.  0.
        -24    2    4    4    0    0 -0.15085679728E+02  0.24055502507E+03  0.27873751538E+03  0.37752832196E+03  0.82089789768E+02 0.  0.
         24    2    4    4    0    0  0.15367479236E+03 -0.69548909255E+03  0.17950594283E+03  0.73867744414E+03  0.78108663515E+02 0.  0.
         11    1    3    3    0    0 -0.90702403332E+02  0.22899161633E+03  0.45718018468E+03  0.51930511993E+03  0.00000000000E+00 0.  1.
        -11    1    3    3    0    0 -0.47886709303E+02  0.22594245114E+03  0.62770845288E+03  0.66885052887E+03  0.00000000000E+00 0. -1.
          2    1    6    6  502    0  0.26888416273E+02 -0.25319264091E+03  0.38954161820E+02  0.25757897248E+03  0.00000000000E+00 0. -1.
          1    1    5    5  503    0  0.90083901693E+01  0.53588142086E+00  0.28750017932E+02  0.30133068105E+02  0.00000000000E+00 0. -1.
         -2    1    5    5    0  503 -0.24094069897E+02  0.24001914365E+03  0.24998749745E+03  0.34739525385E+03  0.00000000000E+00 0.  1.
         -3    1    6    6    0  502  0.12678637609E+03 -0.44229645164E+03  0.14055178101E+03  0.48109847166E+03  0.00000000000E+00 0.  1.
<mgrwt>
<rscale>  0 0.17113810E+04</rscale>
<asrwt>0</asrwt>
<pdfrwt beam="1">  1        1 0.29596103E+00 0.17113810E+04</pdfrwt>
<pdfrwt beam="2">  1       -1 0.58556103E-01 0.17113810E+04</pdfrwt>
<totfact> 0.94343689E+00</totfact>
</mgrwt>
</event>
<event>
12    1  0.1496989E-007  0.1639042E+04  0.7818608E-02  0.8796916E-01
         -1   -1    0    0    0  501 -0.00000000000E+00  0.00000000000E+00  0.80370039414E+03  0.80370039414E+03  0.00000000000E+00 0.  1.
          1   -1    0    0  501    0  0.00000000000E+00 -0.00000000000E+00 -0.83565282748E+03  0.83565282748E+03  0.00000000000E+00 0. -1.
         23    2    1    2    0    0  0.43471595654E+03  0.29780268491E+03  0.19400865853E+03  0.56897602768E+03  0.91814805306E+02 0.  0.
        254    2    1    2    0    0 -0.43471595654E+03 -0.29780268491E+03 -0.22596109186E+03  0.10703771939E+04  0.90387196010E+03 0.  0.
        -24    2    4    4    0    0 -0.32736469438E+03 -0.58368077981E+03 -0.31287255848E+03  0.74306728813E+03  0.80055362015E+02 0.  0.
         24    2    4    4    0    0 -0.10735126217E+03  0.28587809490E+03  0.86911466621E+02  0.32730990581E+03  0.79546167609E+02 0.  0.
         13    1    3    3    0    0  0.35971565692E+03  0.23548374507E+03  0.19346431396E+03  0.47146196962E+03  0.00000000000E+00 0.  1.
        -13    1    3    3    0    0  0.75000299623E+02  0.62318939848E+02  0.54434456485E+00  0.97514058055E+02  0.00000000000E+00 0. -1.
          4    1    6    6  502    0 -0.25006128913E+02  0.17756471866E+03  0.54922451541E+02  0.18753935982E+03  0.00000000000E+00 0. -1.
          1    1    5    5  503    0 -0.19461439195E+03 -0.29576132658E+03 -0.19931206871E+03  0.40629401249E+03  0.00000000000E+00 0. -1.
         -2    1    5    5    0  503 -0.13275030243E+03 -0.28791945323E+03 -0.11356048977E+03  0.33677327564E+03  0.00000000000E+00 0.  1.
         -3    1    6    6    0  502 -0.82345133256E+02  0.10831337623E+03  0.31989015080E+02  0.13977054600E+03  0.00000000000E+00 0.  1.
<mgrwt>
<rscale>  0 0.16390418E+04</rscale>
<asrwt>0</asrwt>
<pdfrwt beam="1">  1        1 0.12856197E+00 0.16390418E+04</pdfrwt>
<pdfrwt beam="2">  1       -1 0.12364621E+00 0.16390418E+04</pdfrwt>
<totfact> 0.11330269E+01</totfact>
</mgrwt>
</event>
<event>
12    1  0.1496989E-007  0.2098697E+04  0.7818608E-02  0.8561818E-01
          2   -1    0    0  501    0  0.00000000000E+00  0.00000000000E+00  0.18430896464E+04  0.18430896464E+04  0.00000000000E+00 0. -1.
         -2   -1    0    0    0  501 -0.00000000000E+00 -0.00000000000E+00 -0.59743811826E+03  0.59743811826E+03  0.00000000000E+00 0.  1.
         23    2    1    2    0    0  0.73225727674E+03 -0.21315646373E+03  0.95323709974E+03  0.12242425761E+04  0.92046289199E+02 0.  0.
        254    2    1    2    0    0 -0.73225727674E+03  0.21315646373E+03  0.29241442838E+03  0.12162851886E+04  0.90122531294E+03 0.  0.
        -24    2    4    4    0    0 -0.37447667299E+03  0.95529874911E+02 -0.30973564274E+03  0.50159855402E+03  0.79411620017E+02 0.  0.
         24    2    4    4    0    0 -0.35778060374E+03  0.11762658882E+03  0.60215007111E+03  0.71468663457E+03  0.79682511720E+02 0.  0.
         11    1    3    3    0    0  0.64209473792E+03 -0.15541116595E+03  0.83488673747E+03  0.10646474287E+04  0.00000000000E+00 0. -1.
        -11    1    3    3    0    0  0.90162538813E+02 -0.57745297784E+02  0.11835036228E+03  0.15959514740E+03  0.00000000000E+00 0.  1.
          4    1    6    6  502    0 -0.17283946895E+03  0.75515216716E+02  0.36647548698E+03  0.41216539464E+03  0.00000000000E+00 0. -1.
          1    1    5    5  503    0 -0.32405805223E+03  0.61019362607E+02 -0.28440477169E+03  0.43545729755E+03  0.00000000000E+00 0. -1.
         -2    1    5    5    0  503 -0.50418620764E+02  0.34510512304E+02 -0.25330871043E+02  0.66141256467E+02  0.00000000000E+00 0.  1.
         -3    1    6    6    0  502 -0.18494113480E+03  0.42111372107E+02  0.23567458413E+03  0.30252123993E+03  0.00000000000E+00 0.  1.
<mgrwt>
<rscale>  0 0.20986967E+04</rscale>
<asrwt>0</asrwt>
<pdfrwt beam="1">  1        2 0.28355225E+00 0.20986967E+04</pdfrwt>
<pdfrwt beam="2">  1       -2 0.91913558E-01 0.20986967E+04</pdfrwt>
<totfact> 0.75756391E+00</totfact>
</mgrwt>
</event>
<event>
12    1  0.1496989E-007  0.3211774E+04  0.7818608E-02  0.8185714E-01
          1   -1    0    0  501    0  0.00000000000E+00  0.00000000000E+00  0.22697597985E+04  0.22697597985E+04  0.00000000000E+00 0. -1.
         -1   -1    0    0    0  501 -0.00000000000E+00 -0.00000000000E+00 -0.11361879509E+04  0.11361879509E+04  0.00000000000E+00 0.  1.
         23    2    1    2    0    0  0.10339578421E+04  0.65529990027E+03 -0.35879403568E+03  0.12789578056E+04  0.92266623615E+02 0.  0.
        254    2    1    2    0    0 -0.10339578421E+04 -0.65529990027E+03  0.14923658833E+04  0.21269899438E+04  0.89355666473E+03 0.  0.
        -24    2    4    4    0    0 -0.17349578409E+03 -0.59327324606E+03  0.82182087701E+03  0.10314405226E+04  0.80037904320E+02 0.  0.
         24    2    4    4    0    0 -0.86046205801E+03 -0.62026654210E+02  0.67054500629E+03  0.10955494213E+04  0.79722455408E+02 0.  0.
         11    1    3    3    0    0  0.93407876954E+03  0.58282822629E+03 -0.29397002826E+03  0.11395658237E+04  0.00000000000E+00 0. -1.
        -11    1    3    3    0    0  0.99879072553E+02  0.72471673979E+02 -0.64824007416E+02  0.13939198184E+03  0.00000000000E+00 0.  1.
          2    1    6    6  502    0 -0.12455814489E+03  0.16008205623E+02  0.11385130090E+03  0.16950844470E+03  0.00000000000E+00 0. -1.
          3    1    5    5  503    0 -0.50420942422E+02 -0.16847268687E+03  0.17688177576E+03  0.24942429764E+03  0.00000000000E+00 0. -1.
         -4    1    5    5    0  503 -0.12307484166E+03 -0.42480055919E+03  0.64493910125E+03  0.78201622494E+03  0.00000000000E+00 0.  1.
         -1    1    6    6    0  502 -0.73590391312E+03 -0.78034859833E+02  0.55669370539E+03  0.92604097658E+03  0.00000000000E+00 0.  1.
<mgrwt>
<rscale>  0 0.32117744E+04</rscale>
<asrwt>0</asrwt>
<pdfrwt beam="1">  1        1 0.34919381E+00 0.32117744E+04</pdfrwt>
<pdfrwt beam="2">  1       -1 0.17479815E+00 0.32117744E+04</pdfrwt>
<totfact> 0.37025037E-01</totfact>
</mgrwt>
</event>
<event>
12    1  0.1496989E-007  0.2092968E+04  0.7818608E-02  0.8564348E-01
          2   -1    0    0  501    0  0.00000000000E+00  0.00000000000E+00  0.31525320198E+04  0.31525320198E+04  0.00000000000E+00 0. -1.
         -2   -1    0    0    0  501 -0.00000000000E+00 -0.00000000000E+00 -0.34738056892E+03  0.34738056892E+03  0.00000000000E+00 0.  1.
         23    2    1    2    0    0 -0.70362078102E+03 -0.40890933345E+03  0.69260340056E+03  0.10727082871E+04  0.93351765961E+02 0.  0.
        254    2    1    2    0    0  0.70362078102E+03  0.40890933345E+03  0.21125480503E+04  0.24272043017E+04  0.87531275015E+03 0.  0.
        -24    2    4    4    0    0  0.81644041059E+03  0.98776400873E+02  0.12315835656E+04  0.14830871645E+04  0.80110779810E+02 0.  0.
         24    2    4    4    0    0 -0.11281962957E+03  0.31013293258E+03  0.88096448475E+03  0.94411713717E+03  0.79674592125E+02 0.  0.
         11    1    3    3    0    0 -0.14284462988E+03 -0.42845216665E+02  0.13817008376E+03  0.20330094176E+03  0.00000000000E+00 0. -1.
        -11    1    3    3    0    0 -0.56077615114E+03 -0.36606411679E+03  0.55443331680E+03  0.86940734530E+03  0.00000000000E+00 0.  1.
          2    1    6    6  502    0 -0.63124937166E+02  0.70465189712E+02  0.25731883408E+03  0.27415886458E+03  0.00000000000E+00 0. -1.
          1    1    5    5  503    0  0.18473443215E+03  0.56435466238E+02  0.28868316272E+03  0.34734671541E+03  0.00000000000E+00 0. -1.
         -2    1    5    5    0  503  0.63170597844E+03  0.42340934634E+02  0.94290040288E+03  0.11357404491E+04  0.00000000000E+00 0.  1.
         -1    1    6    6    0  502 -0.49694692405E+02  0.23966774287E+03  0.62364565066E+03  0.66995827259E+03  0.00000000000E+00 0.  1.
<mgrwt>
<rscale>  0 0.20929676E+04</rscale>
<asrwt>0</asrwt>
<pdfrwt beam="1">  1        2 0.48500491E+00 0.20929676E+04</pdfrwt>
<pdfrwt beam="2">  1       -2 0.53443167E-01 0.20929676E+04</pdfrwt>
<totfact> 0.42469629E+00</totfact>
</mgrwt>
</event>
<event>
12    1  0.1496989E-007  0.1234997E+04  0.7818608E-02  0.9082763E-01
          2   -1    0    0  501    0  0.00000000000E+00  0.00000000000E+00  0.62789351063E+03  0.62789351063E+03  0.00000000000E+00 0. -1.
         -2   -1    0    0    0  501 -0.00000000000E+00 -0.00000000000E+00 -0.60727586485E+03  0.60727586485E+03  0.00000000000E+00 0.  1.
         23    2    1    2    0    0  0.22986790553E+03 -0.15423125920E+03  0.10349931318E+03  0.30914417977E+03  0.90727508243E+02 0.  0.
        254    2    1    2    0    0 -0.22986790553E+03  0.15423125920E+03 -0.82881667404E+02  0.92602519570E+03  0.87978790454E+03 0.  0.
        -24    2    4    4    0    0 -0.40071540326E+03  0.15628100678E+03 -0.37646161240E+03  0.57709860541E+03  0.79516459113E+02 0.  0.
         24    2    4    4    0    0  0.17084749773E+03 -0.20497475825E+01  0.29357994500E+03  0.34892659029E+03  0.79796693938E+02 0.  0.
         13    1    3    3    0    0  0.65711861054E+02 -0.74667197423E+02  0.74860320264E+02  0.12448817857E+03  0.00000000000E+00 0. -1.
        -13    1    3    3    0    0  0.16415604448E+03 -0.79564061775E+02  0.28638992915E+02  0.18465600120E+03  0.00000000000E+00 0.  1.
          4    1    6    6  502    0  0.11843000385E+03  0.11494742074E+01  0.12430904791E+03  0.17169661178E+03  0.00000000000E+00 0. -1.
          1    1    5    5  503    0 -0.23739317588E+03  0.88701849794E+02 -0.16925793614E+03  0.30474872774E+03  0.00000000000E+00 0. -1.
         -2    1    5    5    0  503 -0.16332222738E+03  0.67579156987E+02 -0.20720367626E+03  0.27234987768E+03  0.00000000000E+00 0.  1.
         -3    1    6    6    0  502  0.52417493876E+02 -0.31992217899E+01  0.16927089708E+03  0.17722997851E+03  0.00000000000E+00 0.  1.
<mgrwt>
<rscale>  0 0.12349973E+04</rscale>
<asrwt>0</asrwt>
<pdfrwt beam="1">  1        2 0.96599002E-01 0.12349973E+04</pdfrwt>
<pdfrwt beam="2">  1       -2 0.93427056E-01 0.12349973E+04</pdfrwt>
<totfact> 0.44781454E+01</totfact>
</mgrwt>
</event>
<event>
12    1  0.1496989E-007  0.1732478E+04  0.7818608E-02  0.8743055E-01
          3   -1    0    0  501    0  0.00000000000E+00  0.00000000000E+00  0.13567899113E+04  0.13567899113E+04  0.00000000000E+00 0.  1.
         -3   -1    0    0    0  501 -0.00000000000E+00 -0.00000000000E+00 -0.55304815610E+03  0.55304815610E+03  0.00000000000E+00 0. -1.
         23    2    1    2    0    0 -0.59789557839E+03 -0.17808832909E+03  0.21194440518E+03  0.66421194601E+03  0.84038697733E+02 0.  0.
        254    2    1    2    0    0  0.59789557839E+03  0.17808832909E+03  0.59179735000E+03  0.12456261214E+04  0.90120239411E+03 0.  0.
        -24    2    4    4    0    0  0.47401436721E+03 -0.30880222760E+03  0.41718978627E+03  0.70735463298E+03  0.79087438589E+02 0.  0.
         24    2    4    4    0    0  0.12388121118E+03  0.48689055669E+03  0.17460756373E+03  0.53827148839E+03  0.82700817511E+02 0.  0.
         11    1    3    3    0    0 -0.29167550854E+03 -0.11927693998E+03  0.13639738480E+03  0.34337419424E+03  0.00000000000E+00 0. -1.
        -11    1    3    3    0    0 -0.30622006986E+03 -0.58811389117E+02  0.75547020374E+02  0.32083775177E+03  0.00000000000E+00 0.  1.
          4    1    6    6  502    0 -0.79618371803E+01  0.83247200383E+02  0.17011031676E+02  0.85339688432E+02  0.00000000000E+00 0. -1.
          3    1    5    5  503    0  0.47143744967E+02 -0.58258295169E+02  0.39281917218E+02  0.84614600784E+02  0.00000000000E+00 0. -1.
         -4    1    5    5    0  503  0.42687062224E+03 -0.25054393243E+03  0.37790786905E+03  0.62274003220E+03  0.00000000000E+00 0.  1.
         -3    1    6    6    0  502  0.13184304836E+03  0.40364335631E+03  0.15759653206E+03  0.45293179996E+03  0.00000000000E+00 0.  1.
<mgrwt>
<rscale>  0 0.17324782E+04</rscale>
<asrwt>0</asrwt>
<pdfrwt beam="1">  1        3 0.20873691E+00 0.17324782E+04</pdfrwt>
<pdfrwt beam="2">  1       -3 0.85084332E-01 0.17324782E+04</pdfrwt>
<totfact> 0.40871764E-01</totfact>
</mgrwt>
</event>
<event>
12    1  0.1677692E-007  0.1766670E+04  0.7818608E-02  0.8724228E-01
         -1   -1    0    0    0  501 -0.00000000000E+00  0.00000000000E+00  0.73821448769E+03  0.73821448769E+03  0.00000000000E+00 0.  1.
          1   -1    0    0  501    0  0.00000000000E+00 -0.00000000000E+00 -0.10569834356E+04  0.10569834356E+04  0.00000000000E+00 0. -1.
         23    2    1    2    0    0  0.45595708711E+03  0.18864123953E+03 -0.56525113792E+03  0.75582166451E+03  0.90967890358E+02 0.  0.
        254    2    1    2    0    0 -0.45595708711E+03 -0.18864123953E+03  0.24648218997E+03  0.10393762588E+04  0.88094673784E+03 0.  0.
        -24    2    4    4    0    0 -0.69413632293E+03 -0.18587887635E+03  0.29909688655E+03  0.78291295760E+03  0.84365633772E+02 0.  0.
         24    2    4    4    0    0  0.23817923581E+03 -0.27623631776E+01 -0.52614696579E+02  0.25646330123E+03  0.79171583018E+02 0.  0.
         11    1    3    3    0    0  0.21964005144E+03  0.92483450259E+02 -0.20487133535E+03  0.31427250089E+03  0.00000000000E+00 0.  1.
        -11    1    3    3    0    0  0.23631703567E+03  0.96157789269E+02 -0.36037980258E+03  0.44154916362E+03  0.00000000000E+00 0. -1.
          2    1    6    6  502    0  0.20753064790E+03 -0.28009462354E+02 -0.32394220052E+02  0.21190300917E+03  0.00000000000E+00 0. -1.
          1    1    5    5  503    0 -0.68028780618E+03 -0.17020531454E+03  0.28175273118E+03  0.75574198630E+03  0.00000000000E+00 0. -1.
         -2    1    5    5    0  503 -0.13848516747E+02 -0.15673561809E+02  0.17344155374E+02  0.27170971302E+02  0.00000000000E+00 0.  1.
         -3    1    6    6    0  502  0.30648587911E+02  0.25247099176E+02 -0.20220476528E+02  0.44560292063E+02  0.00000000000E+00 0.  1.
<mgrwt>
<rscale>  0 0.17666697E+04</rscale>
<asrwt>0</asrwt>
<pdfrwt beam="1">  1        1 0.16261284E+00 0.17666697E+04</pdfrwt>
<pdfrwt beam="2">  1       -1 0.11357146E+00 0.17666697E+04</pdfrwt>
<totfact> 0.91506070E+00</totfact>
</mgrwt>
</event>
<event>
12    1  0.1496989E-007  0.1640977E+04  0.7818608E-02  0.8795762E-01
         -1   -1    0    0    0  501 -0.00000000000E+00  0.00000000000E+00  0.11302674712E+04  0.11302674712E+04  0.00000000000E+00 0.  1.
          1   -1    0    0  501    0  0.00000000000E+00 -0.00000000000E+00 -0.59561258444E+03  0.59561258444E+03  0.00000000000E+00 0. -1.
         23    2    1    2    0    0 -0.16522952577E+03  0.47972891744E+03 -0.80093498232E+02  0.52136340013E+03  0.89242344901E+02 0.  0.
        254    2    1    2    0    0  0.16522952577E+03 -0.47972891744E+03  0.61474838501E+03  0.12045166555E+04  0.90305269291E+03 0.  0.
        -24    2    4    4    0    0  0.13623440856E+02 -0.59010540579E+03  0.43756811613E+02  0.59820518250E+03  0.86745568930E+02 0.  0.
         24    2    4    4    0    0  0.15160608492E+03  0.11037648835E+03  0.57099157340E+03  0.60631147303E+03  0.80092766657E+02 0.  0.
         13    1    3    3    0    0 -0.78061082093E+02  0.34690593062E+03 -0.42560989218E+02  0.35811826962E+03  0.00000000000E+00 0. -1.
        -13    1    3    3    0    0 -0.87168443680E+02  0.13282298683E+03 -0.37532509014E+02  0.16324513051E+03  0.00000000000E+00 0.  1.
          2    1    6    6  502    0  0.84905269425E+02  0.10516399040E+03  0.34177200848E+03  0.36752751657E+03  0.00000000000E+00 0. -1.
          3    1    5    5  503    0  0.45843977008E+02 -0.45701907379E+03  0.42422242336E+02  0.46126754783E+03  0.00000000000E+00 0. -1.
         -4    1    5    5    0  503 -0.32220536152E+02 -0.13308633200E+03  0.13345692770E+01  0.13693763467E+03  0.00000000000E+00 0.  1.
         -1    1    6    6    0  502  0.66700815491E+02  0.52124979443E+01  0.22921956492E+03  0.23878395646E+03  0.00000000000E+00 0.  1.
<mgrwt>
<rscale>  0 0.16409772E+04</rscale>
<asrwt>0</asrwt>
<pdfrwt beam="1">  1        1 0.91632706E-01 0.16409772E+04</pdfrwt>
<pdfrwt beam="2">  1       -1 0.17388730E+00 0.16409772E+04</pdfrwt>
<totfact> 0.76275404E+00</totfact>
</mgrwt>
</event>
<event>
12    1  0.1496989E-007  0.2253483E+04  0.7818608E-02  0.8496491E-01
          1   -1    0    0  501    0  0.00000000000E+00  0.00000000000E+00  0.11850136602E+04  0.11850136602E+04  0.00000000000E+00 0. -1.
         -1   -1    0    0    0  501 -0.00000000000E+00 -0.00000000000E+00 -0.10713345952E+04  0.10713345952E+04  0.00000000000E+00 0.  1.
         23    2    1    2    0    0  0.62771297238E+03  0.59830682125E+03 -0.31956451616E+03  0.92895121905E+03  0.93990740754E+02 0.  0.
        254    2    1    2    0    0 -0.62771297238E+03 -0.59830682125E+03  0.43324358116E+03  0.13273970364E+04  0.90680111573E+03 0.  0.
        -24    2    4    4    0    0 -0.66203334425E+03 -0.76816167474E+03  0.22076530918E+03  0.10408987175E+04  0.79826755917E+02 0.  0.
         24    2    4    4    0    0  0.34320371875E+02  0.16985485349E+03  0.21247827198E+03  0.28649831884E+03  0.83100610426E+02 0.  0.
         13    1    3    3    0    0  0.25557614006E+03  0.26541773922E+03 -0.89400915477E+02  0.37915466943E+03  0.00000000000E+00 0.  1.
        -13    1    3    3    0    0  0.37213683231E+03  0.33288908203E+03 -0.23016360068E+03  0.54979654962E+03  0.00000000000E+00 0. -1.
          4    1    6    6  502    0 -0.10248476853E+02  0.76032808765E+02  0.43628210866E+02  0.88257804583E+02  0.00000000000E+00 0. -1.
          1    1    5    5  503    0 -0.14883310640E+03 -0.13932807541E+03  0.20576828421E+02  0.20490732546E+03  0.00000000000E+00 0. -1.
         -2    1    5    5    0  503 -0.51320023785E+03 -0.62883359933E+03  0.20018848076E+03  0.83599139207E+03  0.00000000000E+00 0.  1.
         -3    1    6    6    0  502  0.44568848729E+02  0.93822044728E+02  0.16885006112E+03  0.19824051426E+03  0.00000000000E+00 0.  1.
<mgrwt>
<rscale>  0 0.22534828E+04</rscale>
<asrwt>0</asrwt>
<pdfrwt beam="1">  1        1 0.18230979E+00 0.22534828E+04</pdfrwt>
<pdfrwt beam="2">  1       -1 0.16482071E+00 0.22534828E+04</pdfrwt>
<totfact> 0.26738264E+00</totfact>
</mgrwt>
</event>
<event>
12    1  0.1496989E-007  0.1252299E+04  0.7818608E-02  0.9068272E-01
          2   -1    0    0  501    0  0.00000000000E+00  0.00000000000E+00  0.72553721516E+03  0.72553721516E+03  0.00000000000E+00 0. -1.
         -2   -1    0    0    0  501 -0.00000000000E+00 -0.00000000000E+00 -0.54037664025E+03  0.54037664025E+03  0.00000000000E+00 0.  1.
         23    2    1    2    0    0 -0.12061819530E+02 -0.16641950522E+03 -0.18941755386E+03  0.26810289033E+03  0.90328350411E+02 0.  0.
        254    2    1    2    0    0  0.12061819530E+02  0.16641950522E+03  0.37457812877E+03  0.99781096507E+03  0.90965763244E+03 0.  0.
        -24    2    4    4    0    0 -0.40361317761E+03  0.19934570563E+03  0.34314338213E+03  0.57216487986E+03  0.83564116371E+02 0.  0.
         24    2    4    4    0    0  0.41567499714E+03 -0.32926200418E+02  0.31434746642E+02  0.42564608522E+03  0.79477095081E+02 0.  0.
         13    1    3    3    0    0 -0.44287858738E+02 -0.47590135798E+02 -0.82514843765E+02  0.10504729839E+03  0.00000000000E+00 0. -1.
        -13    1    3    3    0    0  0.32226039207E+02 -0.11882936942E+03 -0.10690271010E+03  0.16305559195E+03  0.00000000000E+00 0.  1.
          2    1    6    6  502    0  0.37757606462E+03 -0.24908277926E+02  0.51434037632E+02  0.38187637674E+03  0.00000000000E+00 0. -1.
          3    1    5    5  503    0 -0.33170692493E+03  0.12527503470E+03  0.26254742876E+03  0.44119663498E+03  0.00000000000E+00 0. -1.
         -4    1    5    5    0  503 -0.71906252683E+02  0.74070670936E+02  0.80595953368E+02  0.13096824488E+03  0.00000000000E+00 0.  1.
         -1    1    6    6    0  502  0.38098932522E+02 -0.80179224917E+01 -0.19999290990E+02  0.43769708481E+02  0.00000000000E+00 0.  1.
<mgrwt>
<rscale>  0 0.12522993E+04</rscale>
<asrwt>0</asrwt>
<pdfrwt beam="1">  1        2 0.11162111E+00 0.12522993E+04</pdfrwt>
<pdfrwt beam="2">  1       -2 0.83134868E-01 0.12522993E+04</pdfrwt>
<totfact> 0.48798578E+01</totfact>
</mgrwt>
</event>
<event>
12    1  0.1496989E-007  0.1404907E+04  0.7818608E-02  0.8950274E-01
          4   -1    0    0  501    0  0.00000000000E+00  0.00000000000E+00  0.95960677376E+03  0.95960677376E+03  0.00000000000E+00 0. -1.
         -4   -1    0    0    0  501 -0.00000000000E+00 -0.00000000000E+00 -0.51421141141E+03  0.51421141141E+03  0.00000000000E+00 0.  1.
         23    2    1    2    0    0 -0.25473955576E+03  0.92710274604E+02  0.41947150815E+03  0.50894482563E+03  0.97882853938E+02 0.  0.
        254    2    1    2    0    0  0.25473955576E+03 -0.92710274604E+02  0.25923854205E+02  0.96487335954E+03  0.92564632417E+03 0.  0.
        -24    2    4    4    0    0  0.13050514943E+03  0.20360278439E+03  0.39393709666E+03  0.46872760531E+03  0.77675247126E+02 0.  0.
         24    2    4    4    0    0  0.12423440633E+03 -0.29631305899E+03 -0.36801324246E+03  0.49614575423E+03  0.86551985338E+02 0.  0.
         13    1    3    3    0    0 -0.53808536588E+02  0.38213310008E+02  0.43081575368E+02  0.78813944246E+02  0.00000000000E+00 0.  1.
        -13    1    3    3    0    0 -0.20093101917E+03  0.54496964596E+02  0.37638993278E+03  0.43013088138E+03  0.00000000000E+00 0. -1.
          4    1    6    6  502    0  0.13015193721E+03 -0.28383582407E+03 -0.32382468716E+03  0.44984967467E+03  0.00000000000E+00 0. -1.
          1    1    5    5  503    0  0.85562364761E+02  0.86226298768E+02  0.24782686403E+03  0.27599646265E+03  0.00000000000E+00 0. -1.
         -4    1    5    5    0  503  0.44942784670E+02  0.11737648562E+03  0.14611023264E+03  0.19273114266E+03  0.00000000000E+00 0.  1.
         -3    1    6    6    0  502 -0.59175308771E+01 -0.12477234922E+02 -0.44188555303E+02  0.46296079562E+02  0.00000000000E+00 0.  1.
<mgrwt>
<rscale>  0 0.14049068E+04</rscale>
<asrwt>0</asrwt>
<pdfrwt beam="1">  1        4 0.14763181E+00 0.14049068E+04</pdfrwt>
<pdfrwt beam="2">  1       -4 0.79109448E-01 0.14049068E+04</pdfrwt>
<totfact> 0.85989645E-01</totfact>
</mgrwt>
</event>
<event>
12    1  0.1496989E-007  0.2573249E+04  0.7818608E-02  0.8377345E-01
          1   -1    0    0  501    0  0.00000000000E+00  0.00000000000E+00  0.93537923502E+03  0.93537923502E+03  0.00000000000E+00 0. -1.
         -1   -1    0    0    0  501 -0.00000000000E+00 -0.00000000000E+00 -0.17697668409E+04  0.17697668409E+04  0.00000000000E+00 0.  1.
         23    2    1    2    0    0  0.72669999983E+03 -0.73329902119E+03 -0.83424264336E+03  0.13303013907E+04  0.88998078040E+02 0.  0.
        254    2    1    2    0    0 -0.72669999983E+03  0.73329902119E+03 -0.14496253398E+00  0.13748446852E+04  0.90795239041E+03 0.  0.
        -24    2    4    4    0    0 -0.18730288213E+02 -0.15171188641E+03  0.14979507405E+03  0.22881483628E+03  0.80934201165E+02 0.  0.
         24    2    4    4    0    0 -0.70796971162E+03  0.88501090760E+03 -0.14994003658E+03  0.11460298490E+04  0.80230798162E+02 0.  0.
         11    1    3    3    0    0  0.58202298237E+03 -0.57501101500E+03 -0.61422117912E+03  0.10230621077E+04  0.00000000000E+00 0.  1.
        -11    1    3    3    0    0  0.14467701747E+03 -0.15828800619E+03 -0.22002146424E+03  0.30723928299E+03  0.00000000000E+00 0. -1.
          4    1    6    6  502    0 -0.10990826892E+03  0.97026580864E+02 -0.10121001413E+02  0.14695720344E+03  0.00000000000E+00 0. -1.
          3    1    5    5  503    0 -0.59890971555E+01 -0.31603710441E+02 -0.49162933685E+01  0.32539725550E+02  0.00000000000E+00 0. -1.
         -4    1    5    5    0  503 -0.12741191058E+02 -0.12010817597E+03  0.15471136742E+03  0.19627511073E+03  0.00000000000E+00 0.  1.
         -3    1    6    6    0  502 -0.59806144270E+03  0.78798432674E+03 -0.13981903517E+03  0.99907264552E+03  0.00000000000E+00 0.  1.
<mgrwt>
<rscale>  0 0.25732494E+04</rscale>
<asrwt>0</asrwt>
<pdfrwt beam="1">  1        1 0.14390450E+00 0.25732494E+04</pdfrwt>
<pdfrwt beam="2">  1       -1 0.27227182E+00 0.25732494E+04</pdfrwt>
<totfact> 0.75081564E-01</totfact>
</mgrwt>
</event>
<event>
12    1  0.1496989E-007  0.1428518E+04  0.7818608E-02  0.8933431E-01
         -1   -1    0    0    0  501 -0.00000000000E+00  0.00000000000E+00  0.74196491852E+03  0.74196491852E+03  0.00000000000E+00 0.  1.
          1   -1    0    0  501    0  0.00000000000E+00 -0.00000000000E+00 -0.68758759796E+03  0.68758759796E+03  0.00000000000E+00 0. -1.
         23    2    1    2    0    0  0.10631737497E+03  0.29024760341E+03  0.30822576974E+03  0.44610349678E+03  0.91968196679E+02 0.  0.
        254    2    1    2    0    0 -0.10631737497E+03 -0.29024760341E+03 -0.25384844917E+03  0.98344901970E+03  0.89843524180E+03 0.  0.
        -24    2    4    4    0    0 -0.17803058433E+02  0.86047957066E+02  0.28848935940E+03  0.31300770565E+03  0.83824301387E+02 0.  0.
         24    2    4    4    0    0 -0.88514316536E+02 -0.37629556047E+03 -0.54233780858E+03  0.67044131405E+03  0.76994310893E+02 0.  0.
         11    1    3    3    0    0  0.59634036139E+02  0.11938262135E+03  0.74476715393E+02  0.15282411355E+03  0.00000000000E+00 0. -1.
        -11    1    3    3    0    0  0.46683338830E+02  0.17086498206E+03  0.23374905435E+03  0.29327938323E+03  0.00000000000E+00 0.  1.
          4    1    6    6  502    0 -0.10108572921E+02 -0.85377809933E+02 -0.73364176328E+02  0.11302148488E+03  0.00000000000E+00 0. -1.
          1    1    5    5  503    0 -0.41085277115E+02  0.69372500252E+02  0.13807497480E+03  0.15989134577E+03  0.00000000000E+00 0. -1.
         -2    1    5    5    0  503  0.23282218683E+02  0.16675456814E+02  0.15041438460E+03  0.15311635988E+03  0.00000000000E+00 0.  1.
         -3    1    6    6    0  502 -0.78405743615E+02 -0.29091775054E+03 -0.46897363225E+03  0.55741982917E+03  0.00000000000E+00 0.  1.
<mgrwt>
<rscale>  0 0.14285179E+04</rscale>
<asrwt>0</asrwt>
<pdfrwt beam="1">  1        1 0.10578271E+00 0.14285179E+04</pdfrwt>
<pdfrwt beam="2">  1       -1 0.11414845E+00 0.14285179E+04</pdfrwt>
<totfact> 0.19038204E+01</totfact>
</mgrwt>
</event>
<event>
12    1  0.1496989E-007  0.1624244E+04  0.7818608E-02  0.8805791E-01
         -3   -1    0    0    0  501 -0.00000000000E+00  0.00000000000E+00  0.20560442392E+04  0.20560442392E+04  0.00000000000E+00 0.  1.
          3   -1    0    0  501    0  0.00000000000E+00 -0.00000000000E+00 -0.32078189323E+03  0.32078189323E+03  0.00000000000E+00 0. -1.
         23    2    1    2    0    0  0.31086574347E+01 -0.55797860325E+03  0.53835411950E+03  0.78094288495E+03  0.93256882491E+02 0.  0.
        254    2    1    2    0    0 -0.31086574347E+01  0.55797860325E+03  0.11969082264E+04  0.15958832475E+04  0.89604924618E+03 0.  0.
        -24    2    4    4    0    0  0.25678130312E+03  0.69287325451E+03  0.75443688713E+03  0.10589575795E+04  0.78779147126E+02 0.  0.
         24    2    4    4    0    0 -0.25988996056E+03 -0.13489465126E+03  0.44247133931E+03  0.53692566799E+03  0.82273496893E+02 0.  0.
         13    1    3    3    0    0  0.16988627921E+02 -0.45754794648E+03  0.48260258157E+03  0.66523979778E+03  0.00000000000E+00 0. -1.
        -13    1    3    3    0    0 -0.13879970487E+02 -0.10043065677E+03  0.55751537935E+02  0.11570308717E+03  0.00000000000E+00 0.  1.
          2    1    6    6  502    0  0.16130609034E+00 -0.13505295013E+02  0.65361581215E+01  0.15004678471E+02  0.00000000000E+00 0. -1.
          3    1    5    5  503    0  0.54558664313E+00  0.33097843460E+02  0.52921087100E+02  0.62421201257E+02  0.00000000000E+00 0. -1.
         -4    1    5    5    0  503  0.25623571648E+03  0.65977541105E+03  0.70151580003E+03  0.99653637822E+03  0.00000000000E+00 0.  1.
         -1    1    6    6    0  502 -0.26005126665E+03 -0.12138935625E+03  0.43593518119E+03  0.52192098951E+03  0.00000000000E+00 0.  1.
<mgrwt>
<rscale>  0 0.16242435E+04</rscale>
<asrwt>0</asrwt>
<pdfrwt beam="1">  1        3 0.49351062E-01 0.16242435E+04</pdfrwt>
<pdfrwt beam="2">  1       -3 0.31631449E+00 0.16242435E+04</pdfrwt>
<totfact> 0.31587409E-01</totfact>
</mgrwt>
</event>
<event>
12    1  0.1496989E-007  0.2971461E+04  0.7818608E-02  0.8251928E-01
          1   -1    0    0  501    0  0.00000000000E+00  0.00000000000E+00  0.22427057016E+04  0.22427057016E+04  0.00000000000E+00 0. -1.
         -1   -1    0    0    0  501 -0.00000000000E+00 -0.00000000000E+00 -0.98425546873E+03  0.98425546873E+03  0.00000000000E+00 0.  1.
         23    2    1    2    0    0  0.10543382122E+04 -0.80827904988E+03  0.80593113537E+03  0.15565482037E+04  0.91505340671E+02 0.  0.
        254    2    1    2    0    0 -0.10543382122E+04  0.80827904988E+03  0.45251909749E+03  0.16704129666E+04  0.90584869456E+03 0.  0.
        -24    2    4    4    0    0 -0.72205316923E+03 -0.44640175689E+01  0.18610955902E+03  0.75006381217E+03  0.81106397482E+02 0.  0.
         24    2    4    4    0    0 -0.33228504292E+03  0.81274306745E+03  0.26640953846E+03  0.92034915447E+03  0.71441448168E+02 0.  0.
         11    1    3    3    0    0  0.38752963795E+03 -0.28064824852E+03  0.24165618174E+03  0.53604138820E+03  0.00000000000E+00 0. -1.
        -11    1    3    3    0    0  0.66680857420E+03 -0.52763080136E+03  0.56427495363E+03  0.10205068155E+04  0.00000000000E+00 0.  1.
          2    1    6    6  502    0 -0.41186668130E+02  0.17282640960E+03  0.62855079981E+02  0.18845707884E+03  0.00000000000E+00 0. -1.
          3    1    5    5  503    0 -0.35488993681E+03  0.58064499055E+01  0.50446767989E+02  0.35850447488E+03  0.00000000000E+00 0. -1.
         -4    1    5    5    0  503 -0.36716323243E+03 -0.10270467474E+02  0.13566279104E+03  0.39155933729E+03  0.00000000000E+00 0.  1.
         -1    1    6    6    0  502 -0.29109837479E+03  0.63991665785E+03  0.20355445848E+03  0.73189207563E+03  0.00000000000E+00 0.  1.
<mgrwt>
<rscale>  0 0.29714612E+04</rscale>
<asrwt>0</asrwt>
<pdfrwt beam="1">  1        1 0.34503165E+00 0.29714612E+04</pdfrwt>
<pdfrwt beam="2">  1       -1 0.15142392E+00 0.29714612E+04</pdfrwt>
<totfact> 0.59092639E-01</totfact>
</mgrwt>
</event>
<event>
12    1  0.1496989E-007  0.3281341E+04  0.7818608E-02  0.8167659E-01
         -2   -1    0    0    0  501 -0.00000000000E+00  0.00000000000E+00  0.13890576975E+04  0.13890576975E+04  0.00000000000E+00 0.  1.
          2   -1    0    0  501    0  0.00000000000E+00 -0.00000000000E+00 -0.19378604766E+04  0.19378604766E+04  0.00000000000E+00 0. -1.
         23    2    1    2    0    0  0.81916729234E+03  0.12652487880E+04 -0.44309181790E+03  0.15736151734E+04  0.89692846217E+02 0.  0.
        254    2    1    2    0    0 -0.81916729234E+03 -0.12652487880E+04 -0.10571096123E+03  0.17533030006E+04  0.88938577479E+03 0.  0.
        -24    2    4    4    0    0 -0.60113563063E+03 -0.66947332710E+03 -0.46875758365E+03  0.10177488589E+04  0.80749523489E+02 0.  0.
         24    2    4    4    0    0 -0.21803166171E+03 -0.59577546088E+03  0.36304662242E+03  0.73555414169E+03  0.82163495631E+02 0.  0.
         13    1    3    3    0    0  0.54511913093E+03  0.84208155634E+03 -0.33873919498E+03  0.10587730903E+04  0.00000000000E+00 0. -1.
        -13    1    3    3    0    0  0.27404816142E+03  0.42316723164E+03 -0.10435262292E+03  0.51484208319E+03  0.00000000000E+00 0.  1.
          4    1    6    6  502    0 -0.34371026497E+02 -0.16688648935E+03  0.67551589090E+02  0.18329125723E+03  0.00000000000E+00 0. -1.
          1    1    5    5  503    0 -0.37913320185E+03 -0.41100090681E+03 -0.24751497635E+03  0.61149602914E+03  0.00000000000E+00 0. -1.
         -2    1    5    5    0  503 -0.22200242879E+03 -0.25847242029E+03 -0.22124260730E+03  0.40625282980E+03  0.00000000000E+00 0.  1.
         -3    1    6    6    0  502 -0.18366063522E+03 -0.42888897154E+03  0.29549503333E+03  0.55226288446E+03  0.00000000000E+00 0.  1.
<mgrwt>
<rscale>  0 0.32813412E+04</rscale>
<asrwt>0</asrwt>
<pdfrwt beam="1">  1        2 0.29813238E+00 0.32813412E+04</pdfrwt>
<pdfrwt beam="2">  1       -2 0.21370119E+00 0.32813412E+04</pdfrwt>
<totfact> 0.65607320E-01</totfact>
</mgrwt>
</event>
<event>
12    1  0.1496989E-007  0.1880221E+04  0.7818608E-02  0.8664765E-01
         -2   -1    0    0    0  501 -0.00000000000E+00  0.00000000000E+00  0.93728445275E+03  0.93728445275E+03  0.00000000000E+00 0.  1.
          2   -1    0    0  501    0  0.00000000000E+00 -0.00000000000E+00 -0.94294549713E+03  0.94294549713E+03  0.00000000000E+00 0. -1.
         23    2    1    2    0    0 -0.84657087600E+02  0.59236873285E+03  0.39143920848E+03  0.72347538701E+03  0.11011105093E+03 0.  0.
        254    2    1    2    0    0  0.84657087600E+02 -0.59236873285E+03 -0.39710025287E+03  0.11567545629E+04  0.90682135493E+03 0.  0.
        -24    2    4    4    0    0  0.35956533750E+03 -0.53177820167E+03 -0.52897807775E+03  0.83559779727E+03  0.79564969435E+02 0.  0.
         24    2    4    4    0    0 -0.27490824990E+03 -0.60590531185E+02  0.13187782488E+03  0.32115676560E+03  0.80648304791E+02 0.  0.
         13    1    3    3    0    0 -0.95668995130E+02  0.33041122509E+03  0.19104963412E+03  0.39347693324E+03  0.00000000000E+00 0. -1.
        -13    1    3    3    0    0  0.11011907530E+02  0.26195750776E+03  0.20038957436E+03  0.32999845377E+03  0.00000000000E+00 0.  1.
          4    1    6    6  502    0  0.13544617441E+01 -0.47640973670E+01  0.15422933453E+02  0.16198705709E+02  0.00000000000E+00 0. -1.
          1    1    5    5  503    0  0.65756247164E+02 -0.13364885885E+03 -0.15821588822E+03  0.21729742014E+03  0.00000000000E+00 0. -1.
         -2    1    5    5    0  503  0.29380909033E+03 -0.39812934282E+03 -0.37076218952E+03  0.61830037713E+03  0.00000000000E+00 0.  1.
         -3    1    6    6    0  502 -0.27626271164E+03 -0.55826433818E+02  0.11645489143E+03  0.30495805989E+03  0.00000000000E+00 0.  1.
<mgrwt>
<rscale>  0 0.18802214E+04</rscale>
<asrwt>0</asrwt>
<pdfrwt beam="1">  1        2 0.14506854E+00 0.18802214E+04</pdfrwt>
<pdfrwt beam="2">  1       -2 0.14419761E+00 0.18802214E+04</pdfrwt>
<totfact> 0.85578498E+00</totfact>
</mgrwt>
</event>
<event>
12    1  0.1496989E-007  0.1595515E+04  0.7818608E-02  0.8823308E-01
          2   -1    0    0  501    0  0.00000000000E+00  0.00000000000E+00  0.77982042486E+03  0.77982042486E+03  0.00000000000E+00 0. -1.
         -2   -1    0    0    0  501 -0.00000000000E+00 -0.00000000000E+00 -0.81610718323E+03  0.81610718323E+03  0.00000000000E+00 0.  1.
         23    2    1    2    0    0 -0.97733727056E+01  0.39487002422E+03  0.35791453116E+03  0.54389737882E+03  0.10818360428E+03 0.  0.
        254    2    1    2    0    0  0.97733727056E+01 -0.39487002422E+03 -0.39420128953E+03  0.10520302293E+04  0.89182682837E+03 0.  0.
        -24    2    4    4    0    0 -0.31175172516E+03 -0.55842907771E+02  0.12397972613E+03  0.34970833337E+03  0.81347264559E+02 0.  0.
         24    2    4    4    0    0  0.32152509787E+03 -0.33902711645E+03 -0.51818101565E+03  0.70232189590E+03  0.80166740163E+02 0.  0.
         13    1    3    3    0    0  0.31829283952E+02  0.14237108357E+03  0.18250937584E+03  0.23364995404E+03  0.00000000000E+00 0.  1.
        -13    1    3    3    0    0 -0.41602656658E+02  0.25249894065E+03  0.17540515531E+03  0.31024742478E+03  0.00000000000E+00 0. -1.
          2    1    6    6  502    0  0.24529124610E+02 -0.41129136376E+02 -0.24700711189E+02  0.53883290048E+02  0.00000000000E+00 0. -1.
          1    1    5    5  503    0 -0.28155380814E+02  0.16009956541E+02  0.24812567490E+02  0.40800829436E+02  0.00000000000E+00 0. -1.
         -2    1    5    5    0  503 -0.28359634435E+03 -0.71852864312E+02  0.99167158636E+02  0.30890750394E+03  0.00000000000E+00 0.  1.
         -1    1    6    6    0  502  0.29699597326E+03 -0.29789798008E+03 -0.49348030446E+03  0.64843860585E+03  0.00000000000E+00 0.  1.
<mgrwt>
<rscale>  0 0.15955150E+04</rscale>
<asrwt>0</asrwt>
<pdfrwt beam="1">  1        2 0.11997237E+00 0.15955150E+04</pdfrwt>
<pdfrwt beam="2">  1       -2 0.12555495E+00 0.15955150E+04</pdfrwt>
<totfact> 0.16205625E+01</totfact>
</mgrwt>
</event>
<event>
12    1  0.1496989E-007  0.1378084E+04  0.7818608E-02  0.8969837E-01
          2   -1    0    0  501    0  0.00000000000E+00  0.00000000000E+00  0.18079929164E+04  0.18079929164E+04  0.00000000000E+00 0. -1.
         -2   -1    0    0    0  501 -0.00000000000E+00 -0.00000000000E+00 -0.26260008691E+03  0.26260008691E+03  0.00000000000E+00 0.  1.
         23    2    1    2    0    0  0.29062720536E+03  0.18195509627E+03  0.17103332733E+03  0.39401440037E+03  0.91777552205E+02 0.  0.
        254    2    1    2    0    0 -0.29062720536E+03 -0.18195509627E+03  0.13743595022E+04  0.16765786030E+04  0.89692805792E+03 0.  0.
        -24    2    4    4    0    0 -0.24099971707E+03  0.18811657261E+03  0.78252059043E+02  0.32547659995E+03  0.79642475194E+02 0.  0.
         24    2    4    4    0    0 -0.49627488289E+02 -0.37007166887E+03  0.12961074431E+04  0.13511020030E+04  0.78525095684E+02 0.  0.
         11    1    3    3    0    0  0.21039135626E+03  0.16767639834E+03  0.15646730336E+03  0.31122646798E+03  0.00000000000E+00 0.  1.
        -11    1    3    3    0    0  0.80235849100E+02  0.14278697924E+02  0.14566023968E+02  0.82787932390E+02  0.00000000000E+00 0. -1.
          4    1    6    6  502    0  0.20373088793E+02 -0.12485338433E+03  0.42135225626E+03  0.43993312467E+03  0.00000000000E+00 0. -1.
          1    1    5    5  503    0 -0.18154556815E+03  0.11890663171E+03  0.87019097403E+02  0.23381596116E+03  0.00000000000E+00 0. -1.
         -2    1    5    5    0  503 -0.59454148925E+02  0.69209940897E+02 -0.87670383593E+01  0.91660638798E+02  0.00000000000E+00 0.  1.
         -3    1    6    6    0  502 -0.70000577082E+02 -0.24521828454E+03  0.87475518689E+03  0.91116887834E+03  0.00000000000E+00 0.  1.
<mgrwt>
<rscale>  0 0.13780843E+04</rscale>
<asrwt>0</asrwt>
<pdfrwt beam="1">  1        2 0.27815275E+00 0.13780843E+04</pdfrwt>
<pdfrwt beam="2">  1       -2 0.40400015E-01 0.13780843E+04</pdfrwt>
<totfact> 0.48293969E+01</totfact>
</mgrwt>
</event>
<event>
12    1  0.1496989E-007  0.1359828E+04  0.7818608E-02  0.8983421E-01
         -2   -1    0    0    0  501 -0.00000000000E+00  0.00000000000E+00  0.15850890683E+03  0.15850890683E+03  0.00000000000E+00 0.  1.
          2   -1    0    0  501    0  0.00000000000E+00 -0.00000000000E+00 -0.29164500840E+04  0.29164500840E+04  0.00000000000E+00 0. -1.
         23    2    1    2    0    0 -0.26490763909E+03  0.17447458336E+03 -0.40699113268E+03  0.52424836282E+03  0.92612776369E+02 0.  0.
        254    2    1    2    0    0  0.26490763909E+03 -0.17447458336E+03 -0.23509500445E+04  0.25507106281E+04  0.93730526442E+03 0.  0.
        -24    2    4    4    0    0 -0.71242724034E+02  0.98259050612E+02  0.11682322246E+02  0.14723871546E+03  0.82537239603E+02 0.  0.
         24    2    4    4    0    0  0.33615036313E+03 -0.27273363397E+03 -0.23626323668E+04  0.24034719126E+04  0.85233986063E+02 0.  0.
         13    1    3    3    0    0  0.15645910314E+00  0.27146283914E+02 -0.31170684678E+02  0.41334692367E+02  0.00000000000E+00 0. -1.
        -13    1    3    3    0    0 -0.26506409820E+03  0.14732829945E+03 -0.37582044800E+03  0.48291367045E+03  0.00000000000E+00 0.  1.
          2    1    6    6  502    0  0.19749685673E+01 -0.23160867614E+02 -0.16255919751E+03  0.16421272479E+03  0.00000000000E+00 0. -1.
          1    1    5    5  503    0 -0.55270808202E+02  0.26787843425E+02 -0.23789172767E+02  0.65866346002E+02  0.00000000000E+00 0. -1.
         -2    1    5    5    0  503 -0.15971915832E+02  0.71471207187E+02  0.35471495014E+02  0.81372369455E+02  0.00000000000E+00 0.  1.
         -1    1    6    6    0  502  0.33417539456E+03 -0.24957276636E+03 -0.22000731693E+04  0.22392591878E+04  0.00000000000E+00 0.  1.
<mgrwt>
<rscale>  0 0.13598284E+04</rscale>
<asrwt>0</asrwt>
<pdfrwt beam="1">  1        2 0.44868461E+00 0.13598284E+04</pdfrwt>
<pdfrwt beam="2">  1       -2 0.24385987E-01 0.13598284E+04</pdfrwt>
<totfact> 0.29005711E+01</totfact>
</mgrwt>
</event>
<event>
12    1  0.1496989E-007  0.1462235E+04  0.7818608E-02  0.8909962E-01
         -1   -1    0    0    0  501 -0.00000000000E+00  0.00000000000E+00  0.74676163502E+03  0.74676163502E+03  0.00000000000E+00 0.  1.
          1   -1    0    0  501    0  0.00000000000E+00 -0.00000000000E+00 -0.71580064867E+03  0.71580064867E+03  0.00000000000E+00 0. -1.
         23    2    1    2    0    0 -0.37070729870E+03  0.10573880502E+03 -0.12558645136E+03  0.41541888405E+03  0.90533398629E+02 0.  0.
        254    2    1    2    0    0  0.37070729870E+03 -0.10573880502E+03  0.15654743770E+03  0.10471433996E+04  0.96093579545E+03 0.  0.
        -24    2    4    4    0    0  0.10783824007E+02  0.47155199942E+02  0.50704735229E+03  0.51561140457E+03  0.80113664974E+02 0.  0.
         24    2    4    4    0    0  0.35992347469E+03 -0.15289400496E+03 -0.35049991459E+03  0.53153199507E+03  0.82186296121E+02 0.  0.
         11    1    3    3    0    0 -0.25109791420E+03  0.64690049674E+02 -0.39131524139E+02  0.26223318101E+03  0.00000000000E+00 0.  1.
        -11    1    3    3    0    0 -0.11960938450E+03  0.41048755343E+02 -0.86454927218E+02  0.15318570304E+03  0.00000000000E+00 0. -1.
          4    1    6    6  502    0  0.15141246545E+03 -0.28084263163E+02 -0.10701840064E+03  0.18752972726E+03  0.00000000000E+00 0. -1.
          1    1    5    5  503    0  0.10155936319E+02  0.70259490503E+01  0.74874286494E+01  0.14441903973E+02  0.00000000000E+00 0. -1.
         -2    1    5    5    0  503  0.62788768737E+00  0.40129250891E+02  0.49955992364E+03  0.50116950060E+03  0.00000000000E+00 0.  1.
         -3    1    6    6    0  502  0.20851100924E+03 -0.12480974180E+03 -0.24348151396E+03  0.34400226781E+03  0.00000000000E+00 0.  1.
<mgrwt>
<rscale>  0 0.14622345E+04</rscale>
<asrwt>0</asrwt>
<pdfrwt beam="1">  1        1 0.11012318E+00 0.14622345E+04</pdfrwt>
<pdfrwt beam="2">  1       -1 0.11488641E+00 0.14622345E+04</pdfrwt>
<totfact> 0.17583744E+01</totfact>
</mgrwt>
</event>
<event>
12    1  0.1496989E-007  0.1743189E+04  0.7818608E-02  0.8737108E-01
          2   -1    0    0  501    0  0.00000000000E+00  0.00000000000E+00  0.17557720741E+04  0.17557720741E+04  0.00000000000E+00 0. -1.
         -2   -1    0    0    0  501 -0.00000000000E+00 -0.00000000000E+00 -0.43267412857E+03  0.43267412857E+03  0.00000000000E+00 0.  1.
         23    2    1    2    0    0  0.16102859461E+03  0.26712258328E+03 -0.20241836638E+03  0.38264701941E+03  0.90337498478E+02 0.  0.
        254    2    1    2    0    0 -0.16102859461E+03 -0.26712258328E+03  0.15255163120E+04  0.18057991833E+04  0.91456327808E+03 0.  0.
        -24    2    4    4    0    0 -0.41023240736E+03 -0.34077347370E+03  0.14114850087E+04  0.15110269069E+04  0.80592773535E+02 0.  0.
         24    2    4    4    0    0  0.24920381276E+03  0.73650890421E+02  0.11403130327E+03  0.29477227643E+03  0.79753137064E+02 0.  0.
         11    1    3    3    0    0  0.12277386243E+03  0.20098168606E+03 -0.19521363849E+03  0.30590100372E+03  0.00000000000E+00 0.  1.
        -11    1    3    3    0    0  0.38254732181E+02  0.66140897223E+02 -0.72047278978E+01  0.76746015686E+02  0.00000000000E+00 0. -1.
          4    1    6    6  502    0  0.17986741842E+03  0.68349540209E+02  0.11695517379E+03  0.22517206872E+03  0.00000000000E+00 0. -1.
          3    1    5    5  503    0 -0.29636563449E+03 -0.28961241900E+03  0.10692594046E+04  0.11467447915E+04  0.00000000000E+00 0. -1.
         -4    1    5    5    0  503 -0.11386677287E+03 -0.51161054701E+02  0.34222560411E+03  0.36428211538E+03  0.00000000000E+00 0.  1.
         -3    1    6    6    0  502  0.69336394341E+02  0.53013502126E+01 -0.29238705190E+01  0.69600207708E+02  0.00000000000E+00 0.  1.
<mgrwt>
<rscale>  0 0.17431892E+04</rscale>
<asrwt>0</asrwt>
<pdfrwt beam="1">  1        2 0.27011878E+00 0.17431892E+04</pdfrwt>
<pdfrwt beam="2">  1       -2 0.66565251E-01 0.17431892E+04</pdfrwt>
<totfact> 0.17956079E+01</totfact>
</mgrwt>
</event>
<event>
12    1  0.1663358E-007  0.2474063E+04  0.7818608E-02  0.8412284E-01
          1   -1    0    0  501    0  0.00000000000E+00  0.00000000000E+00  0.15730797448E+04  0.15730797448E+04  0.00000000000E+00 0. -1.
         -1   -1    0    0    0  501 -0.00000000000E+00 -0.00000000000E+00 -0.97277151974E+03  0.97277151974E+03  0.00000000000E+00 0.  1.
         23    2    1    2    0    0 -0.27271129355E+02 -0.91288682986E+03  0.88167158862E+03  0.12727744474E+04  0.92216728590E+02 0.  0.
        254    2    1    2    0    0  0.27271129355E+02  0.91288682986E+03 -0.28136336352E+03  0.12730768172E+04  0.84110234905E+03 0.  0.
        -24    2    4    4    0    0 -0.34606061942E+03  0.19278532832E+03  0.18906219915E+02  0.40456137413E+03  0.79926998976E+02 0.  0.
         24    2    4    4    0    0  0.37333174877E+03  0.72010150155E+03 -0.30026958343E+03  0.86851544308E+03  0.78958754851E+02 0.  0.
         11    1    3    3    0    0 -0.13604965429E+02 -0.92183122242E+02  0.12879250192E+03  0.15896644823E+03  0.00000000000E+00 0. -1.
        -11    1    3    3    0    0 -0.13666163926E+02 -0.82070370762E+03  0.75287908670E+03  0.11138079991E+04  0.00000000000E+00 0.  1.
          2    1    6    6  502    0  0.37422809119E+03  0.70674804955E+03 -0.28695442093E+03  0.84963657493E+03  0.00000000000E+00 0. -1.
          1    1    5    5  503    0 -0.31592162954E+03  0.17644951842E+03 -0.64605806158E+01  0.36191524928E+03  0.00000000000E+00 0. -1.
         -2    1    5    5    0  503 -0.30138989880E+02  0.16335809898E+02  0.25366800531E+02  0.42646124855E+02  0.00000000000E+00 0.  1.
         -1    1    6    6    0  502 -0.89634242092E+00  0.13353452003E+02 -0.13315162505E+02  0.18878868152E+02  0.00000000000E+00 0.  1.
<mgrwt>
<rscale>  0 0.24740632E+04</rscale>
<asrwt>0</asrwt>
<pdfrwt beam="1">  1        1 0.24201227E+00 0.24740632E+04</pdfrwt>
<pdfrwt beam="2">  1       -1 0.14965716E+00 0.24740632E+04</pdfrwt>
<totfact> 0.18203129E+00</totfact>
</mgrwt>
</event>
<event>
12    1  0.1496989E-007  0.1766136E+04  0.7818608E-02  0.8724518E-01
          2   -1    0    0  501    0  0.00000000000E+00  0.00000000000E+00  0.60796583324E+03  0.60796583324E+03  0.00000000000E+00 0. -1.
         -2   -1    0    0    0  501 -0.00000000000E+00 -0.00000000000E+00 -0.12826528192E+04  0.12826528192E+04  0.00000000000E+00 0.  1.
         23    2    1    2    0    0 -0.23013482223E+03 -0.56268243593E+03 -0.19385940304E+02  0.61537927778E+03  0.93500164361E+02 0.  0.
        254    2    1    2    0    0  0.23013482223E+03  0.56268243593E+03 -0.65530104564E+03  0.12752393746E+04  0.90952869230E+03 0.  0.
        -24    2    4    4    0    0  0.94906400816E+02  0.59133374104E+03 -0.36154873464E+01  0.60433179642E+03  0.80752895961E+02 0.  0.
         24    2    4    4    0    0  0.13522842141E+03 -0.28651305116E+02 -0.65168555830E+03  0.67090757822E+03  0.79468788719E+02 0.  0.
         13    1    3    3    0    0 -0.20684122342E+03 -0.54949189819E+03 -0.26335336739E+02  0.58772288354E+03  0.00000000000E+00 0. -1.
        -13    1    3    3    0    0 -0.23293598812E+02 -0.13190537743E+02  0.69493964349E+01  0.27656394240E+02  0.00000000000E+00 0.  1.
          2    1    6    6  502    0  0.11430750346E+03 -0.84957975233E+01 -0.60616495211E+03  0.61690707006E+03  0.00000000000E+00 0. -1.
          3    1    5    5  503    0  0.97748210744E+02  0.53412931669E+03 -0.24019722954E+02  0.54353085169E+03  0.00000000000E+00 0. -1.
         -4    1    5    5    0  503 -0.28418099278E+01  0.57204424355E+02  0.20404235607E+02  0.60800944730E+02  0.00000000000E+00 0.  1.
         -1    1    6    6    0  502  0.20920917949E+02 -0.20155507593E+02 -0.45520606189E+02  0.54000508164E+02  0.00000000000E+00 0.  1.
<mgrwt>
<rscale>  0 0.17661360E+04</rscale>
<asrwt>0</asrwt>
<pdfrwt beam="1">  1        2 0.93533206E-01 0.17661360E+04</pdfrwt>
<pdfrwt beam="2">  1       -2 0.19733120E+00 0.17661360E+04</pdfrwt>
<totfact> 0.63935225E+00</totfact>
</mgrwt>
</event>
<event>
12    1  0.1496989E-007  0.1981859E+04  0.7818608E-02  0.8615149E-01
         -2   -1    0    0    0  501 -0.00000000000E+00  0.00000000000E+00  0.69313693008E+03  0.69313693008E+03  0.00000000000E+00 0.  1.
          2   -1    0    0  501    0  0.00000000000E+00 -0.00000000000E+00 -0.14166633617E+04  0.14166633617E+04  0.00000000000E+00 0. -1.
         23    2    1    2    0    0  0.69201856601E+03  0.28148579252E+03 -0.52352143342E+03  0.91786853613E+03  0.10141011426E+03 0.  0.
        254    2    1    2    0    0 -0.69201856601E+03 -0.28148579252E+03 -0.20000499823E+03  0.11919317557E+04  0.90695940581E+03 0.  0.
        -24    2    4    4    0    0  0.55395557593E+00 -0.44340869725E+03 -0.69642820576E+01  0.45055065952E+03  0.79597838529E+02 0.  0.
         24    2    4    4    0    0 -0.69257252159E+03  0.16192290473E+03 -0.19304071617E+03  0.74138109616E+03  0.80656598668E+02 0.  0.
         11    1    3    3    0    0  0.13121499014E+03  0.76918638839E+02 -0.66216010489E+02  0.16588674053E+03  0.00000000000E+00 0.  1.
        -11    1    3    3    0    0  0.56080357588E+03  0.20456715368E+03 -0.45730542293E+03  0.75198179561E+03  0.00000000000E+00 0. -1.
          2    1    6    6  502    0 -0.20780049817E+03  0.11091647203E+02 -0.53802514910E+02  0.21493901993E+03  0.00000000000E+00 0. -1.
          3    1    5    5  503    0 -0.14800456320E+02 -0.26055452204E+02 -0.13494566605E+02  0.32864014129E+02  0.00000000000E+00 0. -1.
         -4    1    5    5    0  503  0.15354411896E+02 -0.41735324505E+03  0.65302845469E+01  0.41768664539E+03  0.00000000000E+00 0.  1.
         -1    1    6    6    0  502 -0.48477202342E+03  0.15083125753E+03 -0.13923820126E+03  0.52644207624E+03  0.00000000000E+00 0.  1.
<mgrwt>
<rscale>  0 0.19818594E+04</rscale>
<asrwt>0</asrwt>
<pdfrwt beam="1">  1        2 0.21794821E+00 0.19818594E+04</pdfrwt>
<pdfrwt beam="2">  1       -2 0.10663645E+00 0.19818594E+04</pdfrwt>
<totfact> 0.93298101E+00</totfact>
</mgrwt>
</event>
<event>
12    1  0.1496989E-007  0.2793913E+04  0.7818608E-02  0.8305161E-01
         -1   -1    0    0    0  501 -0.00000000000E+00  0.00000000000E+00  0.16341290387E+04  0.16341290387E+04  0.00000000000E+00 0.  1.
          1   -1    0    0  501    0  0.00000000000E+00 -0.00000000000E+00 -0.11942062929E+04  0.11942062929E+04  0.00000000000E+00 0. -1.
         23    2    1    2    0    0  0.84552939365E+03  0.40711909228E+03  0.10325668875E+04  0.13985291017E+04  0.94991369539E+02 0.  0.
        254    2    1    2    0    0 -0.84552939365E+03 -0.40711909228E+03 -0.59264414167E+03  0.14298062299E+04  0.90136167304E+03 0.  0.
        -24    2    4    4    0    0 -0.47309472153E+03 -0.67129959163E+03 -0.28322848718E+03  0.87237541782E+03  0.79741685465E+02 0.  0.
         24    2    4    4    0    0 -0.37243467212E+03  0.26418049935E+03 -0.30941565449E+03  0.55743081209E+03  0.80573828229E+02 0.  0.
         13    1    3    3    0    0  0.35028439004E+02  0.99947556658E+01  0.70569979697E+02  0.79416677810E+02  0.00000000000E+00 0. -1.
        -13    1    3    3    0    0  0.81050095464E+03  0.39712433661E+03  0.96199690783E+03  0.13191124239E+04  0.00000000000E+00 0.  1.
          4    1    6    6  502    0 -0.27279377757E+03  0.23000230396E+03 -0.25725924121E+03  0.43988614674E+03  0.00000000000E+00 0. -1.
          3    1    5    5  503    0 -0.44246743176E+03 -0.64214510123E+03 -0.25105242574E+03  0.81924055056E+03  0.00000000000E+00 0. -1.
         -4    1    5    5    0  503 -0.30627289770E+02 -0.29154490399E+02 -0.32176061447E+02  0.53134867266E+02  0.00000000000E+00 0.  1.
         -3    1    6    6    0  502 -0.99640894547E+02  0.34178195394E+02 -0.52156413275E+02  0.11754466535E+03  0.00000000000E+00 0.  1.
<mgrwt>
<rscale>  0 0.27939128E+04</rscale>
<asrwt>0</asrwt>
<pdfrwt beam="1">  1        1 0.18372404E+00 0.27939128E+04</pdfrwt>
<pdfrwt beam="2">  1       -1 0.25140447E+00 0.27939128E+04</pdfrwt>
<totfact> 0.63798526E-01</totfact>
</mgrwt>
</event>
<event>
12    1  0.1496989E-007  0.1417648E+04  0.7818608E-02  0.8941142E-01
          2   -1    0    0  501    0  0.00000000000E+00  0.00000000000E+00  0.27985974278E+04  0.27985974278E+04  0.00000000000E+00 0. -1.
         -2   -1    0    0    0  501 -0.00000000000E+00 -0.00000000000E+00 -0.17952969514E+03  0.17952969514E+03  0.00000000000E+00 0.  1.
         23    2    1    2    0    0  0.48412869631E+02  0.37789337294E+03  0.11000890818E+04  0.11687652537E+04  0.10329096349E+03 0.  0.
        254    2    1    2    0    0 -0.48412869631E+02 -0.37789337294E+03  0.15189786508E+04  0.18093618692E+04  0.90628197860E+03 0.  0.
        -24    2    4    4    0    0 -0.22463267466E+03 -0.31762171778E+03  0.14847439988E+03  0.42399703573E+03  0.79908977947E+02 0.  0.
         24    2    4    4    0    0  0.17621980503E+03 -0.60271655157E+02  0.13705042509E+04  0.13853648334E+04  0.79168982629E+02 0.  0.
         11    1    3    3    0    0 -0.43810845744E+01  0.29857827051E+03  0.86554999171E+03  0.91561179856E+03  0.00000000000E+00 0. -1.
        -11    1    3    3    0    0  0.52793954206E+02  0.79315102432E+02  0.23453909012E+03  0.25315345518E+03  0.00000000000E+00 0.  1.
          4    1    6    6  502    0  0.47227307210E+01 -0.27267090253E+02  0.17678492340E+03  0.17893771971E+03  0.00000000000E+00 0. -1.
          3    1    5    5  503    0 -0.12648304964E+02 -0.47131264116E+02  0.41536582846E+02  0.64082941491E+02  0.00000000000E+00 0. -1.
         -4    1    5    5    0  503 -0.21198436970E+03 -0.27049045367E+03  0.10693781703E+03  0.35991409424E+03  0.00000000000E+00 0.  1.
         -3    1    6    6    0  502  0.17149707431E+03 -0.33004564903E+02  0.11937193275E+04  0.12064271137E+04  0.00000000000E+00 0.  1.
<mgrwt>
<rscale>  0 0.14176478E+04</rscale>
<asrwt>0</asrwt>
<pdfrwt beam="1">  1        2 0.43055342E+00 0.14176478E+04</pdfrwt>
<pdfrwt beam="2">  1       -2 0.27619955E-01 0.14176478E+04</pdfrwt>
<totfact> 0.27097493E+01</totfact>
</mgrwt>
</event>
<event>
12    1  0.1496989E-007  0.1236586E+04  0.7818608E-02  0.9081422E-01
          1   -1    0    0  501    0  0.00000000000E+00  0.00000000000E+00  0.85789317989E+03  0.85789317989E+03  0.00000000000E+00 0. -1.
         -1   -1    0    0    0  501 -0.00000000000E+00 -0.00000000000E+00 -0.44561039332E+03  0.44561039332E+03  0.00000000000E+00 0.  1.
         23    2    1    2    0    0 -0.11041346071E+03 -0.12787210311E+03  0.32761654349E+03  0.37963474551E+03  0.90815931256E+02 0.  0.
        254    2    1    2    0    0  0.11041346071E+03  0.12787210311E+03  0.84666243075E+02  0.92386882770E+03  0.90433557434E+03 0.  0.
        -24    2    4    4    0    0 -0.62735926037E+02 -0.35642750765E+03  0.14858597792E+03  0.39941458655E+03  0.80485119653E+02 0.  0.
         24    2    4    4    0    0  0.17314938674E+03  0.48429961076E+03 -0.63919734846E+02  0.52445424115E+03  0.80247713022E+02 0.  0.
         13    1    3    3    0    0 -0.10919097795E+03 -0.12254414010E+03  0.33343998185E+03  0.37164762536E+03  0.00000000000E+00 0. -1.
        -13    1    3    3    0    0 -0.12224827526E+01 -0.53279630066E+01 -0.58234383614E+01  0.79871201462E+01  0.00000000000E+00 0.  1.
          4    1    6    6  502    0  0.17689096465E+02  0.80942245161E+01 -0.48214659228E+01  0.20041635111E+02  0.00000000000E+00 0. -1.
          3    1    5    5  503    0  0.85817733602E+01 -0.21598125063E+02  0.28157139135E+02  0.36509592226E+02  0.00000000000E+00 0. -1.
         -2    1    5    5    0  503 -0.71317699397E+02 -0.33482938259E+03  0.12042883879E+03  0.36290499432E+03  0.00000000000E+00 0.  1.
         -3    1    6    6    0  502  0.15546029028E+03  0.47620538625E+03 -0.59098268923E+02  0.50441260604E+03  0.00000000000E+00 0.  1.
<mgrwt>
<rscale>  0 0.12365858E+04</rscale>
<asrwt>0</asrwt>
<pdfrwt beam="1">  1        1 0.13198357E+00 0.12365858E+04</pdfrwt>
<pdfrwt beam="2">  1       -1 0.68555445E-01 0.12365858E+04</pdfrwt>
<totfact> 0.41936074E+01</totfact>
</mgrwt>
</event>
<event>
12    1  0.1496989E-007  0.2170471E+04  0.7818608E-02  0.8530820E-01
          2   -1    0    0  501    0  0.00000000000E+00  0.00000000000E+00  0.16138071593E+04  0.16138071593E+04  0.00000000000E+00 0. -1.
         -2   -1    0    0    0  501 -0.00000000000E+00 -0.00000000000E+00 -0.72978737659E+03  0.72978737659E+03  0.00000000000E+00 0.  1.
         23    2    1    2    0    0 -0.29790645879E+03 -0.28843474163E+02 -0.54423815505E+03  0.62778902210E+03  0.91343760990E+02 0.  0.
        254    2    1    2    0    0  0.29790645879E+03  0.28843474163E+02  0.14282579377E+04  0.17158055138E+04  0.90248967869E+03 0.  0.
        -24    2    4    4    0    0 -0.18599104262E+03  0.30827839660E+03  0.40736472102E+03  0.54934505272E+03  0.78776476585E+02 0.  0.
         24    2    4    4    0    0  0.48389750140E+03 -0.27943492244E+03  0.10208932167E+04  0.11664604610E+04  0.78526298131E+02 0.  0.
         13    1    3    3    0    0 -0.13215895360E+03 -0.17001696365E+02 -0.15399734422E+03  0.20364240404E+03  0.00000000000E+00 0. -1.
        -13    1    3    3    0    0 -0.16574750518E+03 -0.11841777798E+02 -0.39024081083E+03  0.42414661806E+03  0.00000000000E+00 0.  1.
          4    1    6    6  502    0  0.84794494953E+02 -0.85714869371E+02  0.22588389795E+03  0.25604819968E+03  0.00000000000E+00 0. -1.
          1    1    5    5  503    0 -0.67945771372E+02  0.10885734838E+03  0.20412170051E+03  0.24110623958E+03  0.00000000000E+00 0. -1.
         -4    1    5    5    0  503 -0.11804527124E+03  0.19942104822E+03  0.20324302051E+03  0.30823881314E+03  0.00000000000E+00 0.  1.
         -3    1    6    6    0  502  0.39910300645E+03 -0.19372005307E+03  0.79500931876E+03  0.91041226136E+03  0.00000000000E+00 0.  1.
<mgrwt>
<rscale>  0 0.21704710E+04</rscale>
<asrwt>0</asrwt>
<pdfrwt beam="1">  1        2 0.24827802E+00 0.21704710E+04</pdfrwt>
<pdfrwt beam="2">  1       -2 0.11227498E+00 0.21704710E+04</pdfrwt>
<totfact> 0.62759373E+00</totfact>
</mgrwt>
</event>
<event>
12    1  0.1496989E-007  0.1565652E+04  0.7818608E-02  0.8841932E-01
          2   -1    0    0  501    0  0.00000000000E+00  0.00000000000E+00  0.78181963721E+03  0.78181963721E+03  0.00000000000E+00 0. -1.
         -2   -1    0    0    0  501 -0.00000000000E+00 -0.00000000000E+00 -0.78383361460E+03  0.78383361460E+03  0.00000000000E+00 0.  1.
         23    2    1    2    0    0  0.24972417869E+03 -0.32291303162E+03  0.31287702582E+03  0.52193825183E+03  0.88839822295E+02 0.  0.
        254    2    1    2    0    0 -0.24972417869E+03  0.32291303162E+03 -0.31489100321E+03  0.10437150000E+04  0.90749637237E+03 0.  0.
        -24    2    4    4    0    0 -0.11277035832E+03 -0.23658598434E+03  0.13673482399E+03  0.30719915100E+03  0.83575262986E+02 0.  0.
         24    2    4    4    0    0 -0.13695382036E+03  0.55949901596E+03 -0.45162582720E+03  0.73651584897E+03  0.81818153413E+02 0.  0.
         13    1    3    3    0    0  0.59044584432E+02 -0.96473318996E+02  0.13679055233E+03  0.17749653359E+03  0.00000000000E+00 0. -1.
        -13    1    3    3    0    0  0.19067959426E+03 -0.22643971262E+03  0.17608647349E+03  0.34444171824E+03  0.00000000000E+00 0.  1.
          4    1    6    6  502    0 -0.92321898972E+02  0.36820704806E+03 -0.34528417146E+03  0.51314805108E+03  0.00000000000E+00 0. -1.
          1    1    5    5  503    0 -0.24981830972E+02 -0.44940726779E+02 -0.72443038580E+01  0.51925338136E+02  0.00000000000E+00 0. -1.
         -2    1    5    5    0  503 -0.87788527351E+02 -0.19164525756E+03  0.14397912785E+03  0.25527381287E+03  0.00000000000E+00 0.  1.
         -3    1    6    6    0  502 -0.44631921392E+02  0.19129196790E+03 -0.10634165574E+03  0.22336779789E+03  0.00000000000E+00 0.  1.
<mgrwt>
<rscale>  0 0.15656520E+04</rscale>
<asrwt>0</asrwt>
<pdfrwt beam="1">  1        2 0.12027994E+00 0.15656520E+04</pdfrwt>
<pdfrwt beam="2">  1       -2 0.12058979E+00 0.15656520E+04</pdfrwt>
<totfact> 0.17909009E+01</totfact>
</mgrwt>
</event>
<event>
12    1  0.1496989E-007  0.1570440E+04  0.7818608E-02  0.8838916E-01
          4   -1    0    0  501    0  0.00000000000E+00  0.00000000000E+00  0.97181741296E+03  0.97181741296E+03  0.00000000000E+00 0. -1.
         -4   -1    0    0    0  501 -0.00000000000E+00 -0.00000000000E+00 -0.63445108684E+03  0.63445108684E+03  0.00000000000E+00 0.  1.
         23    2    1    2    0    0 -0.27363989672E+03 -0.11704877927E+03  0.55806743516E+03  0.63906935296E+03  0.91603307212E+02 0.  0.
        254    2    1    2    0    0  0.27363989672E+03  0.11704877927E+03 -0.22070110905E+03  0.96719914685E+03  0.89341255885E+03 0.  0.
        -24    2    4    4    0    0 -0.23515701192E+03  0.22429961140E+03 -0.28199882224E+03  0.43755122496E+03  0.79489639491E+02 0.  0.
         24    2    4    4    0    0  0.50879690864E+03 -0.10725083213E+03  0.61297713188E+02  0.52964792189E+03  0.79952962950E+02 0.  0.
         11    1    3    3    0    0 -0.26522338138E+03 -0.12829613426E+03  0.50993389444E+03  0.58892776874E+03  0.00000000000E+00 0. -1.
        -11    1    3    3    0    0 -0.84165153348E+01  0.11247354990E+02  0.48133540727E+02  0.50141584215E+02  0.00000000000E+00 0.  1.
          4    1    6    6  502    0  0.34254372694E+03 -0.35295690183E+02  0.28378016721E+02  0.34552467704E+03  0.00000000000E+00 0. -1.
          1    1    5    5  503    0 -0.12027572514E+03  0.68855918108E+02 -0.90883439386E+02  0.16573227529E+03  0.00000000000E+00 0. -1.
         -2    1    5    5    0  503 -0.11488128678E+03  0.15544369329E+03 -0.19111538285E+03  0.27181894967E+03  0.00000000000E+00 0.  1.
         -3    1    6    6    0  502  0.16625318171E+03 -0.71955141945E+02  0.32919696467E+02  0.18412324485E+03  0.00000000000E+00 0.  1.
<mgrwt>
<rscale>  0 0.15704402E+04</rscale>
<asrwt>0</asrwt>
<pdfrwt beam="1">  1        4 0.14951037E+00 0.15704402E+04</pdfrwt>
<pdfrwt beam="2">  1       -4 0.97607859E-01 0.15704402E+04</pdfrwt>
<totfact> 0.50516940E-01</totfact>
</mgrwt>
</event>
<event>
12    1  0.1496989E-007  0.1239018E+04  0.7818608E-02  0.9079373E-01
         -1   -1    0    0    0  501 -0.00000000000E+00  0.00000000000E+00  0.33248746346E+03  0.33248746346E+03  0.00000000000E+00 0.  1.
          1   -1    0    0  501    0  0.00000000000E+00 -0.00000000000E+00 -0.11543036650E+04  0.11543036650E+04  0.00000000000E+00 0. -1.
         23    2    1    2    0    0 -0.12010110173E+03  0.25541066282E+03 -0.16338054521E+03  0.33379168702E+03  0.71167453582E+02 0.  0.
        254    2    1    2    0    0  0.12010110173E+03 -0.25541066282E+03 -0.65843565628E+03  0.11529994414E+04  0.90344414164E+03 0.  0.
        -24    2    4    4    0    0  0.20654372114E+03  0.11949014900E+03 -0.71317185285E+03  0.75619328856E+03  0.79221168323E+02 0.  0.
         24    2    4    4    0    0 -0.86442619406E+02 -0.37490081182E+03  0.54736196571E+02  0.39680615284E+03  0.80225473250E+02 0.  0.
         13    1    3    3    0    0 -0.39689027508E+02  0.12190279856E+03 -0.37852726662E+02  0.13367251070E+03  0.00000000000E+00 0.  1.
        -13    1    3    3    0    0 -0.80412074222E+02  0.13350786426E+03 -0.12552781855E+03  0.20011917632E+03  0.00000000000E+00 0. -1.
          4    1    6    6  502    0  0.10242023803E+02 -0.66955198619E+02  0.26762247767E+02  0.72829359322E+02  0.00000000000E+00 0. -1.
          3    1    5    5  503    0 -0.48814986690E+00  0.18383002487E+02 -0.88384536396E+02  0.90277346796E+02  0.00000000000E+00 0. -1.
         -4    1    5    5    0  503  0.20703187100E+03  0.10110714651E+03 -0.62478731646E+03  0.66591594176E+03  0.00000000000E+00 0.  1.
         -3    1    6    6    0  502 -0.96684643209E+02 -0.30794561320E+03  0.27973948804E+02  0.32397679351E+03  0.00000000000E+00 0.  1.
<mgrwt>
<rscale>  0 0.12390182E+04</rscale>
<asrwt>0</asrwt>
<pdfrwt beam="1">  1        1 0.17758518E+00 0.12390182E+04</pdfrwt>
<pdfrwt beam="2">  1       -1 0.51151917E-01 0.12390182E+04</pdfrwt>
<totfact> 0.43784899E+01</totfact>
</mgrwt>
</event>
<event>
12    1  0.1496989E-007  0.1309874E+04  0.7818608E-02  0.9021771E-01
          2   -1    0    0  501    0  0.00000000000E+00  0.00000000000E+00  0.24074850916E+04  0.24074850916E+04  0.00000000000E+00 0. -1.
         -2   -1    0    0    0  501 -0.00000000000E+00 -0.00000000000E+00 -0.17817040519E+03  0.17817040519E+03  0.00000000000E+00 0.  1.
         23    2    1    2    0    0 -0.25640059655E+02  0.33202142463E+03  0.72501374766E+03  0.80268082360E+03  0.88067764867E+02 0.  0.
        254    2    1    2    0    0  0.25640059655E+02 -0.33202142463E+03  0.15043009387E+04  0.17829746731E+04  0.89731919170E+03 0.  0.
        -24    2    4    4    0    0  0.28573681031E+03 -0.52704549040E+03  0.11284394524E+04  0.12802406922E+04  0.78855300146E+02 0.  0.
         24    2    4    4    0    0 -0.26009675066E+03  0.19502406577E+03  0.37586148628E+03  0.50273398097E+03  0.76058482935E+02 0.  0.
         13    1    3    3    0    0  0.18058154385E+02  0.45166773551E+02  0.60878187791E+02  0.77924887690E+02  0.00000000000E+00 0.  1.
        -13    1    3    3    0    0 -0.43698214040E+02  0.28685465108E+03  0.66413555987E+03  0.72475593591E+03  0.00000000000E+00 0. -1.
          4    1    6    6  502    0 -0.41143150091E+02  0.63336413827E+02  0.59929688357E+02  0.96414872621E+02  0.00000000000E+00 0. -1.
          3    1    5    5  503    0  0.93809964720E+02 -0.25496288915E+03  0.51482174499E+03  0.58210635922E+03  0.00000000000E+00 0. -1.
         -4    1    5    5    0  503  0.19192684559E+03 -0.27208260126E+03  0.61361770744E+03  0.69813433296E+03  0.00000000000E+00 0.  1.
         -3    1    6    6    0  502 -0.21895360057E+03  0.13168765194E+03  0.31593179792E+03  0.40631910835E+03  0.00000000000E+00 0.  1.
<mgrwt>
<rscale>  0 0.13098742E+04</rscale>
<asrwt>0</asrwt>
<pdfrwt beam="1">  1        2 0.37038230E+00 0.13098742E+04</pdfrwt>
<pdfrwt beam="2">  1       -2 0.27410833E-01 0.13098742E+04</pdfrwt>
<totfact> 0.46920625E+01</totfact>
</mgrwt>
</event>
<event>
12    1  0.1496989E-007  0.1815301E+04  0.7818608E-02  0.8698205E-01
          1   -1    0    0  501    0  0.00000000000E+00  0.00000000000E+00  0.26909963287E+04  0.26909963287E+04  0.00000000000E+00 0. -1.
         -1   -1    0    0    0  501 -0.00000000000E+00 -0.00000000000E+00 -0.30614287708E+03  0.30614287708E+03  0.00000000000E+00 0.  1.
         23    2    1    2    0    0 -0.57764238843E+03 -0.34966153820E+03  0.10217191070E+04  0.12276820603E+04  0.85786872088E+02 0.  0.
        254    2    1    2    0    0  0.57764238843E+03  0.34966153820E+03  0.13631343446E+04  0.17694571455E+04  0.90383041991E+03 0.  0.
        -24    2    4    4    0    0  0.43497663914E+03 -0.62459668896E+02  0.12267587923E+04  0.13058980226E+04  0.85595701277E+02 0.  0.
         24    2    4    4    0    0  0.14266574929E+03  0.41212120709E+03  0.13637555229E+03  0.46355912285E+03  0.78047189320E+02 0.  0.
         13    1    3    3    0    0 -0.47146980181E+02 -0.12318092236E+02  0.10907204319E+03  0.11946247838E+03  0.00000000000E+00 0. -1.
        -13    1    3    3    0    0 -0.53049540825E+03 -0.33734344596E+03  0.91264706382E+03  0.11082195819E+04  0.00000000000E+00 0.  1.
          4    1    6    6  502    0  0.35079072022E+01  0.65813827969E+01  0.16900553131E+02  0.18472918248E+02  0.00000000000E+00 0. -1.
          3    1    5    5  503    0  0.10990535090E+03 -0.52879104456E+02  0.36326366278E+03  0.38319169424E+03  0.00000000000E+00 0. -1.
         -4    1    5    5    0  503  0.32507128824E+03 -0.95805644401E+01  0.86349512956E+03  0.92270632838E+03  0.00000000000E+00 0.  1.
         -3    1    6    6    0  502  0.13915784209E+03  0.40553982430E+03  0.11947499916E+03  0.44508620461E+03  0.00000000000E+00 0.  1.
<mgrwt>
<rscale>  0 0.18153009E+04</rscale>
<asrwt>0</asrwt>
<pdfrwt beam="1">  1        1 0.41399942E+00 0.18153009E+04</pdfrwt>
<pdfrwt beam="2">  1       -1 0.47098906E-01 0.18153009E+04</pdfrwt>
<totfact> 0.42259982E+00</totfact>
</mgrwt>
</event>
<event>
12    1  0.1496989E-007  0.2060080E+04  0.7818608E-02  0.8579035E-01
         -2   -1    0    0    0  501 -0.00000000000E+00  0.00000000000E+00  0.94281898718E+03  0.94281898718E+03  0.00000000000E+00 0.  1.
          2   -1    0    0  501    0  0.00000000000E+00 -0.00000000000E+00 -0.11253299393E+04  0.11253299393E+04  0.00000000000E+00 0. -1.
         23    2    1    2    0    0  0.59930425687E+03 -0.33571629633E+03 -0.53829039744E+03  0.87739918878E+03  0.90563571969E+02 0.  0.
        254    2    1    2    0    0 -0.59930425687E+03  0.33571629633E+03  0.35577944535E+03  0.11907497377E+04  0.90522643581E+03 0.  0.
        -24    2    4    4    0    0 -0.52809683223E+02  0.52761853231E+03  0.71902964838E+02  0.54093116438E+03  0.79160027536E+02 0.  0.
         24    2    4    4    0    0 -0.54649457365E+03 -0.19190223598E+03  0.28387648051E+03  0.64981857329E+03  0.78711719577E+02 0.  0.
         11    1    3    3    0    0  0.15828118468E+03 -0.64289346516E+02 -0.93521874917E+02  0.19476240547E+03  0.00000000000E+00 0.  1.
        -11    1    3    3    0    0  0.44102307220E+03 -0.27142694982E+03 -0.44476852252E+03  0.68263678331E+03  0.00000000000E+00 0. -1.
          4    1    6    6  502    0 -0.75319948393E+01  0.56876296732E+01  0.10135842110E+02  0.13849742700E+02  0.00000000000E+00 0. -1.
          1    1    5    5  503    0 -0.41309691399E+02  0.13432088330E+03  0.40322042180E+02  0.14620005944E+03  0.00000000000E+00 0. -1.
         -2    1    5    5    0  503 -0.11499991824E+02  0.39329764901E+03  0.31580922658E+02  0.39473110494E+03  0.00000000000E+00 0.  1.
         -3    1    6    6    0  502 -0.53896257881E+03 -0.19758986565E+03  0.27374063840E+03  0.63596883059E+03  0.00000000000E+00 0.  1.
<mgrwt>
<rscale>  0 0.20600800E+04</rscale>
<asrwt>0</asrwt>
<pdfrwt beam="1">  1        2 0.17312768E+00 0.20600800E+04</pdfrwt>
<pdfrwt beam="2">  1       -2 0.14504907E+00 0.20600800E+04</pdfrwt>
<totfact> 0.63621558E+00</totfact>
</mgrwt>
</event>
<event>
12    1  0.1496989E-007  0.1749343E+04  0.7818608E-02  0.8733712E-01
          1   -1    0    0  501    0  0.00000000000E+00  0.00000000000E+00  0.13701938102E+04  0.13701938102E+04  0.00000000000E+00 0. -1.
         -1   -1    0    0    0  501 -0.00000000000E+00 -0.00000000000E+00 -0.55835164242E+03  0.55835164242E+03  0.00000000000E+00 0.  1.
         23    2    1    2    0    0 -0.48838674570E+02 -0.57815512231E+03  0.58369755258E+03  0.82788500405E+03  0.89678232835E+02 0.  0.
        254    2    1    2    0    0  0.48838674570E+02  0.57815512231E+03  0.22814461522E+03  0.11006604486E+04  0.90705837523E+03 0.  0.
        -24    2    4    4    0    0  0.39222992463E+03  0.38637882639E+02  0.21378026924E+03  0.45580971855E+03  0.81995708789E+02 0.  0.
         24    2    4    4    0    0 -0.34339125006E+03  0.53951723967E+03  0.14364345988E+02  0.64485073005E+03  0.81423136100E+02 0.  0.
         13    1    3    3    0    0 -0.11166503054E+02 -0.48759774717E+03  0.50568618783E+03  0.70256300386E+03  0.00000000000E+00 0. -1.
        -13    1    3    3    0    0 -0.37672171516E+02 -0.90557375140E+02  0.78011364755E+02  0.12532200018E+03  0.00000000000E+00 0.  1.
          2    1    6    6  502    0 -0.32010980077E+02  0.29145037477E+02 -0.16165416044E+02  0.46211002272E+02  0.00000000000E+00 0. -1.
          1    1    5    5  503    0  0.21258174052E+03  0.57482216368E+01  0.71710355493E+02  0.22442462775E+03  0.00000000000E+00 0. -1.
         -2    1    5    5    0  503  0.17964818411E+03  0.32889661003E+02  0.14206991374E+03  0.23138509080E+03  0.00000000000E+00 0.  1.
         -1    1    6    6    0  502 -0.31138026998E+03  0.51037220220E+03  0.30529762032E+02  0.59863972778E+03  0.00000000000E+00 0.  1.
<mgrwt>
<rscale>  0 0.17493427E+04</rscale>
<asrwt>0</asrwt>
<pdfrwt beam="1">  1        1 0.21079905E+00 0.17493427E+04</pdfrwt>
<pdfrwt beam="2">  1       -1 0.85900254E-01 0.17493427E+04</pdfrwt>
<totfact> 0.10225249E+01</totfact>
</mgrwt>
</event>
<event>
12    1  0.1496989E-007  0.1357526E+04  0.7818608E-02  0.8985150E-01
          2   -1    0    0  501    0  0.00000000000E+00  0.00000000000E+00  0.14521385106E+04  0.14521385106E+04  0.00000000000E+00 0. -1.
         -2   -1    0    0    0  501 -0.00000000000E+00 -0.00000000000E+00 -0.31726967985E+03  0.31726967985E+03  0.00000000000E+00 0.  1.
         23    2    1    2    0    0  0.79276258697E+02 -0.19653462725E+03 -0.81314141943E+02  0.24701705155E+03  0.97441516705E+02 0.  0.
        254    2    1    2    0    0 -0.79276258697E+02  0.19653462725E+03  0.12161829727E+04  0.15223911389E+04  0.89087775361E+03 0.  0.
        -24    2    4    4    0    0  0.34801784947E+03  0.24382420158E+03  0.36631040909E+03  0.56656416835E+03  0.79025161927E+02 0.  0.
         24    2    4    4    0    0 -0.42729410817E+03 -0.47289574327E+02  0.84987256365E+03  0.95582697060E+03  0.80655220364E+02 0.  0.
         11    1    3    3    0    0  0.48908256410E+02 -0.13425906525E+03 -0.36460956225E+01  0.14293637801E+03  0.00000000000E+00 0. -1.
        -11    1    3    3    0    0  0.30368002287E+02 -0.62275562000E+02 -0.77668046320E+02  0.10408067354E+03  0.00000000000E+00 0.  1.
          4    1    6    6  502    0 -0.37518329672E+03 -0.43157511779E+02  0.79442658698E+03  0.87962416921E+03  0.00000000000E+00 0. -1.
          3    1    5    5  503    0  0.22954501988E+03  0.13242752488E+03  0.18606842143E+03  0.32380460613E+03  0.00000000000E+00 0. -1.
         -4    1    5    5    0  503  0.11847282959E+03  0.11139667670E+03  0.18024198766E+03  0.24275956221E+03  0.00000000000E+00 0.  1.
         -3    1    6    6    0  502 -0.52110811455E+02 -0.41320625485E+01  0.55445976667E+02  0.76202801392E+02  0.00000000000E+00 0.  1.
<mgrwt>
<rscale>  0 0.13575265E+04</rscale>
<asrwt>0</asrwt>
<pdfrwt beam="1">  1        2 0.22340592E+00 0.13575265E+04</pdfrwt>
<pdfrwt beam="2">  1       -2 0.48810721E-01 0.13575265E+04</pdfrwt>
<totfact> 0.52416190E+01</totfact>
</mgrwt>
</event>
<event>
12    1  0.1496989E-007  0.1840877E+04  0.7818608E-02  0.8684859E-01
          2   -1    0    0  501    0  0.00000000000E+00  0.00000000000E+00  0.22049541088E+04  0.22049541088E+04  0.00000000000E+00 0. -1.
         -2   -1    0    0    0  501 -0.00000000000E+00 -0.00000000000E+00 -0.38422892526E+03  0.38422892526E+03  0.00000000000E+00 0.  1.
         23    2    1    2    0    0  0.56764711054E+03 -0.43230397055E+03  0.79072680622E+03  0.10689520924E+04  0.91102846950E+02 0.  0.
        254    2    1    2    0    0 -0.56764711054E+03  0.43230397055E+03  0.10299983773E+04  0.15202309416E+04  0.86086903395E+03 0.  0.
        -24    2    4    4    0    0 -0.33316097961E+03 -0.14999596735E+03  0.86085920292E+02  0.38376664485E+03  0.79818691277E+02 0.  0.
         24    2    4    4    0    0 -0.23448613093E+03  0.58229993790E+03  0.94391245702E+03  0.11364642968E+04  0.80767617812E+02 0.  0.
         13    1    3    3    0    0  0.25471560814E+03 -0.21745175832E+03  0.30936878192E+03  0.45593239790E+03  0.00000000000E+00 0.  1.
        -13    1    3    3    0    0  0.31293150239E+03 -0.21485221223E+03  0.48135802430E+03  0.61301969450E+03  0.00000000000E+00 0. -1.
          4    1    6    6  502    0 -0.20046682874E+03  0.44472025922E+03  0.67957966516E+03  0.83653546230E+03  0.00000000000E+00 0. -1.
          3    1    5    5  503    0 -0.32677547845E+03 -0.13072834522E+03  0.72508362694E+02  0.35934603966E+03  0.00000000000E+00 0. -1.
         -4    1    5    5    0  503 -0.63855011555E+01 -0.19267622133E+02  0.13577557598E+02  0.24420605193E+02  0.00000000000E+00 0.  1.
         -1    1    6    6    0  502 -0.34019302190E+02  0.13757967868E+03  0.26433279186E+03  0.29992883450E+03  0.00000000000E+00 0.  1.
<mgrwt>
<rscale>  0 0.18408771E+04</rscale>
<asrwt>0</asrwt>
<pdfrwt beam="1">  1        2 0.33922370E+00 0.18408771E+04</pdfrwt>
<pdfrwt beam="2">  1       -2 0.59112143E-01 0.18408771E+04</pdfrwt>
<totfact> 0.12907392E+01</totfact>
</mgrwt>
</event>
<event>
12    1  0.1496989E-007  0.1253768E+04  0.7818608E-02  0.9067053E-01
          1   -1    0    0  501    0  0.00000000000E+00  0.00000000000E+00  0.54645655480E+03  0.54645655480E+03  0.00000000000E+00 0. -1.
         -1   -1    0    0    0  501 -0.00000000000E+00 -0.00000000000E+00 -0.71914883901E+03  0.71914883901E+03  0.00000000000E+00 0.  1.
         23    2    1    2    0    0  0.22081529670E+03  0.20533306407E+03 -0.48156113924E+02  0.31831949151E+03  0.89928999284E+02 0.  0.
        254    2    1    2    0    0 -0.22081529670E+03 -0.20533306407E+03 -0.12453617029E+03  0.94728590229E+03  0.88933697805E+03 0.  0.
        -24    2    4    4    0    0 -0.36197601879E+03  0.16565775909E+03  0.17640975853E+03  0.44262916486E+03  0.79567853770E+02 0.  0.
         24    2    4    4    0    0  0.14116072209E+03 -0.37099082316E+03 -0.30094592882E+03  0.50465673743E+03  0.80928550184E+02 0.  0.
         13    1    3    3    0    0  0.93446102320E+02  0.42679763212E+02 -0.43815326459E+02  0.11168490972E+03  0.00000000000E+00 0. -1.
        -13    1    3    3    0    0  0.12736919438E+03  0.16265330086E+03 -0.43407874652E+01  0.20663458179E+03  0.00000000000E+00 0.  1.
          2    1    6    6  502    0  0.28440593273E+02 -0.16544877997E+03 -0.15518207937E+03  0.22861243163E+03  0.00000000000E+00 0. -1.
          3    1    5    5  503    0 -0.24969484851E+03  0.10272937423E+03  0.15736912439E+03  0.31251541244E+03  0.00000000000E+00 0. -1.
         -4    1    5    5    0  503 -0.11228117028E+03  0.62928384857E+02  0.19040634147E+02  0.13011375242E+03  0.00000000000E+00 0.  1.
         -3    1    6    6    0  502  0.11272012882E+03 -0.20554204319E+03 -0.14576384945E+03  0.27604430580E+03  0.00000000000E+00 0.  1.
<mgrwt>
<rscale>  0 0.12537681E+04</rscale>
<asrwt>0</asrwt>
<pdfrwt beam="1">  1        1 0.84070239E-01 0.12537681E+04</pdfrwt>
<pdfrwt beam="2">  1       -1 0.11063828E+00 0.12537681E+04</pdfrwt>
<totfact> 0.29067521E+01</totfact>
</mgrwt>
</event>
<event>
12    1  0.1496989E-007  0.1317754E+04  0.7818608E-02  0.9015603E-01
         -1   -1    0    0    0  501 -0.00000000000E+00  0.00000000000E+00  0.45843301076E+03  0.45843301076E+03  0.00000000000E+00 0.  1.
          1   -1    0    0  501    0  0.00000000000E+00 -0.00000000000E+00 -0.94696254926E+03  0.94696254926E+03  0.00000000000E+00 0. -1.
         23    2    1    2    0    0 -0.13537019680E+03 -0.12770525547E+03  0.20669914169E+03  0.29253699027E+03  0.90662191918E+02 0.  0.
        254    2    1    2    0    0  0.13537019680E+03  0.12770525547E+03 -0.69522868019E+03  0.11128585698E+04  0.84880949338E+03 0.  0.
        -24    2    4    4    0    0  0.33213729080E+03  0.20344583392E+03 -0.16999472472E+02  0.39806519858E+03  0.80383661134E+02 0.  0.
         24    2    4    4    0    0 -0.19676709401E+03 -0.75740578442E+02 -0.67822920772E+03  0.71479337117E+03  0.80503296593E+02 0.  0.
         13    1    3    3    0    0 -0.14562833870E+03 -0.98928889268E+02  0.18237541725E+03  0.25348635265E+03  0.00000000000E+00 0.  1.
        -13    1    3    3    0    0  0.10258141907E+02 -0.28776366206E+02  0.24323724445E+02  0.39050637617E+02  0.00000000000E+00 0. -1.
          4    1    6    6  502    0 -0.14280290880E+03 -0.84950444312E+02 -0.56662434013E+03  0.59048487836E+03  0.00000000000E+00 0. -1.
          1    1    5    5  503    0  0.18264543265E+03  0.13055198269E+03  0.26738805037E+02  0.22609320632E+03  0.00000000000E+00 0. -1.
         -2    1    5    5    0  503  0.14949185816E+03  0.72893851230E+02 -0.43738277510E+02  0.17197199226E+03  0.00000000000E+00 0.  1.
         -3    1    6    6    0  502 -0.53964185207E+02  0.92098658704E+01 -0.11160486759E+03  0.12430849281E+03  0.00000000000E+00 0.  1.
<mgrwt>
<rscale>  0 0.13177540E+04</rscale>
<asrwt>0</asrwt>
<pdfrwt beam="1">  1        1 0.14568654E+00 0.13177540E+04</pdfrwt>
<pdfrwt beam="2">  1       -1 0.70528156E-01 0.13177540E+04</pdfrwt>
<totfact> 0.33232664E+01</totfact>
</mgrwt>
</event>
<event>
12    1  0.1496989E-007  0.2498020E+04  0.7818608E-02  0.8403691E-01
         -1   -1    0    0    0  501 -0.00000000000E+00  0.00000000000E+00  0.10082743275E+04  0.10082743275E+04  0.00000000000E+00 0.  1.
          1   -1    0    0  501    0  0.00000000000E+00 -0.00000000000E+00 -0.15472237073E+04  0.15472237073E+04  0.00000000000E+00 0. -1.
         23    2    1    2    0    0 -0.10880822901E+03  0.98190321419E+03  0.21668893543E+03  0.10158739883E+04  0.95250788485E+02 0.  0.
        254    2    1    2    0    0  0.10880822901E+03 -0.98190321419E+03 -0.75563831528E+03  0.15396240464E+04  0.90745787126E+03 0.  0.
        -24    2    4    4    0    0 -0.35033146011E+03 -0.27753265270E+03 -0.86759222877E+02  0.46223546409E+03  0.79862107740E+02 0.  0.
         24    2    4    4    0    0  0.45913968912E+03 -0.70437056150E+03 -0.66887909240E+03  0.10773885823E+04  0.80123499046E+02 0.  0.
         11    1    3    3    0    0 -0.12447757372E+03  0.77149502567E+03  0.17392711669E+03  0.80059345670E+03  0.00000000000E+00 0.  1.
        -11    1    3    3    0    0  0.15669344710E+02  0.21040818852E+03  0.42761818742E+02  0.21528053164E+03  0.00000000000E+00 0. -1.
          4    1    6    6  502    0  0.55333242673E+02 -0.12269564775E+03 -0.81248704246E+02  0.15721749795E+03  0.00000000000E+00 0. -1.
          1    1    5    5  503    0 -0.25944785935E+02 -0.37557453559E+02 -0.30331191819E+02  0.54805797432E+02  0.00000000000E+00 0. -1.
         -2    1    5    5    0  503 -0.32438667417E+03 -0.23997519914E+03 -0.56428031058E+02  0.40742966666E+03  0.00000000000E+00 0.  1.
         -3    1    6    6    0  502  0.40380644644E+03 -0.58167491375E+03 -0.58763038816E+03  0.92017108439E+03  0.00000000000E+00 0.  1.
<mgrwt>
<rscale>  0 0.24980200E+04</rscale>
<asrwt>0</asrwt>
<pdfrwt beam="1">  1        1 0.23803442E+00 0.24980200E+04</pdfrwt>
<pdfrwt beam="2">  1       -1 0.15511913E+00 0.24980200E+04</pdfrwt>
<totfact> 0.17169130E+00</totfact>
</mgrwt>
</event>
<event>
12    1  0.1496989E-007  0.2145623E+04  0.7818608E-02  0.8541408E-01
          3   -1    0    0  501    0  0.00000000000E+00  0.00000000000E+00  0.64570202674E+03  0.64570202674E+03  0.00000000000E+00 0.  1.
         -3   -1    0    0    0  501 -0.00000000000E+00 -0.00000000000E+00 -0.17824384611E+04  0.17824384611E+04  0.00000000000E+00 0. -1.
         23    2    1    2    0    0 -0.45125256889E+03  0.71591589019E+03 -0.24722287382E+03  0.88622239968E+03  0.90036379380E+02 0.  0.
        254    2    1    2    0    0  0.45125256889E+03 -0.71591589019E+03 -0.88951356057E+03  0.15419180882E+04  0.93279824906E+03 0.  0.
        -24    2    4    4    0    0 -0.17559530896E+03 -0.65543742442E+01 -0.45944643361E+03  0.49834370377E+03  0.79867073221E+02 0.  0.
         24    2    4    4    0    0  0.62684787785E+03 -0.70936151594E+03 -0.43006712696E+03  0.10435743844E+04  0.89206164736E+02 0.  0.
         13    1    3    3    0    0 -0.11604462675E+03  0.24518891843E+03 -0.10674365265E+03  0.29151015162E+03  0.00000000000E+00 0. -1.
        -13    1    3    3    0    0 -0.33520794214E+03  0.47072697176E+03 -0.14047922117E+03  0.59471224806E+03  0.00000000000E+00 0.  1.
          4    1    6    6  502    0  0.49382675158E+03 -0.59534546171E+03 -0.32284775936E+03  0.83817167399E+03  0.00000000000E+00 0. -1.
          3    1    5    5  503    0 -0.31067257892E+02  0.16344319737E+02 -0.17476610481E+03  0.17825684472E+03  0.00000000000E+00 0. -1.
         -4    1    5    5    0  503 -0.14452805107E+03 -0.22898693981E+02 -0.28468032880E+03  0.32008685905E+03  0.00000000000E+00 0.  1.
         -3    1    6    6    0  502  0.13302112627E+03 -0.11401605424E+03 -0.10721936761E+03  0.20540271042E+03  0.00000000000E+00 0.  1.
<mgrwt>
<rscale>  0 0.21456226E+04</rscale>
<asrwt>0</asrwt>
<pdfrwt beam="1">  1        3 0.99338775E-01 0.21456226E+04</pdfrwt>
<pdfrwt beam="2">  1       -3 0.27422130E+00 0.21456226E+04</pdfrwt>
<totfact> 0.11313618E-01</totfact>
</mgrwt>
</event>
<event>
12    1  0.1496989E-007  0.2786099E+04  0.7818608E-02  0.8307597E-01
          1   -1    0    0  501    0  0.00000000000E+00  0.00000000000E+00  0.14222534657E+04  0.14222534657E+04  0.00000000000E+00 0.  1.
         -1   -1    0    0    0  501 -0.00000000000E+00 -0.00000000000E+00 -0.13644448044E+04  0.13644448044E+04  0.00000000000E+00 0. -1.
         23    2    1    2    0    0  0.11317728391E+04  0.23365241413E+02 -0.49485907146E+03  0.12388151556E+04  0.91223873894E+02 0.  0.
        254    2    1    2    0    0 -0.11317728391E+04 -0.23365241413E+02  0.55266773272E+03  0.15478831145E+04  0.89946918761E+03 0.  0.
        -24    2    4    4    0    0 -0.12172161461E+04 -0.73025197468E+02  0.65337968790E+03  0.13857971165E+04  0.81122166467E+02 0.  0.
         24    2    4    4    0    0  0.85443306971E+02  0.49659956055E+02 -0.10071195518E+03  0.16208599795E+03  0.79764044987E+02 0.  0.
         13    1    3    3    0    0  0.64886708479E+02  0.13553701828E+02 -0.49185754627E+02  0.82542269345E+02  0.00000000000E+00 0.  1.
        -13    1    3    3    0    0  0.10668861306E+04  0.98115395846E+01 -0.44567331683E+03  0.11562728862E+04  0.00000000000E+00 0. -1.
          2    1    6    6  502    0 -0.61617596917E+01  0.62442205363E+01  0.90978160834E+01  0.12638347601E+02  0.00000000000E+00 0. -1.
          3    1    5    5  503    0 -0.17021826036E+03  0.17481465319E+02  0.97161739098E+02  0.19677464606E+03  0.00000000000E+00 0. -1.
         -4    1    5    5    0  503 -0.10469978857E+04 -0.90506662786E+02  0.55621794881E+03  0.11890224705E+04  0.00000000000E+00 0.  1.
         -1    1    6    6    0  502  0.91605066662E+02  0.43415735519E+02 -0.10980977126E+03  0.14944765034E+03  0.00000000000E+00 0.  1.
<mgrwt>
<rscale>  0 0.27860986E+04</rscale>
<asrwt>0</asrwt>
<pdfrwt beam="1">  1        1 0.21880823E+00 0.27860986E+04</pdfrwt>
<pdfrwt beam="2">  1       -1 0.20991458E+00 0.27860986E+04</pdfrwt>
<totfact> 0.82698668E-01</totfact>
</mgrwt>
</event>
<event>
12    1  0.1496989E-007  0.4246295E+04  0.7818608E-02  0.7956624E-01
         -2   -1    0    0    0  501 -0.00000000000E+00  0.00000000000E+00  0.12272413111E+04  0.12272413111E+04  0.00000000000E+00 0.  1.
          2   -1    0    0  501    0  0.00000000000E+00 -0.00000000000E+00 -0.36730799362E+04  0.36730799362E+04  0.00000000000E+00 0. -1.
         23    2    1    2    0    0  0.30064763043E+03  0.65709143578E+03  0.10155166553E+04  0.12495955423E+04  0.89759620547E+02 0.  0.
        254    2    1    2    0    0 -0.30064763043E+03 -0.65709143578E+03 -0.34613552804E+04  0.36507257051E+04  0.90810772694E+03 0.  0.
        -24    2    4    4    0    0  0.82669661640E+02  0.19260019627E+03 -0.71502032504E+03  0.74941583110E+03  0.80255305901E+02 0.  0.
         24    2    4    4    0    0 -0.38331729207E+03 -0.84969163205E+03 -0.27463349554E+04  0.29013098739E+04  0.79594482864E+02 0.  0.
         11    1    3    3    0    0  0.23021488448E+03  0.41870130912E+03  0.70847573609E+03  0.85454522872E+03  0.00000000000E+00 0.  1.
        -11    1    3    3    0    0  0.70432745947E+02  0.23839012666E+03  0.30704091923E+03  0.39505031360E+03  0.00000000000E+00 0. -1.
          2    1    6    6  502    0 -0.31323689949E+03 -0.73682384409E+03 -0.22839911356E+04  0.24202566476E+04  0.00000000000E+00 0. -1.
          3    1    5    5  503    0  0.55730030908E+02  0.18674996004E+03 -0.65477030980E+03  0.68315850468E+03  0.00000000000E+00 0. -1.
         -4    1    5    5    0  503  0.26939630732E+02  0.58502362218E+01 -0.60250015239E+02  0.66257326418E+02  0.00000000000E+00 0.  1.
         -1    1    6    6    0  502 -0.70080392581E+02 -0.11286778796E+03 -0.46234381971E+03  0.48105322637E+03  0.00000000000E+00 0.  1.
<mgrwt>
<rscale>  0 0.42462951E+04</rscale>
<asrwt>0</asrwt>
<pdfrwt beam="1">  1        2 0.56508922E+00 0.42462951E+04</pdfrwt>
<pdfrwt beam="2">  1       -2 0.18880635E+00 0.42462951E+04</pdfrwt>
<totfact> 0.74420004E-02</totfact>
</mgrwt>
</event>
<event>
12    1  0.1496989E-007  0.1737367E+04  0.7818608E-02  0.8740335E-01
          1   -1    0    0  501    0  0.00000000000E+00  0.00000000000E+00  0.14167490639E+04  0.14167490639E+04  0.00000000000E+00 0. -1.
         -1   -1    0    0    0  501 -0.00000000000E+00 -0.00000000000E+00 -0.53263547680E+03  0.53263547680E+03  0.00000000000E+00 0.  1.
         23    2    1    2    0    0 -0.16651448932E+03 -0.20764737339E+03  0.96429985409E+03  0.10047006892E+04  0.93299300547E+02 0.  0.
        254    2    1    2    0    0  0.16651448932E+03  0.20764737339E+03 -0.80186267004E+02  0.94468385146E+03  0.90285836927E+03 0.  0.
        -24    2    4    4    0    0  0.51912707811E+03  0.12823143599E+03 -0.16385292939E+03  0.56521220983E+03  0.81736376677E+02 0.  0.
         24    2    4    4    0    0 -0.35261258879E+03  0.79415937406E+02  0.83666662385E+02  0.37947164163E+03  0.79725074613E+02 0.  0.
         11    1    3    3    0    0 -0.13284255326E+03 -0.92796764512E+02  0.53099450533E+03  0.55516983721E+03  0.00000000000E+00 0.  1.
        -11    1    3    3    0    0 -0.33671936060E+02 -0.11485060888E+03  0.43330534876E+03  0.44953085200E+03  0.00000000000E+00 0. -1.
          4    1    6    6  502    0 -0.25114351299E+03  0.78136426988E+02  0.89496265677E+02  0.27782718893E+03  0.00000000000E+00 0. -1.
          1    1    5    5  503    0  0.48231099134E+03  0.12436865685E+03 -0.12935361127E+03  0.51461034961E+03  0.00000000000E+00 0. -1.
         -2    1    5    5    0  503  0.36816086772E+02  0.38627791335E+01 -0.34499318117E+02  0.50601860226E+02  0.00000000000E+00 0.  1.
         -3    1    6    6    0  502 -0.10146907579E+03  0.12795104175E+01 -0.58296032921E+01  0.10164445270E+03  0.00000000000E+00 0.  1.
<mgrwt>
<rscale>  0 0.17373668E+04</rscale>
<asrwt>0</asrwt>
<pdfrwt beam="1">  1        1 0.21796139E+00 0.17373668E+04</pdfrwt>
<pdfrwt beam="2">  1       -1 0.81943920E-01 0.17373668E+04</pdfrwt>
<totfact> 0.10510652E+01</totfact>
</mgrwt>
</event>
<event>
12    1  0.1496989E-007  0.2078926E+04  0.7818608E-02  0.8570584E-01
          2   -1    0    0  501    0  0.00000000000E+00  0.00000000000E+00  0.25047398631E+04  0.25047398631E+04  0.00000000000E+00 0. -1.
         -2   -1    0    0    0  501 -0.00000000000E+00 -0.00000000000E+00 -0.43137561796E+03  0.43137561796E+03  0.00000000000E+00 0.  1.
         23    2    1    2    0    0 -0.74925787195E+03 -0.25247644717E+03  0.12752662511E+04  0.15031779744E+04  0.90046079285E+02 0.  0.
        254    2    1    2    0    0  0.74925787195E+03  0.25247644717E+03  0.79809799405E+03  0.14329375067E+04  0.88950422987E+03 0.  0.
        -24    2    4    4    0    0 -0.36357820140E+02 -0.15887839903E+03  0.43361162927E+03  0.47053246444E+03  0.82568264422E+02 0.  0.
         24    2    4    4    0    0  0.78561569209E+03  0.41135484619E+03  0.36448636478E+03  0.96240504227E+03  0.83476524385E+02 0.  0.
         13    1    3    3    0    0 -0.18425087148E+03 -0.87210618164E+02  0.27127369554E+03  0.33932800275E+03  0.00000000000E+00 0.  1.
        -13    1    3    3    0    0 -0.56500700047E+03 -0.16526582900E+03  0.10039925556E+04  0.11638499716E+04  0.00000000000E+00 0. -1.
          4    1    6    6  502    0  0.77867254830E+02  0.21182381529E+02  0.51573549081E+02  0.95769690543E+02  0.00000000000E+00 0. -1.
          1    1    5    5  503    0  0.20604937816E+02 -0.63952795721E+02  0.11443692336E+03  0.13270392975E+03  0.00000000000E+00 0. -1.
         -2    1    5    5    0  503 -0.56962757956E+02 -0.94925603305E+02  0.31917470591E+03  0.33782853469E+03  0.00000000000E+00 0.  1.
         -3    1    6    6    0  502  0.70774843726E+03  0.39017246466E+03  0.31291281570E+03  0.86663535172E+03  0.00000000000E+00 0.  1.
<mgrwt>
<rscale>  0 0.20789264E+04</rscale>
<asrwt>0</asrwt>
<pdfrwt beam="1">  1        2 0.38534458E+00 0.20789264E+04</pdfrwt>
<pdfrwt beam="2">  1       -2 0.66365481E-01 0.20789264E+04</pdfrwt>
<totfact> 0.66680165E+00</totfact>
</mgrwt>
</event>
<event>
12    1  0.1496989E-007  0.1963594E+04  0.7818608E-02  0.8623834E-01
          2   -1    0    0  501    0  0.00000000000E+00  0.00000000000E+00  0.27354156673E+04  0.27354156673E+04  0.00000000000E+00 0. -1.
         -2   -1    0    0    0  501 -0.00000000000E+00 -0.00000000000E+00 -0.35238702360E+03  0.35238702360E+03  0.00000000000E+00 0.  1.
         23    2    1    2    0    0  0.76476319710E+03  0.12708723738E+03  0.10607872762E+04  0.13170449376E+04  0.91234909706E+02 0.  0.
        254    2    1    2    0    0 -0.76476319710E+03 -0.12708723738E+03  0.13222413675E+04  0.17707577533E+04  0.88670562953E+03 0.  0.
        -24    2    4    4    0    0  0.16529922629E+03  0.10964682973E+03  0.27025564998E+03  0.34463354088E+03  0.79924337149E+02 0.  0.
         24    2    4    4    0    0 -0.93006242339E+03 -0.23673406712E+03  0.10519857175E+04  0.14261242124E+04  0.78084502272E+02 0.  0.
         13    1    3    3    0    0  0.99123970241E+02 -0.63373550908E+01  0.17234260116E+03  0.19891630330E+03  0.00000000000E+00 0.  1.
        -13    1    3    3    0    0  0.66563922686E+03  0.13342459248E+03  0.88844467505E+03  0.11181286343E+04  0.00000000000E+00 0. -1.
          2    1    6    6  502    0 -0.47263407287E+03 -0.16039571831E+03  0.55055234095E+03  0.74311347278E+03  0.00000000000E+00 0. -1.
          1    1    5    5  503    0  0.24409852859E+02  0.48790661476E+02  0.10975571235E+03  0.12256706718E+03  0.00000000000E+00 0. -1.
         -2    1    5    5    0  503  0.14088937343E+03  0.60856168256E+02  0.16049993763E+03  0.22206647370E+03  0.00000000000E+00 0.  1.
         -1    1    6    6    0  502 -0.45742835052E+03 -0.76338348806E+02  0.50143337658E+03  0.68301073967E+03  0.00000000000E+00 0.  1.
<mgrwt>
<rscale>  0 0.19635936E+04</rscale>
<asrwt>0</asrwt>
<pdfrwt beam="1">  1        2 0.42083317E+00 0.19635936E+04</pdfrwt>
<pdfrwt beam="2">  1       -2 0.54213390E-01 0.19635936E+04</pdfrwt>
<totfact> 0.75602344E+00</totfact>
</mgrwt>
</event>
<event>
12    1  0.1496989E-007  0.1109859E+04  0.7818608E-02  0.9195635E-01
          1   -1    0    0  501    0  0.00000000000E+00  0.00000000000E+00  0.38550173520E+03  0.38550173520E+03  0.00000000000E+00 0. -1.
         -1   -1    0    0    0  501 -0.00000000000E+00 -0.00000000000E+00 -0.79882137043E+03  0.79882137043E+03  0.00000000000E+00 0.  1.
         23    2    1    2    0    0  0.69589467459E+02  0.12117756398E+03  0.30379018162E+02  0.16901581462E+03  0.90093089927E+02 0.  0.
        254    2    1    2    0    0 -0.69589467459E+02 -0.12117756398E+03 -0.44369865339E+03  0.10153072910E+04  0.90247088827E+03 0.  0.
        -24    2    4    4    0    0 -0.78331530571E+01  0.38645426618E+03 -0.17328692810E+03  0.43137155007E+03  0.81515621953E+02 0.  0.
         24    2    4    4    0    0 -0.61756314402E+02 -0.50763183016E+03 -0.27041172529E+03  0.58393574095E+03  0.79715312336E+02 0.  0.
         13    1    3    3    0    0  0.32728645584E+02  0.10024455793E+03  0.56086602847E+02  0.11943970301E+03  0.00000000000E+00 0. -1.
        -13    1    3    3    0    0  0.36860821875E+02  0.20933006049E+02 -0.25707584685E+02  0.49576111605E+02  0.00000000000E+00 0.  1.
          2    1    6    6  502    0 -0.25959440268E+02 -0.63933822947E+02 -0.14614345376E+02  0.70533717798E+02  0.00000000000E+00 0. -1.
          1    1    5    5  503    0  0.74029689122E+01  0.54228105385E+02 -0.57076568349E+02  0.79077341994E+02  0.00000000000E+00 0. -1.
         -2    1    5    5    0  503 -0.15236121969E+02  0.33222616080E+03 -0.11621035976E+03  0.35229420808E+03  0.00000000000E+00 0.  1.
         -1    1    6    6    0  502 -0.35796874134E+02 -0.44369800721E+03 -0.25579737991E+03  0.51340202315E+03  0.00000000000E+00 0.  1.
<mgrwt>
<rscale>  0 0.11098595E+04</rscale>
<asrwt>0</asrwt>
<pdfrwt beam="1">  1        1 0.59307959E-01 0.11098595E+04</pdfrwt>
<pdfrwt beam="2">  1       -1 0.12289560E+00 0.11098595E+04</pdfrwt>
<totfact> 0.36647650E+01</totfact>
</mgrwt>
</event>
<event>
12    1  0.1496989E-007  0.4418658E+04  0.7818608E-02  0.7925034E-01
         -2   -1    0    0    0  501 -0.00000000000E+00  0.00000000000E+00  0.15724863319E+04  0.15724863319E+04  0.00000000000E+00 0.  1.
          2   -1    0    0  501    0  0.00000000000E+00 -0.00000000000E+00 -0.31040874894E+04  0.31040874894E+04  0.00000000000E+00 0. -1.
         23    2    1    2    0    0  0.26771325250E+03  0.50069807629E+03 -0.28935619401E+04  0.29501458715E+04  0.91054999061E+02 0.  0.
        254    2    1    2    0    0 -0.26771325250E+03 -0.50069807629E+03  0.13619607826E+04  0.17264279497E+04  0.89624067256E+03 0.  0.
        -24    2    4    4    0    0 -0.89999334326E+02 -0.47828747029E+03  0.14348500975E+04  0.15172325636E+04  0.79630807582E+02 0.  0.
         24    2    4    4    0    0 -0.17771391817E+03 -0.22410605997E+02 -0.72889314890E+02  0.20919538609E+03  0.79783365211E+02 0.  0.
         13    1    3    3    0    0  0.13862371085E+03  0.19688434615E+03 -0.13982057800E+04  0.14187879976E+04  0.00000000000E+00 0.  1.
        -13    1    3    3    0    0  0.12908954165E+03  0.30381373014E+03 -0.14953561601E+04  0.15313578739E+04  0.00000000000E+00 0. -1.
          2    1    6    6  502    0 -0.16118368940E+03  0.26701526068E+01 -0.77393589412E+02  0.17882136094E+03  0.00000000000E+00 0. -1.
          1    1    5    5  503    0 -0.61204321807E+02 -0.41181906445E+03  0.11410433346E+04  0.12146278452E+04  0.00000000000E+00 0. -1.
         -2    1    5    5    0  503 -0.28795012519E+02 -0.66468405840E+02  0.29380676284E+03  0.30260471842E+03  0.00000000000E+00 0.  1.
         -1    1    6    6    0  502 -0.16530228765E+02 -0.25080758603E+02  0.45042745217E+01  0.30374025155E+02  0.00000000000E+00 0.  1.
<mgrwt>
<rscale>  0 0.44186582E+04</rscale>
<asrwt>0</asrwt>
<pdfrwt beam="1">  1        2 0.47755192E+00 0.44186582E+04</pdfrwt>
<pdfrwt beam="2">  1       -2 0.24192097E+00 0.44186582E+04</pdfrwt>
<totfact> 0.82164546E-02</totfact>
</mgrwt>
</event>
<event>
12    1  0.1496989E-007  0.1222805E+04  0.7818608E-02  0.9093126E-01
          1   -1    0    0  501    0  0.00000000000E+00  0.00000000000E+00  0.27901491926E+04  0.27901491926E+04  0.00000000000E+00 0.  1.
         -1   -1    0    0    0  501 -0.00000000000E+00 -0.00000000000E+00 -0.13397602916E+03  0.13397602916E+03  0.00000000000E+00 0. -1.
         23    2    1    2    0    0  0.76081754887E+02  0.15663959774E+03  0.12220081948E+03  0.23111505576E+03  0.90314626232E+02 0.  0.
        254    2    1    2    0    0 -0.76081754887E+02 -0.15663959774E+03  0.25339723440E+04  0.26930101660E+04  0.89496565142E+03 0.  0.
        -24    2    4    4    0    0  0.36787762275E+03 -0.17923197213E+03  0.16318861731E+04  0.16842343438E+04  0.78324950011E+02 0.  0.
         24    2    4    4    0    0 -0.44395937763E+03  0.22592374392E+02  0.90208617093E+03  0.10087758222E+04  0.79112928128E+02 0.  0.
         13    1    3    3    0    0  0.61291803351E+02  0.10461109325E+03  0.12848733323E+03  0.17666114680E+03  0.00000000000E+00 0. -1.
        -13    1    3    3    0    0  0.14789951536E+02  0.52028504492E+02 -0.62865137477E+01  0.54453908962E+02  0.00000000000E+00 0.  1.
          4    1    6    6  502    0 -0.21717171271E+02 -0.49852704538E+01  0.17998710501E+02  0.28643359251E+02  0.00000000000E+00 0. -1.
          3    1    5    5  503    0  0.47428860432E+02 -0.32251762478E+02  0.14073368122E+03  0.15197250414E+03  0.00000000000E+00 0. -1.
         -4    1    5    5    0  503  0.32044876231E+03 -0.14698020965E+03  0.14911524918E+04  0.15322618396E+04  0.00000000000E+00 0.  1.
         -3    1    6    6    0  502 -0.42224220636E+03  0.27577644846E+02  0.88408746043E+03  0.98013246299E+03  0.00000000000E+00 0.  1.
<mgrwt>
<rscale>  0 0.12228052E+04</rscale>
<asrwt>0</asrwt>
<pdfrwt beam="1">  1        1 0.42925368E+00 0.12228052E+04</pdfrwt>
<pdfrwt beam="2">  1       -1 0.20611699E-01 0.12228052E+04</pdfrwt>
<totfact> 0.16427469E+01</totfact>
</mgrwt>
</event>
<event>
12    1  0.1496989E-007  0.1235995E+04  0.7818608E-02  0.9081921E-01
          2   -1    0    0  501    0  0.00000000000E+00  0.00000000000E+00  0.32477153033E+03  0.32477153033E+03  0.00000000000E+00 0. -1.
         -2   -1    0    0    0  501 -0.00000000000E+00 -0.00000000000E+00 -0.11759681782E+04  0.11759681782E+04  0.00000000000E+00 0.  1.
         23    2    1    2    0    0  0.21373502580E+03 -0.17259771575E+03 -0.26929231349E+03  0.39536415865E+03  0.91224092800E+02 0.  0.
        254    2    1    2    0    0 -0.21373502580E+03  0.17259771575E+03 -0.58190433440E+03  0.11053755499E+04  0.89876015666E+03 0.  0.
        -24    2    4    4    0    0 -0.40521308479E+03 -0.81684906603E+02 -0.64653385453E+03  0.77158810642E+03  0.80449442919E+02 0.  0.
         24    2    4    4    0    0  0.19147805899E+03  0.25428262236E+03  0.64629520129E+02  0.33378744348E+03  0.76899827361E+02 0.  0.
         13    1    3    3    0    0  0.12505098671E+02  0.62067530863E+01  0.86274937013E+00  0.13987337600E+02  0.00000000000E+00 0. -1.
        -13    1    3    3    0    0  0.20122992713E+03 -0.17880446884E+03 -0.27015506286E+03  0.38137682105E+03  0.00000000000E+00 0.  1.
          2    1    6    6  502    0  0.18936923742E+03  0.20896365516E+03  0.58485004967E+02  0.28800523096E+03  0.00000000000E+00 0. -1.
          3    1    5    5  503    0 -0.35338990785E+03 -0.55367821335E+02 -0.59320928560E+03  0.69271009747E+03  0.00000000000E+00 0. -1.
         -4    1    5    5    0  503 -0.51823176940E+02 -0.26317085268E+02 -0.53324568929E+02  0.78878008954E+02  0.00000000000E+00 0.  1.
         -1    1    6    6    0  502  0.21088215692E+01  0.45318967199E+02  0.61445151625E+01  0.45782212518E+02  0.00000000000E+00 0.  1.
<mgrwt>
<rscale>  0 0.12359951E+04</rscale>
<asrwt>0</asrwt>
<pdfrwt beam="1">  1        2 0.49964851E-01 0.12359951E+04</pdfrwt>
<pdfrwt beam="2">  1       -2 0.18091818E+00 0.12359951E+04</pdfrwt>
<totfact> 0.17656193E+01</totfact>
</mgrwt>
</event>
<event>
12    1  0.1496989E-007  0.1529225E+04  0.7818608E-02  0.8865248E-01
          1   -1    0    0  501    0  0.00000000000E+00  0.00000000000E+00  0.49719562961E+03  0.49719562961E+03  0.00000000000E+00 0. -1.
         -1   -1    0    0    0  501 -0.00000000000E+00 -0.00000000000E+00 -0.11758593306E+04  0.11758593306E+04  0.00000000000E+00 0.  1.
         23    2    1    2    0    0  0.35273103694E+03 -0.35089686637E+03 -0.37670133546E+03  0.63029114156E+03  0.88403799371E+02 0.  0.
        254    2    1    2    0    0 -0.35273103694E+03  0.35089686637E+03 -0.30196236551E+03  0.10427638186E+04  0.86523252137E+03 0.  0.
        -24    2    4    4    0    0 -0.83707265356E+02  0.50375304552E+03 -0.45555726466E+03  0.68888771313E+03  0.79119041829E+02 0.  0.
         24    2    4    4    0    0 -0.26902377158E+03 -0.15285617915E+03  0.15359489914E+03  0.35387610551E+03  0.76799113477E+02 0.  0.
         11    1    3    3    0    0  0.32657816534E+03 -0.33484951705E+03 -0.37510216602E+03  0.59956578630E+03  0.00000000000E+00 0.  1.
        -11    1    3    3    0    0  0.26152871598E+02 -0.16047349318E+02 -0.15991694388E+01  0.30725355261E+02  0.00000000000E+00 0. -1.
          2    1    6    6  502    0 -0.17423850563E+02 -0.21918150746E+01  0.31804189313E+02  0.36330442877E+02  0.00000000000E+00 0. -1.
          3    1    5    5  503    0 -0.54414124345E+02  0.23840228550E+03 -0.26695338310E+03  0.36202300398E+03  0.00000000000E+00 0. -1.
         -4    1    5    5    0  503 -0.29293141011E+02  0.26535076002E+03 -0.18860388156E+03  0.32686470915E+03  0.00000000000E+00 0.  1.
         -1    1    6    6    0  502 -0.25159992102E+03 -0.15066436408E+03  0.12179070983E+03  0.31754566264E+03  0.00000000000E+00 0.  1.
<mgrwt>
<rscale>  0 0.15292248E+04</rscale>
<asrwt>0</asrwt>
<pdfrwt beam="1">  1        1 0.76491637E-01 0.15292248E+04</pdfrwt>
<pdfrwt beam="2">  1       -1 0.18090143E+00 0.15292248E+04</pdfrwt>
<totfact> 0.88371169E+00</totfact>
</mgrwt>
</event>
<event>
12    1  0.1496989E-007  0.1643673E+04  0.7818608E-02  0.8794159E-01
          2   -1    0    0  501    0  0.00000000000E+00  0.00000000000E+00  0.13744890299E+04  0.13744890299E+04  0.00000000000E+00 0. -1.
         -2   -1    0    0    0  501 -0.00000000000E+00 -0.00000000000E+00 -0.49139341483E+03  0.49139341483E+03  0.00000000000E+00 0.  1.
         23    2    1    2    0    0  0.34564800295E+02  0.43953381281E+03 -0.10588187069E+03  0.46273636189E+03  0.92354058142E+02 0.  0.
        254    2    1    2    0    0 -0.34564800295E+02 -0.43953381281E+03  0.98897748578E+03  0.14031460828E+04  0.89238879666E+03 0.  0.
        -24    2    4    4    0    0  0.37968852662E+03 -0.40019540880E+03  0.68018683202E+03  0.87941366081E+03  0.79965729475E+02 0.  0.
         24    2    4    4    0    0 -0.41425332692E+03 -0.39338404007E+02  0.30879065376E+03  0.52373242204E+03  0.76096341255E+02 0.  0.
         13    1    3    3    0    0 -0.27167386889E+02  0.86567302970E+02 -0.68991942816E+01  0.90992108095E+02  0.00000000000E+00 0. -1.
        -13    1    3    3    0    0  0.61732187184E+02  0.35296650984E+03 -0.98982676412E+02  0.37174425380E+03  0.00000000000E+00 0.  1.
          4    1    6    6  502    0 -0.60569107133E+02 -0.97265883300E+01  0.82502554716E+02  0.10280999365E+03  0.00000000000E+00 0. -1.
          1    1    5    5  503    0  0.17707540096E+03 -0.14867038347E+03  0.23783951799E+03  0.33170200009E+03  0.00000000000E+00 0. -1.
         -2    1    5    5    0  503  0.20261312567E+03 -0.25152502533E+03  0.44234731403E+03  0.54771166072E+03  0.00000000000E+00 0.  1.
         -3    1    6    6    0  502 -0.35368421978E+03 -0.29611815677E+02  0.22628809905E+03  0.42092242839E+03  0.00000000000E+00 0.  1.
<mgrwt>
<rscale>  0 0.16436725E+04</rscale>
<asrwt>0</asrwt>
<pdfrwt beam="1">  1        2 0.21145985E+00 0.16436725E+04</pdfrwt>
<pdfrwt beam="2">  1       -2 0.75598987E-01 0.16436725E+04</pdfrwt>
<totfact> 0.22441701E+01</totfact>
</mgrwt>
</event>
<event>
12    1  0.1496989E-007  0.1981727E+04  0.7818608E-02  0.8615212E-01
          2   -1    0    0  501    0  0.00000000000E+00  0.00000000000E+00  0.20073182669E+04  0.20073182669E+04  0.00000000000E+00 0. -1.
         -2   -1    0    0    0  501 -0.00000000000E+00 -0.00000000000E+00 -0.48911554832E+03  0.48911554832E+03  0.00000000000E+00 0.  1.
         23    2    1    2    0    0  0.69167512642E+03 -0.22982246926E+03  0.24670448453E+03  0.77481888056E+03  0.90820411230E+02 0.  0.
        254    2    1    2    0    0 -0.69167512642E+03  0.22982246926E+03  0.12714982340E+04  0.17216149346E+04  0.90333680107E+03 0.  0.
        -24    2    4    4    0    0 -0.22336596923E+03 -0.29511658485E+03  0.75669968447E+03  0.84613466048E+03  0.79770272207E+02 0.  0.
         24    2    4    4    0    0 -0.46830915719E+03  0.52493905410E+03  0.51479854954E+03  0.87548027415E+03  0.81078274416E+02 0.  0.
         13    1    3    3    0    0  0.58768840327E+03 -0.17929129295E+03  0.17535922768E+03  0.63896313337E+03  0.00000000000E+00 0.  1.
        -13    1    3    3    0    0  0.10398672315E+03 -0.50531176301E+02  0.71345256848E+02  0.13585574719E+03  0.00000000000E+00 0. -1.
          4    1    6    6  502    0 -0.28200113368E+03  0.27494334540E+03  0.25064885481E+03  0.46684401142E+03  0.00000000000E+00 0. -1.
          1    1    5    5  503    0 -0.17640775144E+03 -0.23485247832E+03  0.66360423127E+03  0.72570376677E+03  0.00000000000E+00 0. -1.
         -2    1    5    5    0  503 -0.46958217792E+02 -0.60264106532E+02  0.93095453191E+02  0.12043089371E+03  0.00000000000E+00 0.  1.
         -3    1    6    6    0  502 -0.18630802351E+03  0.24999570870E+03  0.26414969473E+03  0.40863626273E+03  0.00000000000E+00 0.  1.
<mgrwt>
<rscale>  0 0.19817271E+04</rscale>
<asrwt>0</asrwt>
<pdfrwt beam="1">  1        2 0.30881819E+00 0.19817271E+04</pdfrwt>
<pdfrwt beam="2">  1       -2 0.75248547E-01 0.19817271E+04</pdfrwt>
<totfact> 0.97610164E+00</totfact>
</mgrwt>
</event>
<event>
12    1  0.1496989E-007  0.3014999E+04  0.7818608E-02  0.8239461E-01
         -2   -1    0    0    0  501 -0.00000000000E+00  0.00000000000E+00  0.13268899715E+04  0.13268899715E+04  0.00000000000E+00 0.  1.
          2   -1    0    0  501    0  0.00000000000E+00 -0.00000000000E+00 -0.17126923661E+04  0.17126923661E+04  0.00000000000E+00 0. -1.
         23    2    1    2    0    0 -0.12607017046E+04  0.54091148751E+03 -0.20375128555E+03  0.13898244245E+04  0.90240341905E+02 0.  0.
        254    2    1    2    0    0  0.12607017046E+04 -0.54091148751E+03 -0.18205110902E+03  0.16497579130E+04  0.89811165227E+03 0.  0.
        -24    2    4    4    0    0  0.60813546079E+03 -0.67393168903E+03  0.11176302170E+03  0.91811448101E+03  0.80190816564E+02 0.  0.
         24    2    4    4    0    0  0.65256624383E+03  0.13302020153E+03 -0.29381413071E+03  0.73164343201E+03  0.73744773431E+02 0.  0.
         13    1    3    3    0    0 -0.94862437092E+03  0.37020967988E+03 -0.13028918303E+03  0.10266054137E+04  0.00000000000E+00 0. -1.
        -13    1    3    3    0    0 -0.31207733369E+03  0.17070180763E+03 -0.73462102521E+02  0.36321901084E+03  0.00000000000E+00 0.  1.
          2    1    6    6  502    0  0.22795635756E+02 -0.75415993615E+01 -0.42503419900E+01  0.24384054985E+02  0.00000000000E+00 0. -1.
          3    1    5    5  503    0  0.23741449911E+03 -0.32245623868E+03  0.50756557534E+02  0.40363337124E+03  0.00000000000E+00 0. -1.
         -4    1    5    5    0  503  0.37072096168E+03 -0.35147545036E+03  0.61006464163E+02  0.51448110976E+03  0.00000000000E+00 0.  1.
         -1    1    6    6    0  502  0.62977060807E+03  0.14056180089E+03 -0.28956378872E+03  0.70725937703E+03  0.00000000000E+00 0.  1.
<mgrwt>
<rscale>  0 0.30149987E+04</rscale>
<asrwt>0</asrwt>
<pdfrwt beam="1">  1        2 0.26349113E+00 0.30149987E+04</pdfrwt>
<pdfrwt beam="2">  1       -2 0.20413692E+00 0.30149987E+04</pdfrwt>
<totfact> 0.10309842E+00</totfact>
</mgrwt>
</event>
<event>
12    1  0.1496989E-007  0.2501347E+04  0.7818608E-02  0.8402506E-01
          2   -1    0    0  501    0  0.00000000000E+00  0.00000000000E+00  0.11462268763E+04  0.11462268763E+04  0.00000000000E+00 0.  1.
         -2   -1    0    0    0  501 -0.00000000000E+00 -0.00000000000E+00 -0.13646377658E+04  0.13646377658E+04  0.00000000000E+00 0. -1.
         23    2    1    2    0    0 -0.25191407524E+03 -0.75045166158E+03  0.65106463761E+03  0.10290970163E+04  0.92288184688E+02 0.  0.
        254    2    1    2    0    0  0.25191407524E+03  0.75045166158E+03 -0.86947552706E+03  0.14817676257E+04  0.90167023173E+03 0.  0.
        -24    2    4    4    0    0  0.28916620458E+03  0.68961740164E+03 -0.16572184330E+03  0.77010484658E+03  0.80053050284E+02 0.  0.
         24    2    4    4    0    0 -0.37252129332E+02  0.60834259937E+02 -0.70375368376E+03  0.71166277914E+03  0.78141765288E+02 0.  0.
         13    1    3    3    0    0 -0.25834393551E+03 -0.70554843712E+03  0.60788328177E+03  0.96646897021E+03  0.00000000000E+00 0.  1.
        -13    1    3    3    0    0  0.64298602617E+01 -0.44903224458E+02  0.43181355847E+02  0.62628046133E+02  0.00000000000E+00 0. -1.
          2    1    6    6  502    0 -0.66732000516E+01 -0.85365677400E+01 -0.13746933419E+02  0.17503792907E+02  0.00000000000E+00 0. -1.
          3    1    5    5  503    0  0.18127000860E+02  0.10725196844E+02 -0.49951676314E+01  0.21646471010E+02  0.00000000000E+00 0. -1.
         -4    1    5    5    0  503  0.27103920372E+03  0.67889220480E+03 -0.16072667566E+03  0.74845837556E+03  0.00000000000E+00 0.  1.
         -1    1    6    6    0  502 -0.30578929281E+02  0.69370827677E+02 -0.69000675034E+03  0.69415898623E+03  0.00000000000E+00 0.  1.
<mgrwt>
<rscale>  0 0.25013472E+04</rscale>
<asrwt>0</asrwt>
<pdfrwt beam="1">  1        2 0.17634260E+00 0.25013472E+04</pdfrwt>
<pdfrwt beam="2">  1       -2 0.20994427E+00 0.25013472E+04</pdfrwt>
<totfact> 0.20857683E+00</totfact>
</mgrwt>
</event>
<event>
12    1  0.1496989E-007  0.3238387E+04  0.7818608E-02  0.8178752E-01
         -2   -1    0    0    0  501 -0.00000000000E+00  0.00000000000E+00  0.17505809463E+04  0.17505809463E+04  0.00000000000E+00 0.  1.
          2   -1    0    0  501    0  0.00000000000E+00 -0.00000000000E+00 -0.14976668369E+04  0.14976668369E+04  0.00000000000E+00 0. -1.
         23    2    1    2    0    0  0.65451525075E+03  0.86714502545E+03  0.11581574104E+04  0.15905600828E+04  0.90675691694E+02 0.  0.
        254    2    1    2    0    0 -0.65451525075E+03 -0.86714502545E+03 -0.90524330100E+03  0.16576877003E+04  0.86494645452E+03 0.  0.
        -24    2    4    4    0    0  0.15470664394E+03 -0.41187605163E+03 -0.38637780913E+03  0.59081697758E+03  0.78745552393E+02 0.  0.
         24    2    4    4    0    0 -0.80922189469E+03 -0.45526897382E+03 -0.51886549187E+03  0.10668707227E+04  0.82956778089E+02 0.  0.
         11    1    3    3    0    0  0.20649024985E+03  0.28751092262E+03  0.31783305540E+03  0.47572955028E+03  0.00000000000E+00 0. -1.
        -11    1    3    3    0    0  0.44802500090E+03  0.57963410284E+03  0.84032435500E+03  0.11148305325E+04  0.00000000000E+00 0.  1.
          2    1    6    6  502    0 -0.14951430488E+03 -0.80314877459E+02 -0.13272238580E+03  0.21545356483E+03  0.00000000000E+00 0. -1.
          3    1    5    5  503    0  0.28043276231E+02 -0.89894230068E+02 -0.43594393800E+02  0.10376834350E+03  0.00000000000E+00 0. -1.
         -4    1    5    5    0  503  0.12666336771E+03 -0.32198182156E+03 -0.34278341533E+03  0.48704863408E+03  0.00000000000E+00 0.  1.
         -1    1    6    6    0  502 -0.65970758981E+03 -0.37495409636E+03 -0.38614310607E+03  0.85141715792E+03  0.00000000000E+00 0.  1.
<mgrwt>
<rscale>  0 0.32383867E+04</rscale>
<asrwt>0</asrwt>
<pdfrwt beam="1">  1        2 0.23041028E+00 0.32383867E+04</pdfrwt>
<pdfrwt beam="2">  1       -2 0.26932015E+00 0.32383867E+04</pdfrwt>
<totfact> 0.52296789E-01</totfact>
</mgrwt>
</event>
<event>
12    1  0.1496989E-007  0.2828278E+04  0.7818608E-02  0.8294543E-01
          1   -1    0    0  501    0  0.00000000000E+00  0.00000000000E+00  0.10219657658E+04  0.10219657658E+04  0.00000000000E+00 0. -1.
         -1   -1    0    0    0  501 -0.00000000000E+00 -0.00000000000E+00 -0.19568057086E+04  0.19568057086E+04  0.00000000000E+00 0.  1.
         23    2    1    2    0    0  0.41039900986E+03  0.37018138622E+03  0.77925017223E+03  0.95939050636E+03  0.87964235692E+02 0.  0.
        254    2    1    2    0    0 -0.41039900986E+03 -0.37018138622E+03 -0.17140901150E+04  0.20193809680E+04  0.91341828628E+03 0.  0.
        -24    2    4    4    0    0 -0.25809437815E+03 -0.93920958500E+02 -0.16665221455E+04  0.16908048886E+04  0.78046496407E+02 0.  0.
         24    2    4    4    0    0 -0.15230463172E+03 -0.27626042772E+03 -0.47567969547E+02  0.32857607942E+03  0.78632076631E+02 0.  0.
         11    1    3    3    0    0  0.37742304266E+03  0.35255745218E+03  0.68418192060E+03  0.85723381332E+03  0.00000000000E+00 0. -1.
        -11    1    3    3    0    0  0.32975967202E+02  0.17623934037E+02  0.95068251631E+02  0.10215669304E+03  0.00000000000E+00 0.  1.
          2    1    6    6  502    0 -0.13156112173E+03 -0.21948830407E+03 -0.67991124562E+02  0.26477582479E+03  0.00000000000E+00 0. -1.
          3    1    5    5  503    0 -0.15435458682E+03 -0.67308048748E+02 -0.12228320889E+04  0.12343719170E+04  0.00000000000E+00 0. -1.
         -4    1    5    5    0  503 -0.10373979132E+03 -0.26612909752E+02 -0.44369005657E+03  0.45643297160E+03  0.00000000000E+00 0.  1.
         -1    1    6    6    0  502 -0.20743509986E+02 -0.56772123643E+02  0.20423155016E+02  0.63800254625E+02  0.00000000000E+00 0.  1.
<mgrwt>
<rscale>  0 0.28282775E+04</rscale>
<asrwt>0</asrwt>
<pdfrwt beam="1">  1        1 0.15722550E+00 0.28282775E+04</pdfrwt>
<pdfrwt beam="2">  1       -1 0.30104703E+00 0.28282775E+04</pdfrwt>
<totfact> 0.40841093E-01</totfact>
</mgrwt>
</event>
<event>
12    1  0.1496989E-007  0.3099290E+04  0.7818608E-02  0.8215933E-01
         -2   -1    0    0    0  501 -0.00000000000E+00  0.00000000000E+00  0.13992859945E+04  0.13992859945E+04  0.00000000000E+00 0.  1.
          2   -1    0    0  501    0  0.00000000000E+00 -0.00000000000E+00 -0.17161607017E+04  0.17161607017E+04  0.00000000000E+00 0. -1.
         23    2    1    2    0    0  0.60789449384E+03  0.70173493502E+03 -0.12176204760E+04  0.15339193987E+04  0.91331612792E+02 0.  0.
        254    2    1    2    0    0 -0.60789449384E+03 -0.70173493502E+03  0.90074576874E+03  0.15815272975E+04  0.90990000450E+03 0.  0.
        -24    2    4    4    0    0  0.15921098390E+03 -0.39903281246E+03  0.15112775992E+03  0.46374971502E+03  0.87457850109E+02 0.  0.
         24    2    4    4    0    0 -0.76710547774E+03 -0.30270212255E+03  0.74961800882E+03  0.11177775825E+04  0.86140442177E+02 0.  0.
         11    1    3    3    0    0  0.13660783094E+03  0.13503944112E+03 -0.31041721251E+03  0.36504273169E+03  0.00000000000E+00 0.  1.
        -11    1    3    3    0    0  0.47128666290E+03  0.56669549389E+03 -0.90720326349E+03  0.11688766670E+04  0.00000000000E+00 0. -1.
          2    1    6    6  502    0 -0.21141078265E+03 -0.43247691791E+02  0.18807134411E+03  0.28624414814E+03  0.00000000000E+00 0. -1.
          1    1    5    5  503    0  0.72084470979E+02 -0.22838713041E+03  0.12567767715E+03  0.27046576646E+03  0.00000000000E+00 0. -1.
         -4    1    5    5    0  503  0.87126512925E+02 -0.17064568205E+03  0.25450082767E+02  0.19328394856E+03  0.00000000000E+00 0.  1.
         -1    1    6    6    0  502 -0.55569469509E+03 -0.25945443076E+03  0.56154666471E+03  0.83153343435E+03  0.00000000000E+00 0.  1.
<mgrwt>
<rscale>  0 0.30992900E+04</rscale>
<asrwt>0</asrwt>
<pdfrwt beam="1">  1        2 0.26402472E+00 0.30992900E+04</pdfrwt>
<pdfrwt beam="2">  1       -2 0.21527477E+00 0.30992900E+04</pdfrwt>
<totfact> 0.86398156E-01</totfact>
</mgrwt>
</event>
<event>
12    1  0.1496989E-007  0.1319990E+04  0.7818608E-02  0.9013862E-01
          1   -1    0    0  501    0  0.00000000000E+00  0.00000000000E+00  0.81952535446E+03  0.81952535446E+03  0.00000000000E+00 0. -1.
         -1   -1    0    0    0  501 -0.00000000000E+00 -0.00000000000E+00 -0.53151892301E+03  0.53151892301E+03  0.00000000000E+00 0.  1.
         23    2    1    2    0    0  0.36757912893E+01  0.28618159303E+03  0.24232008657E+03  0.38522089484E+03  0.88106173651E+02 0.  0.
        254    2    1    2    0    0 -0.36757912893E+01 -0.28618159303E+03  0.45686344882E+02  0.96582338263E+03  0.92131110310E+03 0.  0.
        -24    2    4    4    0    0  0.20522061417E+03 -0.55463193329E+03  0.12045960514E+03  0.60879460610E+03  0.79926679140E+02 0.  0.
         24    2    4    4    0    0 -0.20889640546E+03  0.26845034026E+03 -0.74773260261E+02  0.35702877653E+03  0.78582526190E+02 0.  0.
         13    1    3    3    0    0 -0.20707831392E+02  0.23051605505E+02  0.79145421015E+01  0.31981725626E+02  0.00000000000E+00 0.  1.
        -13    1    3    3    0    0  0.24383622681E+02  0.26312998753E+03  0.23440554447E+03  0.35323916922E+03  0.00000000000E+00 0. -1.
          4    1    6    6  502    0  0.40381417568E+01  0.17732067475E+02  0.43681170223E+01  0.18703295220E+02  0.00000000000E+00 0. -1.
          3    1    5    5  503    0  0.13261694801E+03 -0.44175125549E+03  0.76259707950E+02  0.46749007442E+03  0.00000000000E+00 0. -1.
         -4    1    5    5    0  503  0.72603666160E+02 -0.11288067780E+03  0.44199897192E+02  0.14130453167E+03  0.00000000000E+00 0.  1.
         -3    1    6    6    0  502 -0.21293454722E+03  0.25071827278E+03 -0.79141377283E+02  0.33832548131E+03  0.00000000000E+00 0.  1.
<mgrwt>
<rscale>  0 0.13199897E+04</rscale>
<asrwt>0</asrwt>
<pdfrwt beam="1">  1        1 0.12608082E+00 0.13199897E+04</pdfrwt>
<pdfrwt beam="2">  1       -1 0.81772142E-01 0.13199897E+04</pdfrwt>
<totfact> 0.31062794E+01</totfact>
</mgrwt>
</event>
<event>
12    1  0.1496989E-007  0.1856987E+04  0.7818608E-02  0.8676568E-01
          1   -1    0    0  501    0  0.00000000000E+00  0.00000000000E+00  0.61810359627E+03  0.61810359627E+03  0.00000000000E+00 0. -1.
         -1   -1    0    0    0  501 -0.00000000000E+00 -0.00000000000E+00 -0.13947505729E+04  0.13947505729E+04  0.00000000000E+00 0.  1.
         23    2    1    2    0    0  0.28059961158E+03  0.18602862300E+03  0.37167950370E+03  0.50969539124E+03  0.91109537335E+02 0.  0.
        254    2    1    2    0    0 -0.28059961158E+03 -0.18602862300E+03 -0.11483264803E+04  0.15031587779E+04  0.90966467210E+03 0.  0.
        -24    2    4    4    0    0 -0.36980760490E+03 -0.34150405762E+03 -0.11968491807E+04  0.13006137777E+04  0.75931228655E+02 0.  0.
         24    2    4    4    0    0  0.89207993328E+02  0.15547543462E+03  0.48522700368E+02  0.20254500020E+03  0.80866234047E+02 0.  0.
         13    1    3    3    0    0  0.25875820288E+03  0.18212850781E+03  0.30526961330E+03  0.43967731090E+03  0.00000000000E+00 0. -1.
        -13    1    3    3    0    0  0.21841408698E+02  0.39001151854E+01  0.66409890398E+02  0.70018080344E+02  0.00000000000E+00 0.  1.
          2    1    6    6  502    0  0.95685245662E+02  0.91735862766E+02  0.31259499670E+02  0.13619211091E+03  0.00000000000E+00 0. -1.
          3    1    5    5  503    0 -0.22186548370E+03 -0.25249253970E+03 -0.81127152829E+03  0.87814478765E+03  0.00000000000E+00 0. -1.
         -4    1    5    5    0  503 -0.14794212121E+03 -0.89011517919E+02 -0.38557765241E+03  0.42246899009E+03  0.00000000000E+00 0.  1.
         -1    1    6    6    0  502 -0.64772523342E+01  0.63739571854E+02  0.17263200698E+02  0.66352889283E+02  0.00000000000E+00 0.  1.
<mgrwt>
<rscale>  0 0.18569872E+04</rscale>
<asrwt>0</asrwt>
<pdfrwt beam="1">  1        1 0.95092861E-01 0.18569872E+04</pdfrwt>
<pdfrwt beam="2">  1       -1 0.21457701E+00 0.18569872E+04</pdfrwt>
<totfact> 0.36860161E+00</totfact>
</mgrwt>
</event>
<event>
12    1  0.1496989E-007  0.1415557E+04  0.7818608E-02  0.8942634E-01
         -2   -1    0    0    0  501 -0.00000000000E+00  0.00000000000E+00  0.64529281256E+03  0.64529281256E+03  0.00000000000E+00 0.  1.
          2   -1    0    0  501    0  0.00000000000E+00 -0.00000000000E+00 -0.77631453825E+03  0.77631453825E+03  0.00000000000E+00 0. -1.
         23    2    1    2    0    0  0.25993452662E+03  0.30093643832E+03 -0.13181654031E+03  0.43016961903E+03  0.97681128140E+02 0.  0.
        254    2    1    2    0    0 -0.25993452662E+03 -0.30093643832E+03  0.79481460999E+00  0.99143773178E+03  0.90819570921E+03 0.  0.
        -24    2    4    4    0    0 -0.34392099295E+03 -0.58322878376E+03  0.43236730886E+02  0.68359194503E+03  0.83612611590E+02 0.  0.
         24    2    4    4    0    0  0.83986466331E+02  0.28229234544E+03 -0.42441916276E+02  0.30784578675E+03  0.78898779079E+02 0.  0.
         13    1    3    3    0    0  0.13817386545E+02  0.65500153481E+02 -0.37629017756E+02  0.76792794286E+02  0.00000000000E+00 0.  1.
        -13    1    3    3    0    0  0.24611714007E+03  0.23543628484E+03 -0.94187522550E+02  0.35337682474E+03  0.00000000000E+00 0. -1.
          2    1    6    6  502    0  0.88053775671E+01  0.52869978414E+02 -0.39189609080E+02  0.66397249577E+02  0.00000000000E+00 0. -1.
          3    1    5    5  503    0 -0.59623512202E+02 -0.12406181331E+03  0.40679605145E+02  0.14353092699E+03  0.00000000000E+00 0. -1.
         -4    1    5    5    0  503 -0.28429748075E+03 -0.45916697045E+03  0.25571257413E+01  0.54006101804E+03  0.00000000000E+00 0.  1.
         -1    1    6    6    0  502  0.75181088764E+02  0.22942236702E+03 -0.32523071966E+01  0.24144853717E+03  0.00000000000E+00 0.  1.
<mgrwt>
<rscale>  0 0.14155567E+04</rscale>
<asrwt>0</asrwt>
<pdfrwt beam="1">  1        2 0.11943301E+00 0.14155567E+04</pdfrwt>
<pdfrwt beam="2">  1       -2 0.99275818E-01 0.14155567E+04</pdfrwt>
<totfact> 0.29292742E+01</totfact>
</mgrwt>
</event>
<event>
12    1  0.1496989E-007  0.1517096E+04  0.7818608E-02  0.8873163E-01
          1   -1    0    0  501    0  0.00000000000E+00  0.00000000000E+00  0.91313479088E+03  0.91313479088E+03  0.00000000000E+00 0. -1.
         -1   -1    0    0    0  501 -0.00000000000E+00 -0.00000000000E+00 -0.63013178037E+03  0.63013178037E+03  0.00000000000E+00 0.  1.
         23    2    1    2    0    0 -0.60192301143E+02 -0.27670957537E+03  0.51907547283E+03  0.59858914401E+03  0.93157472130E+02 0.  0.
        254    2    1    2    0    0  0.60192301143E+02  0.27670957537E+03 -0.23607246232E+03  0.94467742724E+03  0.86976659619E+03 0.  0.
        -24    2    4    4    0    0  0.38961320570E+03 -0.94963494118E+02 -0.14149382927E+03  0.43260394730E+03  0.79430197187E+02 0.  0.
         24    2    4    4    0    0 -0.32942090456E+03  0.37167306949E+03 -0.94578633058E+02  0.51207347994E+03  0.81333437668E+02 0.  0.
         13    1    3    3    0    0  0.31325229169E+01 -0.11062147707E+02 -0.61587648086E+00  0.11513605671E+02  0.00000000000E+00 0.  1.
        -13    1    3    3    0    0 -0.63324824060E+02 -0.26564742766E+03  0.51969134931E+03  0.58707553834E+03  0.00000000000E+00 0. -1.
          4    1    6    6  502    0 -0.28613292286E+03  0.33704790270E+03 -0.58604022490E+02  0.44599077313E+03  0.00000000000E+00 0. -1.
          1    1    5    5  503    0  0.39043885178E+03 -0.89068576722E+02 -0.13250207384E+03  0.42182046882E+03  0.00000000000E+00 0. -1.
         -2    1    5    5    0  503 -0.82564608155E+00 -0.58949173960E+01 -0.89917554217E+01  0.10783478480E+02  0.00000000000E+00 0.  1.
         -3    1    6    6    0  502 -0.43287981694E+02  0.34625166790E+02 -0.35974610569E+02  0.66082706815E+02  0.00000000000E+00 0.  1.
<mgrwt>
<rscale>  0 0.15170962E+04</rscale>
<asrwt>0</asrwt>
<pdfrwt beam="1">  1        1 0.14048228E+00 0.15170962E+04</pdfrwt>
<pdfrwt beam="2">  1       -1 0.96943351E-01 0.15170962E+04</pdfrwt>
<totfact> 0.17546844E+01</totfact>
</mgrwt>
</event>
<event>
12    1  0.1496989E-007  0.1567084E+04  0.7818608E-02  0.8841029E-01
         -2   -1    0    0    0  501 -0.00000000000E+00  0.00000000000E+00  0.17306947485E+03  0.17306947485E+03  0.00000000000E+00 0.  1.
          2   -1    0    0  501    0  0.00000000000E+00 -0.00000000000E+00 -0.35473501798E+04  0.35473501798E+04  0.00000000000E+00 0. -1.
         23    2    1    2    0    0 -0.29871708457E+02 -0.21357160302E+03 -0.21119178608E+04  0.21248690865E+04  0.91468221512E+02 0.  0.
        254    2    1    2    0    0  0.29871708457E+02  0.21357160302E+03 -0.12623628442E+04  0.15955505682E+04  0.95169139778E+03 0.  0.
        -24    2    4    4    0    0  0.13816732604E+03 -0.23841256387E+03 -0.10282625475E+04  0.10675189306E+04  0.79636925460E+02 0.  0.
         24    2    4    4    0    0 -0.10829561759E+03  0.45198416688E+03 -0.23410029671E+03  0.52803163763E+03  0.89425016182E+02 0.  0.
         13    1    3    3    0    0 -0.60374857214E+02 -0.13026780760E+03 -0.14344026314E+04  0.14415705790E+04  0.00000000000E+00 0. -1.
        -13    1    3    3    0    0  0.30503148757E+02 -0.83303795412E+02 -0.67751522932E+03  0.68329850752E+03  0.00000000000E+00 0.  1.
          2    1    6    6  502    0 -0.29443785361E+02  0.29110566244E+03 -0.16571961096E+03  0.33626244610E+03  0.00000000000E+00 0. -1.
          3    1    5    5  503    0  0.15600994395E+02 -0.79019394959E+02 -0.39400218337E+03  0.40215068856E+03  0.00000000000E+00 0. -1.
         -4    1    5    5    0  503  0.12256633165E+03 -0.15939316891E+03 -0.63426036413E+03  0.66536824200E+03  0.00000000000E+00 0.  1.
         -1    1    6    6    0  502 -0.78851832226E+02  0.16087850444E+03 -0.68380685757E+02  0.19176919153E+03  0.00000000000E+00 0.  1.
<mgrwt>
<rscale>  0 0.15670840E+04</rscale>
<asrwt>0</asrwt>
<pdfrwt beam="1">  1        2 0.54574613E+00 0.15670840E+04</pdfrwt>
<pdfrwt beam="2">  1       -2 0.26626076E-01 0.15670840E+04</pdfrwt>
<totfact> 0.93790218E+00</totfact>
</mgrwt>
</event>
<event>
12    1  0.1496989E-007  0.1227638E+04  0.7818608E-02  0.9089003E-01
         -1   -1    0    0    0  501 -0.00000000000E+00  0.00000000000E+00  0.10868232076E+04  0.10868232076E+04  0.00000000000E+00 0.  1.
          1   -1    0    0  501    0  0.00000000000E+00 -0.00000000000E+00 -0.34667462992E+03  0.34667462992E+03  0.00000000000E+00 0. -1.
         23    2    1    2    0    0 -0.99002491833E+02 -0.16375364252E+03 -0.87620650715E+02  0.22910631822E+03  0.90529430528E+02 0.  0.
        254    2    1    2    0    0  0.99002491833E+02  0.16375364252E+03  0.82776922842E+03  0.12043915193E+04  0.85366286522E+03 0.  0.
        -24    2    4    4    0    0  0.39986046657E+03 -0.71927426320E+02  0.18529754261E+03  0.45221736380E+03  0.71438207154E+02 0.  0.
         24    2    4    4    0    0 -0.30085797473E+03  0.23568106884E+03  0.64247168581E+03  0.75217415552E+03  0.83276683354E+02 0.  0.
         11    1    3    3    0    0 -0.91794961067E+02 -0.89929559862E+02 -0.22620889289E+02  0.13048120649E+03  0.00000000000E+00 0.  1.
        -11    1    3    3    0    0 -0.72075307665E+01 -0.73824082655E+02 -0.64999761426E+02  0.98625111737E+02  0.00000000000E+00 0. -1.
          4    1    6    6  502    0 -0.10983660662E+03  0.63039133964E+02  0.28260427119E+03  0.30968239643E+03  0.00000000000E+00 0. -1.
          1    1    5    5  503    0  0.25662071347E+03 -0.18102421027E+02  0.93197491838E+02  0.27361955470E+03  0.00000000000E+00 0. -1.
         -2    1    5    5    0  503  0.14323975310E+03 -0.53825005294E+02  0.92100050775E+02  0.17859780910E+03  0.00000000000E+00 0.  1.
         -3    1    6    6    0  502 -0.19102136812E+03  0.17264193487E+03  0.35986741462E+03  0.44249175909E+03  0.00000000000E+00 0.  1.
<mgrwt>
<rscale>  0 0.12276384E+04</rscale>
<asrwt>0</asrwt>
<pdfrwt beam="1">  1        1 0.53334559E-01 0.12276384E+04</pdfrwt>
<pdfrwt beam="2">  1       -1 0.16720357E+00 0.12276384E+04</pdfrwt>
<totfact> 0.18486224E+01</totfact>
</mgrwt>
</event>
<event>
12    1  0.1496989E-007  0.1524592E+04  0.7818608E-02  0.8868262E-01
         -2   -1    0    0    0  501 -0.00000000000E+00  0.00000000000E+00  0.18734735166E+03  0.18734735166E+03  0.00000000000E+00 0.  1.
          2   -1    0    0  501    0  0.00000000000E+00 -0.00000000000E+00 -0.31017009418E+04  0.31017009418E+04  0.00000000000E+00 0. -1.
         23    2    1    2    0    0 -0.13547766963E+03 -0.24878029946E+03 -0.18267564576E+04  0.18507699909E+04  0.89802936783E+02 0.  0.
        254    2    1    2    0    0  0.13547766963E+03  0.24878029946E+03 -0.10875971326E+04  0.14382783026E+04  0.89751385315E+03 0.  0.
        -24    2    4    4    0    0  0.37866843600E+03  0.13000977340E+03 -0.10802936246E+04  0.11549592809E+04  0.81266841659E+02 0.  0.
         24    2    4    4    0    0 -0.24319076637E+03  0.11877052606E+03 -0.73035080249E+01  0.28331902176E+03  0.83475386508E+02 0.  0.
         11    1    3    3    0    0 -0.62330114620E+02 -0.17792694937E+03 -0.13620682089E+04  0.13750537619E+04  0.00000000000E+00 0. -1.
        -11    1    3    3    0    0 -0.73147555015E+02 -0.70853350092E+02 -0.46468824868E+03  0.47571622895E+03  0.00000000000E+00 0.  1.
          2    1    6    6  502    0 -0.13579673938E+03  0.21043788814E+02 -0.12794651221E+02  0.13801195084E+03  0.00000000000E+00 0. -1.
          3    1    5    5  503    0  0.37430553802E+03  0.11695026172E+03 -0.10618090260E+04  0.11319100703E+04  0.00000000000E+00 0. -1.
         -4    1    5    5    0  503  0.43628979765E+01  0.13059511681E+02 -0.18484598599E+02  0.23049210604E+02  0.00000000000E+00 0.  1.
         -1    1    6    6    0  502 -0.10739402698E+03  0.97726737249E+02  0.54911431962E+01  0.14530707092E+03  0.00000000000E+00 0.  1.
<mgrwt>
<rscale>  0 0.15245923E+04</rscale>
<asrwt>0</asrwt>
<pdfrwt beam="1">  1        2 0.47718475E+00 0.15245923E+04</pdfrwt>
<pdfrwt beam="2">  1       -2 0.28822670E-01 0.15245923E+04</pdfrwt>
<totfact> 0.16124262E+01</totfact>
</mgrwt>
</event>
<event>
12    1  0.1496989E-007  0.2333542E+04  0.7818608E-02  0.8464812E-01
         -1   -1    0    0    0  501 -0.00000000000E+00  0.00000000000E+00  0.11190635796E+04  0.11190635796E+04  0.00000000000E+00 0.  1.
          1   -1    0    0  501    0  0.00000000000E+00 -0.00000000000E+00 -0.12165119220E+04  0.12165119220E+04  0.00000000000E+00 0. -1.
         23    2    1    2    0    0 -0.38748496383E+03  0.78876253238E+03  0.41782786358E+03  0.97783056769E+03  0.96340883618E+02 0.  0.
        254    2    1    2    0    0  0.38748496383E+03 -0.78876253238E+03 -0.51527620599E+03  0.13577449339E+04  0.89759167070E+03 0.  0.
        -24    2    4    4    0    0 -0.18096239173E+02 -0.65679115598E+03  0.27751237613E+02  0.66261357933E+03  0.81145103862E+02 0.  0.
         24    2    4    4    0    0  0.40558120300E+03 -0.13197137640E+03 -0.54302744360E+03  0.69513135454E+03  0.80101430367E+02 0.  0.
         11    1    3    3    0    0 -0.15882506765E+03  0.37761149141E+03  0.14852529213E+03  0.43574717780E+03  0.00000000000E+00 0. -1.
        -11    1    3    3    0    0 -0.22865989617E+03  0.41115104097E+03  0.26930257145E+03  0.54208338989E+03  0.00000000000E+00 0.  1.
          2    1    6    6  502    0  0.35581866512E+02 -0.18381984593E+02 -0.94867463090E+02  0.10297476455E+03  0.00000000000E+00 0. -1.
          1    1    5    5  503    0 -0.32889783595E+02 -0.10529346124E+03  0.67887396194E+01  0.11051940024E+03  0.00000000000E+00 0. -1.
         -2    1    5    5    0  503  0.14793544422E+02 -0.55149769474E+03  0.20962497994E+02  0.55209417909E+03  0.00000000000E+00 0.  1.
         -1    1    6    6    0  502  0.36999933649E+03 -0.11358939181E+03 -0.44815998051E+03  0.59215658999E+03  0.00000000000E+00 0.  1.
<mgrwt>
<rscale>  0 0.23335417E+04</rscale>
<asrwt>0</asrwt>
<pdfrwt beam="1">  1        1 0.18715568E+00 0.23335417E+04</pdfrwt>
<pdfrwt beam="2">  1       -1 0.17216363E+00 0.23335417E+04</pdfrwt>
<totfact> 0.22222431E+00</totfact>
</mgrwt>
</event>
<event>
12    1  0.1496989E-007  0.1449268E+04  0.7818608E-02  0.8918908E-01
         -2   -1    0    0    0  501 -0.00000000000E+00  0.00000000000E+00  0.20579525172E+03  0.20579525172E+03  0.00000000000E+00 0. -1.
          2   -1    0    0  501    0  0.00000000000E+00 -0.00000000000E+00 -0.25515374955E+04  0.25515374955E+04  0.00000000000E+00 0.  1.
         23    2    1    2    0    0 -0.30260936851E+03 -0.20191277336E+03 -0.11865963738E+04  0.12444864479E+04  0.91620776697E+02 0.  0.
        254    2    1    2    0    0  0.30260936851E+03  0.20191277336E+03 -0.11591458700E+04  0.15128462993E+04  0.90152292237E+03 0.  0.
        -24    2    4    4    0    0  0.48632069659E+03 -0.19211415645E+03 -0.66484837225E+03  0.84967350369E+03  0.80660000947E+02 0.  0.
         24    2    4    4    0    0 -0.18371132808E+03  0.39402692981E+03 -0.49429749771E+03  0.66317279562E+03  0.80380763462E+02 0.  0.
         13    1    3    3    0    0 -0.49046119522E+02  0.10356224684E+01 -0.12353361347E+03  0.13291782427E+03  0.00000000000E+00 0. -1.
        -13    1    3    3    0    0 -0.25356324899E+03 -0.20294839583E+03 -0.10630627604E+04  0.11115686236E+04  0.00000000000E+00 0.  1.
          4    1    6    6  502    0 -0.17428461430E+02  0.11837977953E+03 -0.14883933988E+03  0.19097296291E+03  0.00000000000E+00 0. -1.
          3    1    5    5  503    0  0.11104861299E+03 -0.66997359687E+02 -0.21052429851E+03  0.24726690218E+03  0.00000000000E+00 0. -1.
         -4    1    5    5    0  503  0.37527208360E+03 -0.12511679677E+03 -0.45432407374E+03  0.60240660151E+03  0.00000000000E+00 0.  1.
         -3    1    6    6    0  502 -0.16628286665E+03  0.27564715029E+03 -0.34545815783E+03  0.47219983271E+03  0.00000000000E+00 0.  1.
<mgrwt>
<rscale>  0 0.14492678E+04</rscale>
<asrwt>0</asrwt>
<pdfrwt beam="1">  1        2 0.39254421E+00 0.14492678E+04</pdfrwt>
<pdfrwt beam="2">  1       -2 0.31660810E-01 0.14492678E+04</pdfrwt>
<totfact> 0.29309135E+01</totfact>
</mgrwt>
</event>
<event>
12    1  0.1496989E-007  0.1327539E+04  0.7818608E-02  0.9008007E-01
          1   -1    0    0  501    0  0.00000000000E+00  0.00000000000E+00  0.65199167246E+03  0.65199167246E+03  0.00000000000E+00 0. -1.
         -1   -1    0    0    0  501 -0.00000000000E+00 -0.00000000000E+00 -0.67576014249E+03  0.67576014249E+03  0.00000000000E+00 0.  1.
         23    2    1    2    0    0 -0.22875521978E+03 -0.15769585189E+03 -0.15540663309E+03  0.34061732825E+03  0.12112807443E+03 0.  0.
        254    2    1    2    0    0  0.22875521978E+03  0.15769585189E+03  0.13163816305E+03  0.98713448670E+03  0.93803462441E+03 0.  0.
        -24    2    4    4    0    0  0.32981201384E+03  0.26496016917E+03  0.45277881895E+03  0.62472995499E+03  0.79366252581E+02 0.  0.
         24    2    4    4    0    0 -0.10105679407E+03 -0.10726431728E+03 -0.32114065590E+03  0.36240453172E+03  0.80545728321E+02 0.  0.
         13    1    3    3    0    0 -0.16431294479E+03 -0.14689445153E+03 -0.66370459795E+02  0.23017767409E+03  0.00000000000E+00 0.  1.
        -13    1    3    3    0    0 -0.64442274985E+02 -0.10801400356E+02 -0.89036173293E+02  0.11043965415E+03  0.00000000000E+00 0. -1.
          2    1    6    6  502    0  0.15159056949E+01 -0.30494627031E+02 -0.24054609645E+02  0.38869583134E+02  0.00000000000E+00 0. -1.
          1    1    5    5  503    0  0.16711329863E+02  0.35054905590E+02  0.65911063146E+02  0.76500870562E+02  0.00000000000E+00 0. -1.
         -2    1    5    5    0  503  0.31310068398E+03  0.22990526358E+03  0.38686775580E+03  0.54822908442E+03  0.00000000000E+00 0.  1.
         -1    1    6    6    0  502 -0.10257269976E+03 -0.76769690249E+02 -0.29708604625E+03  0.32353494858E+03  0.00000000000E+00 0.  1.
<mgrwt>
<rscale>  0 0.13275391E+04</rscale>
<asrwt>0</asrwt>
<pdfrwt beam="1">  1        1 0.10030641E+00 0.13275391E+04</pdfrwt>
<pdfrwt beam="2">  1       -1 0.10396310E+00 0.13275391E+04</pdfrwt>
<totfact> 0.25912953E+01</totfact>
</mgrwt>
</event>
<event>
12    1  0.1496989E-007  0.4364383E+04  0.7818608E-02  0.7934819E-01
         -2   -1    0    0    0  501 -0.00000000000E+00  0.00000000000E+00  0.15718901804E+04  0.15718901804E+04  0.00000000000E+00 0.  1.
          2   -1    0    0  501    0  0.00000000000E+00 -0.00000000000E+00 -0.30294476660E+04  0.30294476660E+04  0.00000000000E+00 0. -1.
         23    2    1    2    0    0 -0.15577093203E+04 -0.96351786025E+03  0.35456977028E+03  0.18680129643E+04  0.94486608846E+02 0.  0.
        254    2    1    2    0    0  0.15577093203E+04  0.96351786025E+03 -0.18121272558E+04  0.27333248821E+04  0.91237860882E+03 0.  0.
        -24    2    4    4    0    0  0.33595037667E+03  0.21668719596E+03  0.18189387951E+02  0.40803074320E+03  0.79638163466E+02 0.  0.
         24    2    4    4    0    0  0.12217589436E+04  0.74683066429E+03 -0.18303166438E+04  0.23252941389E+04  0.80516197930E+02 0.  0.
         13    1    3    3    0    0 -0.72500369846E+03 -0.43870522310E+03  0.11683441324E+03  0.85541973070E+03  0.00000000000E+00 0. -1.
        -13    1    3    3    0    0 -0.83270562186E+03 -0.52481263716E+03  0.23773535704E+03  0.10125932336E+04  0.00000000000E+00 0.  1.
          4    1    6    6  502    0  0.95185505887E+03  0.56651358690E+03 -0.14645714259E+04  0.18362829735E+04  0.00000000000E+00 0. -1.
          3    1    5    5  503    0  0.33064348103E+03  0.22254252173E+03  0.22181859791E+02  0.39917705399E+03  0.00000000000E+00 0. -1.
         -4    1    5    5    0  503  0.53068956485E+01 -0.58553257711E+01 -0.39924718405E+01  0.88536892145E+01  0.00000000000E+00 0.  1.
         -3    1    6    6    0  502  0.26990388478E+03  0.18031707739E+03 -0.36574521786E+03  0.48901116531E+03  0.00000000000E+00 0.  1.
<mgrwt>
<rscale>  0 0.43643827E+04</rscale>
<asrwt>0</asrwt>
<pdfrwt beam="1">  1        2 0.46606887E+00 0.43643827E+04</pdfrwt>
<pdfrwt beam="2">  1       -2 0.24182926E+00 0.43643827E+04</pdfrwt>
<totfact> 0.92183220E-02</totfact>
</mgrwt>
</event>
<event>
12    1  0.1496989E-007  0.2173187E+04  0.7818608E-02  0.8529672E-01
          2   -1    0    0  501    0  0.00000000000E+00  0.00000000000E+00  0.87667062063E+03  0.87667062063E+03  0.00000000000E+00 0.  1.
         -2   -1    0    0    0  501 -0.00000000000E+00 -0.00000000000E+00 -0.13467832089E+04  0.13467832089E+04  0.00000000000E+00 0. -1.
         23    2    1    2    0    0 -0.85213480491E+03  0.11851313558E+03 -0.44947236302E+03  0.97498718188E+03  0.91627019211E+02 0.  0.
        254    2    1    2    0    0  0.85213480491E+03 -0.11851313558E+03 -0.20640225209E+02  0.12484666476E+04  0.90446882879E+03 0.  0.
        -24    2    4    4    0    0  0.66620252641E+02 -0.18097319202E+03  0.32279310018E+03  0.38548126673E+03  0.84916825105E+02 0.  0.
         24    2    4    4    0    0  0.78551455227E+03  0.62460056441E+02 -0.34343332538E+03  0.86298538088E+03  0.76569890607E+02 0.  0.
         13    1    3    3    0    0 -0.80934581113E+02  0.24285669002E+02 -0.18413762251E+02  0.86482754229E+02  0.00000000000E+00 0.  1.
        -13    1    3    3    0    0 -0.77120022380E+03  0.94227466582E+02 -0.43105860077E+03  0.88850442765E+03  0.00000000000E+00 0. -1.
          4    1    6    6  502    0  0.16741204239E+03  0.20939924084E+02 -0.41090808290E+02  0.17364828500E+03  0.00000000000E+00 0. -1.
          1    1    5    5  503    0  0.28853075997E+02 -0.92707871334E+01  0.23408435615E+02  0.38293633237E+02  0.00000000000E+00 0. -1.
         -2    1    5    5    0  503  0.37767176644E+02 -0.17170240489E+03  0.29938466456E+03  0.34718763349E+03  0.00000000000E+00 0.  1.
         -3    1    6    6    0  502  0.61810250988E+03  0.41520132357E+02 -0.30234251709E+03  0.68933709588E+03  0.00000000000E+00 0.  1.
<mgrwt>
<rscale>  0 0.21731869E+04</rscale>
<asrwt>0</asrwt>
<pdfrwt beam="1">  1        2 0.13487240E+00 0.21731869E+04</pdfrwt>
<pdfrwt beam="2">  1       -2 0.20719742E+00 0.21731869E+04</pdfrwt>
<totfact> 0.33249911E+00</totfact>
</mgrwt>
</event>
<event>
12    1  0.1496989E-007  0.2232767E+04  0.7818608E-02  0.8504912E-01
         -2   -1    0    0    0  501 -0.00000000000E+00  0.00000000000E+00  0.40232500348E+03  0.40232500348E+03  0.00000000000E+00 0.  1.
          2   -1    0    0  501    0  0.00000000000E+00 -0.00000000000E+00 -0.30977738934E+04  0.30977738934E+04  0.00000000000E+00 0. -1.
         23    2    1    2    0    0  0.50816121586E+03 -0.70569829703E+03 -0.58966596693E+03  0.10547073168E+04  0.91998172863E+02 0.  0.
        254    2    1    2    0    0 -0.50816121586E+03  0.70569829703E+03 -0.21057829229E+04  0.24453915800E+04  0.88847079490E+03 0.  0.
        -24    2    4    4    0    0 -0.53774093520E+03  0.88664463731E+03 -0.18173278540E+04  0.20938771964E+04  0.79606270246E+02 0.  0.
         24    2    4    4    0    0  0.29579719333E+02 -0.18094634027E+03 -0.28845506895E+03  0.35151438368E+03  0.82094441190E+02 0.  0.
         11    1    3    3    0    0  0.46094176603E+03 -0.64221462642E+03 -0.50112426479E+03  0.93596606072E+03  0.00000000000E+00 0.  1.
        -11    1    3    3    0    0  0.47219449830E+02 -0.63483670613E+02 -0.88541702143E+02  0.11874125608E+03  0.00000000000E+00 0. -1.
          4    1    6    6  502    0  0.27232702132E+01 -0.11720733366E+02 -0.83541543059E+02  0.84403680061E+02  0.00000000000E+00 0. -1.
          1    1    5    5  503    0 -0.75484051436E+02  0.17307554934E+03 -0.29616690265E+03  0.35123755782E+03  0.00000000000E+00 0. -1.
         -2    1    5    5    0  503 -0.46225688376E+03  0.71356908796E+03 -0.15211609513E+04  0.17426396385E+04  0.00000000000E+00 0.  1.
         -3    1    6    6    0  502  0.26856449120E+02 -0.16922560691E+03 -0.20491352590E+03  0.26711070362E+03  0.00000000000E+00 0.  1.
<mgrwt>
<rscale>  0 0.22327668E+04</rscale>
<asrwt>0</asrwt>
<pdfrwt beam="1">  1        2 0.47658059E+00 0.22327668E+04</pdfrwt>
<pdfrwt beam="2">  1       -2 0.61896156E-01 0.22327668E+04</pdfrwt>
<totfact> 0.33413079E+00</totfact>
</mgrwt>
</event>
<event>
12    1  0.1496989E-007  0.2239508E+04  0.7818608E-02  0.8502162E-01
         -1   -1    0    0    0  501 -0.00000000000E+00  0.00000000000E+00  0.40323150224E+03  0.40323150224E+03  0.00000000000E+00 0.  1.
          1   -1    0    0  501    0  0.00000000000E+00 -0.00000000000E+00 -0.31095020403E+04  0.31095020403E+04  0.00000000000E+00 0. -1.
         23    2    1    2    0    0 -0.77296527050E+03 -0.39837724922E+03 -0.57867907326E+03  0.10484981263E+04  0.91099445332E+02 0.  0.
        254    2    1    2    0    0  0.77296527050E+03  0.39837724922E+03 -0.21275914648E+04  0.24642354162E+04  0.88861184068E+03 0.  0.
        -24    2    4    4    0    0  0.54080292987E+03  0.67602475958E+03 -0.14078071414E+04  0.16545898970E+04  0.79180145917E+02 0.  0.
         24    2    4    4    0    0  0.23216234063E+03 -0.27764751035E+03 -0.71978432344E+03  0.80964551922E+03  0.80305056543E+02 0.  0.
         13    1    3    3    0    0 -0.42422111180E+03 -0.24955204687E+03 -0.28362247220E+03  0.56805059857E+03  0.00000000000E+00 0.  1.
        -13    1    3    3    0    0 -0.34874415870E+03 -0.14882520235E+03 -0.29505660106E+03  0.48044752774E+03  0.00000000000E+00 0. -1.
          2    1    6    6  502    0  0.98566191847E+02 -0.12041408932E+03 -0.39862065486E+03  0.42791736768E+03  0.00000000000E+00 0. -1.
          1    1    5    5  503    0  0.22196255168E+03  0.25179344565E+03 -0.47974534466E+03  0.58551081061E+03  0.00000000000E+00 0. -1.
         -2    1    5    5    0  503  0.31884037819E+03  0.42423131392E+03 -0.92806179669E+03  0.10690790864E+04  0.00000000000E+00 0.  1.
         -1    1    6    6    0  502  0.13359614878E+03 -0.15723342103E+03 -0.32116366858E+03  0.38172815154E+03  0.00000000000E+00 0.  1.
<mgrwt>
<rscale>  0 0.22395081E+04</rscale>
<asrwt>0</asrwt>
<pdfrwt beam="1">  1        1 0.47838493E+00 0.22395081E+04</pdfrwt>
<pdfrwt beam="2">  1       -1 0.62035616E-01 0.22395081E+04</pdfrwt>
<totfact> 0.11903292E+00</totfact>
</mgrwt>
</event>
<event>
12    1  0.1496989E-007  0.1378193E+04  0.7818608E-02  0.8969756E-01
         -1   -1    0    0    0  501 -0.00000000000E+00  0.00000000000E+00  0.91413408402E+03  0.91413408402E+03  0.00000000000E+00 0.  1.
          1   -1    0    0  501    0  0.00000000000E+00 -0.00000000000E+00 -0.51945801533E+03  0.51945801533E+03  0.00000000000E+00 0. -1.
         23    2    1    2    0    0 -0.17026445553E+03  0.18438390416E+03  0.42125216704E+03  0.49802761539E+03  0.87124672331E+02 0.  0.
        254    2    1    2    0    0  0.17026445553E+03 -0.18438390416E+03 -0.26576098344E+02  0.93556448395E+03  0.90088134940E+03 0.  0.
        -24    2    4    4    0    0  0.39893967776E+03 -0.12513652998E+03 -0.33256134908E+03  0.54019156254E+03  0.79986597099E+02 0.  0.
         24    2    4    4    0    0 -0.22867522223E+03 -0.59247374181E+02  0.30598525073E+03  0.39537292141E+03  0.83007016042E+02 0.  0.
         13    1    3    3    0    0 -0.75830029617E+02  0.12988554633E+03  0.29562332874E+03  0.33168298273E+03  0.00000000000E+00 0.  1.
        -13    1    3    3    0    0 -0.94434425911E+02  0.54498357838E+02  0.12562883830E+03  0.16634463266E+03  0.00000000000E+00 0. -1.
          4    1    6    6  502    0 -0.20668076698E+02 -0.34291938859E+02  0.61762951731E+02  0.73605493488E+02  0.00000000000E+00 0. -1.
          1    1    5    5  503    0  0.18472714624E+03 -0.38024958466E+02 -0.19421148060E+03  0.27071777781E+03  0.00000000000E+00 0. -1.
         -2    1    5    5    0  503  0.21421253151E+03 -0.87111571518E+02 -0.13834986848E+03  0.26947378473E+03  0.00000000000E+00 0.  1.
         -3    1    6    6    0  502 -0.20800714553E+03 -0.24955435322E+02  0.24422229900E+03  0.32176742792E+03  0.00000000000E+00 0.  1.
<mgrwt>
<rscale>  0 0.13781934E+04</rscale>
<asrwt>0</asrwt>
<pdfrwt beam="1">  1        1 0.79916618E-01 0.13781934E+04</pdfrwt>
<pdfrwt beam="2">  1       -1 0.14063601E+00 0.13781934E+04</pdfrwt>
<totfact> 0.17007607E+01</totfact>
</mgrwt>
</event>
<event>
12    1  0.1496989E-007  0.1728028E+04  0.7818608E-02  0.8745538E-01
          2   -1    0    0  501    0  0.00000000000E+00  0.00000000000E+00  0.10009580662E+04  0.10009580662E+04  0.00000000000E+00 0. -1.
         -2   -1    0    0    0  501 -0.00000000000E+00 -0.00000000000E+00 -0.74580578948E+03  0.74580578948E+03  0.00000000000E+00 0.  1.
         23    2    1    2    0    0 -0.48145722583E+03  0.35301815352E+03  0.28297617789E+03  0.66697276200E+03  0.91401701227E+02 0.  0.
        254    2    1    2    0    0  0.48145722583E+03 -0.35301815352E+03 -0.27823901152E+02  0.10797910937E+04  0.89930626571E+03 0.  0.
        -24    2    4    4    0    0  0.58953340299E+03 -0.15510984301E+02 -0.25905451689E+03  0.64906824206E+03  0.79938202700E+02 0.  0.
         24    2    4    4    0    0 -0.10807617717E+03 -0.33750716922E+03  0.23123061574E+03  0.43072285164E+03  0.80392959459E+02 0.  0.
         13    1    3    3    0    0 -0.28889318047E+03  0.21007087129E+03  0.21814957829E+03  0.41854304342E+03  0.00000000000E+00 0. -1.
        -13    1    3    3    0    0 -0.19256404535E+03  0.14294728223E+03  0.64826599600E+02  0.24842971858E+03  0.00000000000E+00 0.  1.
          2    1    6    6  502    0 -0.24792594136E+02 -0.19515318372E+03  0.10468497021E+03  0.22284160480E+03  0.00000000000E+00 0. -1.
          3    1    5    5  503    0  0.26601929825E+03  0.25743822384E+02 -0.92113234106E+02  0.28269039483E+03  0.00000000000E+00 0. -1.
         -4    1    5    5    0  503  0.32351410474E+03 -0.41254806685E+02 -0.16694128278E+03  0.36637784723E+03  0.00000000000E+00 0.  1.
         -1    1    6    6    0  502 -0.83283583030E+02 -0.14235398549E+03  0.12654564553E+03  0.20788124684E+03  0.00000000000E+00 0.  1.
<mgrwt>
<rscale>  0 0.17280281E+04</rscale>
<asrwt>0</asrwt>
<pdfrwt beam="1">  1        2 0.15399355E+00 0.17280281E+04</pdfrwt>
<pdfrwt beam="2">  1       -2 0.11473935E+00 0.17280281E+04</pdfrwt>
<totfact> 0.14161448E+01</totfact>
</mgrwt>
</event>
<event>
12    1  0.1496989E-007  0.1911800E+04  0.7818608E-02  0.8649005E-01
          2   -1    0    0  501    0  0.00000000000E+00  0.00000000000E+00  0.10857769778E+04  0.10857769778E+04  0.00000000000E+00 0.  1.
         -2   -1    0    0    0  501 -0.00000000000E+00 -0.00000000000E+00 -0.84155844181E+03  0.84155844181E+03  0.00000000000E+00 0. -1.
         23    2    1    2    0    0  0.19585654093E+02  0.11189082471E+03  0.83776245640E+03  0.85211276835E+03  0.10652268360E+03 0.  0.
        254    2    1    2    0    0 -0.19585654093E+02 -0.11189082471E+03 -0.59354392043E+03  0.10752226513E+04  0.88932907846E+03 0.  0.
        -24    2    4    4    0    0  0.32886203830E+03  0.21949465830E+03 -0.20919960524E+03  0.45435479588E+03  0.79659653854E+02 0.  0.
         24    2    4    4    0    0 -0.34844769239E+03 -0.33138548301E+03 -0.38434431519E+03  0.62086785537E+03  0.80772572853E+02 0.  0.
         13    1    3    3    0    0  0.20303979304E+00 -0.20424632563E+02  0.75767263568E+02  0.78472192967E+02  0.00000000000E+00 0. -1.
        -13    1    3    3    0    0  0.19382614300E+02  0.13231545727E+03  0.76199519283E+03  0.77364057538E+03  0.00000000000E+00 0.  1.
          2    1    6    6  502    0 -0.48751805420E+01 -0.19664709643E+02 -0.33811972910E+02  0.39417225965E+02  0.00000000000E+00 0. -1.
          3    1    5    5  503    0  0.20145850859E+03  0.10054766332E+03 -0.14882063051E+03  0.26989431886E+03  0.00000000000E+00 0. -1.
         -4    1    5    5    0  503  0.12740352971E+03  0.11894699498E+03 -0.60378974726E+02  0.18446047703E+03  0.00000000000E+00 0.  1.
         -1    1    6    6    0  502 -0.34357251185E+03 -0.31172077337E+03 -0.35053234228E+03  0.58145062940E+03  0.00000000000E+00 0.  1.
<mgrwt>
<rscale>  0 0.19118000E+04</rscale>
<asrwt>0</asrwt>
<pdfrwt beam="1">  1        2 0.16704261E+00 0.19118000E+04</pdfrwt>
<pdfrwt beam="2">  1       -2 0.12947053E+00 0.19118000E+04</pdfrwt>
<totfact> 0.91292443E+00</totfact>
</mgrwt>
</event>
<event>
12    1  0.1496989E-007  0.1590009E+04  0.7818608E-02  0.8826710E-01
          2   -1    0    0  501    0  0.00000000000E+00  0.00000000000E+00  0.72576095192E+03  0.72576095192E+03  0.00000000000E+00 0. -1.
         -2   -1    0    0    0  501 -0.00000000000E+00 -0.00000000000E+00 -0.87085404613E+03  0.87085404613E+03  0.00000000000E+00 0.  1.
         23    2    1    2    0    0 -0.28524608982E+03 -0.10299585563E+03  0.39006161929E+03  0.50316265129E+03  0.95137315359E+02 0.  0.
        254    2    1    2    0    0  0.28524608982E+03  0.10299585563E+03 -0.53515471349E+03  0.10934523468E+04  0.90403207313E+03 0.  0.
        -24    2    4    4    0    0  0.34665960927E+03 -0.30468447350E+03 -0.47702321196E+03  0.66844515009E+03  0.79134447868E+02 0.  0.
         24    2    4    4    0    0 -0.61413519456E+02  0.40768032914E+03 -0.58131501537E+02  0.42500719668E+03  0.85305185168E+02 0.  0.
         13    1    3    3    0    0 -0.37412397932E+02 -0.38976475866E+02  0.31270919986E+02  0.62423742492E+02  0.00000000000E+00 0.  1.
        -13    1    3    3    0    0 -0.24783369189E+03 -0.64019379769E+02  0.35879069930E+03  0.44073890880E+03  0.00000000000E+00 0. -1.
          2    1    6    6  502    0  0.92719848070E+01  0.18716543515E+02  0.11104873846E+02  0.23655801119E+02  0.00000000000E+00 0. -1.
          3    1    5    5  503    0  0.19049632176E+02 -0.32912895416E+02 -0.69126849566E+02  0.78896568377E+02  0.00000000000E+00 0. -1.
         -4    1    5    5    0  503  0.32760997710E+03 -0.27177157809E+03 -0.40789636239E+03  0.58954858172E+03  0.00000000000E+00 0.  1.
         -1    1    6    6    0  502 -0.70685504263E+02  0.38896378562E+03 -0.69236375383E+02  0.40135139556E+03  0.00000000000E+00 0.  1.
<mgrwt>
<rscale>  0 0.15900086E+04</rscale>
<asrwt>0</asrwt>
<pdfrwt beam="1">  1        2 0.11165553E+00 0.15900086E+04</pdfrwt>
<pdfrwt beam="2">  1       -2 0.13397755E+00 0.15900086E+04</pdfrwt>
<totfact> 0.15098727E+01</totfact>
</mgrwt>
</event>
<event>
12    1  0.1496989E-007  0.1737886E+04  0.7818608E-02  0.8740047E-01
          2   -1    0    0  501    0  0.00000000000E+00  0.00000000000E+00  0.29088518957E+04  0.29088518957E+04  0.00000000000E+00 0. -1.
         -2   -1    0    0    0  501 -0.00000000000E+00 -0.00000000000E+00 -0.25957379941E+03  0.25957379941E+03  0.00000000000E+00 0.  1.
         23    2    1    2    0    0  0.30338127080E+03 -0.79817301106E+02  0.19789279690E+04  0.20060818500E+04  0.98982248430E+02 0.  0.
        254    2    1    2    0    0 -0.30338127080E+03  0.79817301106E+02  0.67035012728E+03  0.11623438451E+04  0.89624936485E+03 0.  0.
        -24    2    4    4    0    0  0.71041947084E+02 -0.19331011062E+03  0.65608571807E+03  0.69188958787E+03  0.76465516619E+02 0.  0.
         24    2    4    4    0    0 -0.37442321789E+03  0.27312741172E+03  0.14264409215E+02  0.47045425720E+03  0.79576413741E+02 0.  0.
         13    1    3    3    0    0  0.15245983110E+03 -0.78666858228E+02  0.85280201627E+03  0.86988720742E+03  0.00000000000E+00 0.  1.
        -13    1    3    3    0    0  0.15092143970E+03 -0.11504428776E+01  0.11261259527E+04  0.11361946426E+04  0.00000000000E+00 0. -1.
          2    1    6    6  502    0 -0.13666934629E+03  0.13962123658E+03 -0.16383676928E+02  0.19606382835E+03  0.00000000000E+00 0. -1.
          1    1    5    5  503    0 -0.15611755830E+02 -0.48263465542E+02  0.15286980337E+03  0.16106602934E+03  0.00000000000E+00 0. -1.
         -2    1    5    5    0  503  0.86653702915E+02 -0.14504664508E+03  0.50321591470E+03  0.53082355852E+03  0.00000000000E+00 0.  1.
         -1    1    6    6    0  502 -0.23775387160E+03  0.13350617515E+03  0.30648086143E+02  0.27439042885E+03  0.00000000000E+00 0.  1.
<mgrwt>
<rscale>  0 0.17378858E+04</rscale>
<asrwt>0</asrwt>
<pdfrwt beam="1">  1        2 0.44751565E+00 0.17378858E+04</pdfrwt>
<pdfrwt beam="2">  1       -2 0.39934433E-01 0.17378858E+04</pdfrwt>
<totfact> 0.11210339E+01</totfact>
</mgrwt>
</event>
<event>
12    1  0.1496989E-007  0.1314252E+04  0.7818608E-02  0.9018339E-01
         -2   -1    0    0    0  501 -0.00000000000E+00  0.00000000000E+00  0.29024092155E+03  0.29024092155E+03  0.00000000000E+00 0.  1.
          2   -1    0    0  501    0  0.00000000000E+00 -0.00000000000E+00 -0.14877804141E+04  0.14877804141E+04  0.00000000000E+00 0. -1.
         23    2    1    2    0    0  0.31990584016E+03  0.20218616476E+02 -0.42092642937E+03  0.53721004193E+03  0.93096891416E+02 0.  0.
        254    2    1    2    0    0 -0.31990584016E+03 -0.20218616476E+02 -0.77661306320E+03  0.12408112937E+04  0.91309160422E+03 0.  0.
        -24    2    4    4    0    0 -0.38134773954E+03  0.17807290729E+03  0.58565384224E+01  0.42733810484E+03  0.73807167952E+02 0.  0.
         24    2    4    4    0    0  0.61441899376E+02 -0.19829152377E+03 -0.78246960163E+03  0.81347318890E+03  0.79908173478E+02 0.  0.
         11    1    3    3    0    0  0.10096516174E+03  0.69223117867E+00 -0.20785205218E+03  0.23107773295E+03  0.00000000000E+00 0. -1.
        -11    1    3    3    0    0  0.21894067842E+03  0.19526385297E+02 -0.21307437719E+03  0.30613230899E+03  0.00000000000E+00 0.  1.
          2    1    6    6  502    0  0.37144412918E+02 -0.47504933373E+02 -0.34199050199E+03  0.34726636687E+03  0.00000000000E+00 0. -1.
          1    1    5    5  503    0 -0.13269061525E+03  0.29915876190E+02  0.20305472655E+02  0.13752843794E+03  0.00000000000E+00 0. -1.
         -2    1    5    5    0  503 -0.24865712429E+03  0.14815703110E+03 -0.14448934233E+02  0.28980966690E+03  0.00000000000E+00 0.  1.
         -1    1    6    6    0  502  0.24297486459E+02 -0.15078659039E+03 -0.44047909964E+03  0.46620682203E+03  0.00000000000E+00 0.  1.
<mgrwt>
<rscale>  0 0.13142523E+04</rscale>
<asrwt>0</asrwt>
<pdfrwt beam="1">  1        2 0.22888929E+00 0.13142523E+04</pdfrwt>
<pdfrwt beam="2">  1       -2 0.44652450E-01 0.13142523E+04</pdfrwt>
<totfact> 0.60049654E+01</totfact>
</mgrwt>
</event>
<event>
12    1  0.1496989E-007  0.1377338E+04  0.7818608E-02  0.8970388E-01
          2   -1    0    0  501    0  0.00000000000E+00  0.00000000000E+00  0.64280532109E+03  0.64280532109E+03  0.00000000000E+00 0. -1.
         -2   -1    0    0    0  501 -0.00000000000E+00 -0.00000000000E+00 -0.73780473604E+03  0.73780473604E+03  0.00000000000E+00 0.  1.
         23    2    1    2    0    0  0.24850325763E+03  0.80074467183E+02 -0.29205495556E+03  0.40216540464E+03  0.90967721061E+02 0.  0.
        254    2    1    2    0    0 -0.24850325763E+03 -0.80074467183E+02  0.19705554061E+03  0.97844465249E+03  0.92214817820E+03 0.  0.
        -24    2    4    4    0    0 -0.54792114877E+03  0.13615652946E+03  0.52095354763E+02  0.57295554470E+03  0.82510268611E+02 0.  0.
         24    2    4    4    0    0  0.29941789114E+03 -0.21623099664E+03  0.14496018585E+03  0.40548910779E+03  0.83672239199E+02 0.  0.
         13    1    3    3    0    0  0.76966877871E+02 -0.16121263778E+02 -0.10069351211E+03  0.12776141364E+03  0.00000000000E+00 0. -1.
        -13    1    3    3    0    0  0.17153637976E+03  0.96195730961E+02 -0.19136144345E+03  0.27440399100E+03  0.00000000000E+00 0.  1.
          4    1    6    6  502    0  0.68396461453E+02 -0.43326543862E+02  0.70794370926E+02  0.10755049185E+03  0.00000000000E+00 0. -1.
          3    1    5    5  503    0 -0.24406591632E+03  0.88363616915E+02 -0.73480173807E+01  0.25967343658E+03  0.00000000000E+00 0. -1.
         -4    1    5    5    0  503 -0.30385523245E+03  0.47792912543E+02  0.59443372144E+02  0.31328210812E+03  0.00000000000E+00 0.  1.
         -3    1    6    6    0  502  0.23102142969E+03 -0.17290445278E+03  0.74165814920E+02  0.29793861594E+03  0.00000000000E+00 0.  1.
<mgrwt>
<rscale>  0 0.13773377E+04</rscale>
<asrwt>0</asrwt>
<pdfrwt beam="1">  1        2 0.98893126E-01 0.13773377E+04</pdfrwt>
<pdfrwt beam="2">  1       -2 0.11350842E+00 0.13773377E+04</pdfrwt>
<totfact> 0.27052293E+01</totfact>
</mgrwt>
</event>
<event>
12    1  0.1496989E-007  0.1473023E+04  0.7818608E-02  0.8902593E-01
          3   -1    0    0  501    0  0.00000000000E+00  0.00000000000E+00  0.86848658566E+03  0.86848658566E+03  0.00000000000E+00 0.  1.
         -3   -1    0    0    0  501 -0.00000000000E+00 -0.00000000000E+00 -0.62459156149E+03  0.62459156149E+03  0.00000000000E+00 0. -1.
         23    2    1    2    0    0  0.67602410443E+02 -0.36778949368E+03 -0.14770403762E+03  0.41217292031E+03  0.90723954685E+02 0.  0.
        254    2    1    2    0    0 -0.67602410443E+02  0.36778949368E+03  0.39159906178E+03  0.10809052268E+04  0.93550365400E+03 0.  0.
        -24    2    4    4    0    0  0.18285343009E+03  0.10688283772E+02  0.56935759656E+03  0.60324033656E+03  0.78620700718E+02 0.  0.
         24    2    4    4    0    0 -0.25045584054E+03  0.35710120990E+03 -0.17775853478E+03  0.47766489027E+03  0.79474829605E+02 0.  0.
         11    1    3    3    0    0  0.64727871468E+02 -0.15606017541E+03 -0.95538994681E+02  0.19409321266E+03  0.00000000000E+00 0. -1.
        -11    1    3    3    0    0  0.28745389754E+01 -0.21172931826E+03 -0.52165042939E+02  0.21807970766E+03  0.00000000000E+00 0.  1.
          2    1    6    6  502    0 -0.24791612347E+03  0.35426955524E+03 -0.18434756875E+03  0.47005674993E+03  0.00000000000E+00 0. -1.
          3    1    5    5  503    0  0.16417751134E+03  0.35471566533E+02  0.46735865881E+03  0.49662521405E+03  0.00000000000E+00 0. -1.
         -4    1    5    5    0  503  0.18675918753E+02 -0.24783282761E+02  0.10199893775E+03  0.10661512251E+03  0.00000000000E+00 0.  1.
         -1    1    6    6    0  502 -0.25397170622E+01  0.28316546661E+01  0.65890339706E+01  0.76081403490E+01  0.00000000000E+00 0.  1.
<mgrwt>
<rscale>  0 0.14730233E+04</rscale>
<asrwt>0</asrwt>
<pdfrwt beam="1">  1        3 0.13361332E+00 0.14730233E+04</pdfrwt>
<pdfrwt beam="2">  1       -3 0.96091009E-01 0.14730233E+04</pdfrwt>
<totfact> 0.10564330E+00</totfact>
</mgrwt>
</event>
<event>
12    1  0.1496989E-007  0.3718867E+04  0.7818608E-02  0.8063793E-01
          1   -1    0    0  501    0  0.00000000000E+00  0.00000000000E+00  0.18569050620E+04  0.18569050620E+04  0.00000000000E+00 0. -1.
         -1   -1    0    0    0  501 -0.00000000000E+00 -0.00000000000E+00 -0.18619657668E+04  0.18619657668E+04  0.00000000000E+00 0.  1.
         23    2    1    2    0    0 -0.10963826012E+04  0.30121719042E+03 -0.13324321214E+04  0.17538665990E+04  0.88803631117E+02 0.  0.
        254    2    1    2    0    0  0.10963826012E+04 -0.30121719042E+03  0.13273714165E+04  0.19650042299E+04  0.89807579968E+03 0.  0.
        -24    2    4    4    0    0  0.70250915218E+03  0.19742067903E+03  0.10141111958E+04  0.12519607475E+04  0.80561544195E+02 0.  0.
         24    2    4    4    0    0  0.39387344905E+03 -0.49863786945E+03  0.31326022073E+03  0.71304348240E+03  0.80765235006E+02 0.  0.
         11    1    3    3    0    0 -0.91537230099E+02  0.50692877878E+02 -0.13264751118E+03  0.16895027252E+03  0.00000000000E+00 0. -1.
        -11    1    3    3    0    0 -0.10048453711E+04  0.25052431254E+03 -0.11997846102E+04  0.15849163265E+04  0.00000000000E+00 0.  1.
          4    1    6    6  502    0  0.61549133997E+02 -0.44368646405E+02  0.55346884264E+02  0.93915655124E+02  0.00000000000E+00 0. -1.
          1    1    5    5  503    0  0.29492393639E+03  0.97254934347E+02  0.36836280946E+03  0.48179851588E+03  0.00000000000E+00 0. -1.
         -2    1    5    5    0  503  0.40758521579E+03  0.10016574468E+03  0.64574838632E+03  0.77016223159E+03  0.00000000000E+00 0.  1.
         -3    1    6    6    0  502  0.33232431506E+03 -0.45426922304E+03  0.25791333646E+03  0.61912782728E+03  0.00000000000E+00 0.  1.
<mgrwt>
<rscale>  0 0.37188674E+04</rscale>
<asrwt>0</asrwt>
<pdfrwt beam="1">  1        1 0.28567770E+00 0.37188674E+04</pdfrwt>
<pdfrwt beam="2">  1       -1 0.28645627E+00 0.37188674E+04</pdfrwt>
<totfact> 0.12067907E-01</totfact>
</mgrwt>
</event>
<event>
12    1  0.1496989E-007  0.1536098E+04  0.7818608E-02  0.8860797E-01
          1   -1    0    0  501    0  0.00000000000E+00  0.00000000000E+00  0.11434038411E+04  0.11434038411E+04  0.00000000000E+00 0. -1.
         -1   -1    0    0    0  501 -0.00000000000E+00 -0.00000000000E+00 -0.51591495900E+03  0.51591495900E+03  0.00000000000E+00 0.  1.
         23    2    1    2    0    0  0.44917734699E+03 -0.21588997657E+03  0.20368492808E+03  0.54617754303E+03  0.91943393191E+02 0.  0.
        254    2    1    2    0    0 -0.44917734699E+03  0.21588997657E+03  0.42380395398E+03  0.11131412570E+04  0.90061362173E+03 0.  0.
        -24    2    4    4    0    0 -0.18903901412E+03  0.33751927555E+03 -0.18455587673E+03  0.43580766928E+03  0.78819050605E+02 0.  0.
         24    2    4    4    0    0 -0.26013833287E+03 -0.12162929898E+03  0.60835983071E+03  0.67733358774E+03  0.78825547024E+02 0.  0.
         13    1    3    3    0    0  0.17526773910E+03 -0.65899114302E+02  0.32494506801E+02  0.19004569610E+03  0.00000000000E+00 0.  1.
        -13    1    3    3    0    0  0.27390960789E+03 -0.14999086227E+03  0.17119042128E+03  0.35613184693E+03  0.00000000000E+00 0. -1.
          2    1    6    6  502    0 -0.22133823779E+03 -0.76882323026E+02  0.52660310146E+03  0.57637863733E+03  0.00000000000E+00 0. -1.
          1    1    5    5  503    0 -0.15073362620E+03  0.22701763923E+03 -0.95297548135E+02  0.28868539497E+03  0.00000000000E+00 0. -1.
         -2    1    5    5    0  503 -0.38305387915E+02  0.11050163632E+03 -0.89258328599E+02  0.14712227431E+03  0.00000000000E+00 0.  1.
         -3    1    6    6    0  502 -0.38800095081E+02 -0.44746975956E+02  0.81756729251E+02  0.10095495042E+03  0.00000000000E+00 0.  1.
<mgrwt>
<rscale>  0 0.15360978E+04</rscale>
<asrwt>0</asrwt>
<pdfrwt beam="1">  1        1 0.17590828E+00 0.15360978E+04</pdfrwt>
<pdfrwt beam="2">  1       -1 0.79371533E-01 0.15360978E+04</pdfrwt>
<totfact> 0.18002491E+01</totfact>
</mgrwt>
</event>
<event>
12    1  0.1496989E-007  0.1769373E+04  0.7818608E-02  0.8722758E-01
         -1   -1    0    0    0  501 -0.00000000000E+00  0.00000000000E+00  0.16762220638E+04  0.16762220638E+04  0.00000000000E+00 0.  1.
          1   -1    0    0  501    0  0.00000000000E+00 -0.00000000000E+00 -0.46692518313E+03  0.46692518313E+03  0.00000000000E+00 0. -1.
         23    2    1    2    0    0 -0.25358716389E+02  0.51977480267E+03 -0.24869049685E+02  0.52847311154E+03  0.88636617702E+02 0.  0.
        254    2    1    2    0    0  0.25358716389E+02 -0.51977480267E+03  0.12341659304E+04  0.16146741354E+04  0.90177497743E+03 0.  0.
        -24    2    4    4    0    0  0.73633468849E+02  0.51322360832E+01 -0.12019016461E+03  0.15951482397E+03  0.74505542170E+02 0.  0.
         24    2    4    4    0    0 -0.48274752460E+02 -0.52490703875E+03  0.13543560950E+04  0.14551593115E+04  0.73146009055E+02 0.  0.
         13    1    3    3    0    0 -0.53615651347E+02  0.39242620818E+03 -0.35115039383E+02  0.39762549330E+03  0.00000000000E+00 0. -1.
        -13    1    3    3    0    0  0.28256934958E+02  0.12734859449E+03  0.10245989698E+02  0.13084761823E+03  0.00000000000E+00 0.  1.
          2    1    6    6  502    0 -0.45790256670E+02 -0.52055013324E+03  0.13522736428E+04  0.14497286621E+04  0.00000000000E+00 0. -1.
          3    1    5    5  503    0  0.74351723976E+02  0.26656614603E+01 -0.12977651862E+03  0.14959020488E+03  0.00000000000E+00 0. -1.
         -4    1    5    5    0  503 -0.71825512704E+00  0.24665746229E+01  0.95863540133E+01  0.99246190892E+01  0.00000000000E+00 0.  1.
         -1    1    6    6    0  502 -0.24844957893E+01 -0.43569055106E+01  0.20824521971E+01  0.54306493266E+01  0.00000000000E+00 0.  1.
<mgrwt>
<rscale>  0 0.17693731E+04</rscale>
<asrwt>0</asrwt>
<pdfrwt beam="1">  1        1 0.71834644E-01 0.17693731E+04</pdfrwt>
<pdfrwt beam="2">  1       -1 0.25788031E+00 0.17693731E+04</pdfrwt>
<totfact> 0.28540876E+00</totfact>
</mgrwt>
</event>
<event>
12    1  0.1496989E-007  0.1311374E+04  0.7818608E-02  0.9020594E-01
         -2   -1    0    0    0  501 -0.00000000000E+00  0.00000000000E+00  0.17939727272E+03  0.17939727272E+03  0.00000000000E+00 0.  1.
          2   -1    0    0  501    0  0.00000000000E+00 -0.00000000000E+00 -0.23964990024E+04  0.23964990024E+04  0.00000000000E+00 0. -1.
         23    2    1    2    0    0 -0.17594225632E+03  0.21831907816E+03 -0.51034628385E+03  0.58936096211E+03  0.90962172243E+02 0.  0.
        254    2    1    2    0    0  0.17594225632E+03 -0.21831907816E+03 -0.17067554459E+04  0.19865353131E+04  0.97708213603E+03 0.  0.
        -24    2    4    4    0    0  0.19215581636E+03  0.34035646952E+03 -0.40878963219E+03  0.57120876125E+03  0.80025629868E+02 0.  0.
         24    2    4    4    0    0 -0.16213560041E+02 -0.55867554767E+03 -0.12979658137E+04  0.14153265518E+04  0.77799406551E+02 0.  0.
         11    1    3    3    0    0 -0.91552317187E+02  0.84657314910E+02 -0.14473857772E+03  0.19104434991E+03  0.00000000000E+00 0. -1.
        -11    1    3    3    0    0 -0.84389939132E+02  0.13366176325E+03 -0.36560770613E+03  0.39831661221E+03  0.00000000000E+00 0.  1.
          4    1    6    6  502    0  0.14154584793E+02 -0.80145623615E+02 -0.24905099840E+03  0.26201158955E+03  0.00000000000E+00 0. -1.
          1    1    5    5  503    0  0.11557985975E+03  0.15451967283E+03 -0.24540829120E+03  0.31218626277E+03  0.00000000000E+00 0. -1.
         -2    1    5    5    0  503  0.76575956607E+02  0.18583679669E+03 -0.16338134099E+03  0.25902249848E+03  0.00000000000E+00 0.  1.
         -3    1    6    6    0  502 -0.30368144834E+02 -0.47852992406E+03 -0.10489148153E+04  0.11533149623E+04  0.00000000000E+00 0.  1.
<mgrwt>
<rscale>  0 0.13113739E+04</rscale>
<asrwt>0</asrwt>
<pdfrwt beam="1">  1        2 0.36869212E+00 0.13113739E+04</pdfrwt>
<pdfrwt beam="2">  1       -2 0.27599583E-01 0.13113739E+04</pdfrwt>
<totfact> 0.46997739E+01</totfact>
</mgrwt>
</event>
<event>
12    1  0.1496989E-007  0.1514739E+04  0.7818608E-02  0.8874711E-01
         -2   -1    0    0    0  501 -0.00000000000E+00  0.00000000000E+00  0.44544337524E+03  0.44544337524E+03  0.00000000000E+00 0.  1.
          2   -1    0    0  501    0  0.00000000000E+00 -0.00000000000E+00 -0.12877245871E+04  0.12877245871E+04  0.00000000000E+00 0. -1.
         23    2    1    2    0    0  0.32211853563E+03  0.15986314528E+03 -0.74033378370E+03  0.82799977207E+03  0.90404286698E+02 0.  0.
        254    2    1    2    0    0 -0.32211853563E+03 -0.15986314528E+03 -0.10194742815E+03  0.90516819026E+03  0.82439044047E+03 0.  0.
        -24    2    4    4    0    0  0.13118236510E+03 -0.33366921174E+03 -0.17783295061E+03  0.40769898416E+03  0.77781408977E+02 0.  0.
         24    2    4    4    0    0 -0.45330090073E+03  0.17380606646E+03  0.75885522453E+02  0.49746920610E+03  0.77632101362E+02 0.  0.
         11    1    3    3    0    0  0.18857697566E+03  0.65404559013E+02 -0.32225102351E+03  0.37905771888E+03  0.00000000000E+00 0.  1.
        -11    1    3    3    0    0  0.13354155997E+03  0.94458586269E+02 -0.41808276019E+03  0.44894205320E+03  0.00000000000E+00 0. -1.
          2    1    6    6  502    0 -0.61461200374E+02  0.37084177734E+02 -0.13255832914E+02  0.72996112882E+02  0.00000000000E+00 0. -1.
          1    1    5    5  503    0  0.58811336908E+01 -0.20249721547E+02 -0.35686428399E+02  0.41450695146E+02  0.00000000000E+00 0. -1.
         -2    1    5    5    0  503  0.12530123141E+03 -0.31341949019E+03 -0.14214652221E+03  0.36624828901E+03  0.00000000000E+00 0.  1.
         -1    1    6    6    0  502 -0.39183970035E+03  0.13672188872E+03  0.89141355367E+02  0.42447309322E+03  0.00000000000E+00 0.  1.
<mgrwt>
<rscale>  0 0.15147388E+04</rscale>
<asrwt>0</asrwt>
<pdfrwt beam="1">  1        2 0.19811147E+00 0.15147388E+04</pdfrwt>
<pdfrwt beam="2">  1       -2 0.68529752E-01 0.15147388E+04</pdfrwt>
<totfact> 0.31583018E+01</totfact>
</mgrwt>
</event>
<event>
12    1  0.1496989E-007  0.1102049E+04  0.7818608E-02  0.9203198E-01
          2   -1    0    0  501    0  0.00000000000E+00  0.00000000000E+00  0.29419821274E+03  0.29419821274E+03  0.00000000000E+00 0. -1.
         -2   -1    0    0    0  501 -0.00000000000E+00 -0.00000000000E+00 -0.10320516290E+04  0.10320516290E+04  0.00000000000E+00 0.  1.
         23    2    1    2    0    0 -0.12826407924E+03 -0.13461851710E+03 -0.28202224877E+03  0.35024919892E+03  0.92542603011E+02 0.  0.
        254    2    1    2    0    0  0.12826407924E+03  0.13461851710E+03 -0.45583116754E+03  0.97600064287E+03  0.84274633337E+03 0.  0.
        -24    2    4    4    0    0  0.43813742663E+03  0.25485464885E+03 -0.20683653458E+03  0.55325481346E+03  0.79963991391E+02 0.  0.
         24    2    4    4    0    0 -0.30987334739E+03 -0.12023613175E+03 -0.24899463296E+03  0.42274582941E+03  0.78977783238E+02 0.  0.
         13    1    3    3    0    0 -0.79383269613E+02 -0.73841826003E+02 -0.23594203870E+03  0.25965932370E+03  0.00000000000E+00 0.  1.
        -13    1    3    3    0    0 -0.48880809631E+02 -0.60776691100E+02 -0.46080210069E+02  0.90589875214E+02  0.00000000000E+00 0. -1.
          2    1    6    6  502    0 -0.31315245123E+02 -0.11781579901E+02 -0.61130663296E+02  0.69687934372E+02  0.00000000000E+00 0. -1.
          1    1    5    5  503    0  0.36248162076E+02 -0.13514389023E+01 -0.10246339042E+02  0.37692746050E+02  0.00000000000E+00 0. -1.
         -2    1    5    5    0  503  0.40188926455E+03  0.25620608775E+03 -0.19659019554E+03  0.51556206741E+03  0.00000000000E+00 0.  1.
         -1    1    6    6    0  502 -0.27855810226E+03 -0.10845455185E+03 -0.18786396966E+03  0.35305789504E+03  0.00000000000E+00 0.  1.
<mgrwt>
<rscale>  0 0.11020485E+04</rscale>
<asrwt>0</asrwt>
<pdfrwt beam="1">  1        2 0.45261265E-01 0.11020485E+04</pdfrwt>
<pdfrwt beam="2">  1       -2 0.15877717E+00 0.11020485E+04</pdfrwt>
<totfact> 0.28619694E+01</totfact>
</mgrwt>
</event>
<event>
12    1  0.1496989E-007  0.1881386E+04  0.7818608E-02  0.8664178E-01
          2   -1    0    0  501    0  0.00000000000E+00  0.00000000000E+00  0.17422631450E+04  0.17422631450E+04  0.00000000000E+00 0.  1.
         -2   -1    0    0    0  501 -0.00000000000E+00 -0.00000000000E+00 -0.50790437940E+03  0.50790437940E+03  0.00000000000E+00 0. -1.
         23    2    1    2    0    0  0.63106147559E+03 -0.10964222332E+03  0.84850433186E+03  0.10669572906E+04  0.90433708851E+02 0.  0.
        254    2    1    2    0    0 -0.63106147559E+03  0.10964222332E+03  0.38585443371E+03  0.11832102338E+04  0.91697481436E+03 0.  0.
        -24    2    4    4    0    0 -0.75429812825E+02  0.42252454309E+03  0.52013737550E+01  0.43635574196E+03  0.78502439920E+02 0.  0.
         24    2    4    4    0    0 -0.55563166277E+03 -0.31288231978E+03  0.38065305996E+03  0.74685449181E+03  0.79202204412E+02 0.  0.
         11    1    3    3    0    0  0.62315142652E+03 -0.97136077256E+02  0.81660675449E+03  0.10317944124E+04  0.00000000000E+00 0. -1.
        -11    1    3    3    0    0  0.79100490710E+01 -0.12506146060E+02  0.31897577372E+02  0.35162878263E+02  0.00000000000E+00 0.  1.
          2    1    6    6  502    0 -0.29352062367E+03 -0.19250756345E+03  0.17219237789E+03  0.39097791946E+03  0.00000000000E+00 0. -1.
          1    1    5    5  503    0 -0.38865884823E+01  0.21887145869E+03  0.21078594999E+02  0.21991845799E+03  0.00000000000E+00 0. -1.
         -2    1    5    5    0  503 -0.71543224343E+02  0.20365308440E+03 -0.15877221244E+02  0.21643728397E+03  0.00000000000E+00 0.  1.
         -1    1    6    6    0  502 -0.26211103909E+03 -0.12037475633E+03  0.20846068207E+03  0.35587657234E+03  0.00000000000E+00 0.  1.
<mgrwt>
<rscale>  0 0.18813857E+04</rscale>
<asrwt>0</asrwt>
<pdfrwt beam="1">  1        2 0.26804048E+00 0.18813857E+04</pdfrwt>
<pdfrwt beam="2">  1       -2 0.78139136E-01 0.18813857E+04</pdfrwt>
<totfact> 0.12697609E+01</totfact>
</mgrwt>
</event>
<event>
12    1  0.1496989E-007  0.2043007E+04  0.7818608E-02  0.8586774E-01
          2   -1    0    0  501    0  0.00000000000E+00  0.00000000000E+00  0.23685489619E+04  0.23685489619E+04  0.00000000000E+00 0. -1.
         -2   -1    0    0    0  501 -0.00000000000E+00 -0.00000000000E+00 -0.44055197539E+03  0.44055197539E+03  0.00000000000E+00 0.  1.
         23    2    1    2    0    0 -0.49940804985E+03  0.16275177394E+03  0.16442559442E+04  0.17285390220E+04  0.91504100471E+02 0.  0.
        254    2    1    2    0    0  0.49940804985E+03 -0.16275177394E+03  0.28374104230E+03  0.10805619153E+04  0.90067115723E+03 0.  0.
        -24    2    4    4    0    0  0.69302209642E+03 -0.52706560771E+02  0.41163322942E+03  0.81152443575E+03  0.77925519499E+02 0.  0.
         24    2    4    4    0    0 -0.19361404657E+03 -0.11004521317E+03 -0.12789218712E+03  0.26903747952E+03  0.80177340240E+02 0.  0.
         13    1    3    3    0    0 -0.24713253516E+03  0.82427383961E+02  0.66748029328E+03  0.71651846137E+03  0.00000000000E+00 0. -1.
        -13    1    3    3    0    0 -0.25227551469E+03  0.80324389983E+02  0.97677565095E+03  0.10120205607E+04  0.00000000000E+00 0.  1.
          4    1    6    6  502    0  0.33294127595E+01 -0.29834050455E+01 -0.19570362725E+02  0.20074481118E+02  0.00000000000E+00 0. -1.
          3    1    5    5  503    0  0.89156310401E+02 -0.18392258337E+02  0.82893282787E+02  0.12311953209E+03  0.00000000000E+00 0. -1.
         -4    1    5    5    0  503  0.60386578602E+03 -0.34314302434E+02  0.32873994663E+03  0.68840490366E+03  0.00000000000E+00 0.  1.
         -3    1    6    6    0  502 -0.19694345933E+03 -0.10706180813E+03 -0.10832182439E+03  0.24896299840E+03  0.00000000000E+00 0.  1.
<mgrwt>
<rscale>  0 0.20430065E+04</rscale>
<asrwt>0</asrwt>
<pdfrwt beam="1">  1        2 0.36439214E+00 0.20430065E+04</pdfrwt>
<pdfrwt beam="2">  1       -2 0.67777229E-01 0.20430065E+04</pdfrwt>
<totfact> 0.76526304E+00</totfact>
</mgrwt>
</event>
<event>
12    1  0.1496989E-007  0.3159381E+04  0.7818608E-02  0.8199628E-01
         -2   -1    0    0    0  501 -0.00000000000E+00  0.00000000000E+00  0.24732291987E+04  0.24732291987E+04  0.00000000000E+00 0.  1.
          2   -1    0    0  501    0  0.00000000000E+00 -0.00000000000E+00 -0.10089732729E+04  0.10089732729E+04  0.00000000000E+00 0. -1.
         23    2    1    2    0    0  0.93219560976E+03 -0.88138289958E+03  0.13951397400E+04  0.18973222567E+04  0.87134270000E+02 0.  0.
        254    2    1    2    0    0 -0.93219560976E+03  0.88138289958E+03  0.69116185878E+02  0.15848802150E+04  0.92803220747E+03 0.  0.
        -24    2    4    4    0    0  0.16333746969E+03  0.24538108927E+03  0.81233769726E+02  0.31570206608E+03  0.78599371522E+02 0.  0.
         24    2    4    4    0    0 -0.10955330795E+04  0.63600181031E+03 -0.12117583848E+02  0.12691781489E+04  0.77300109156E+02 0.  0.
         13    1    3    3    0    0  0.81132796012E+03 -0.75479147925E+03  0.11605139636E+04  0.16046045917E+04  0.00000000000E+00 0.  1.
        -13    1    3    3    0    0  0.12086764965E+03 -0.12659142033E+03  0.23462577640E+03  0.29271766497E+03  0.00000000000E+00 0. -1.
          2    1    6    6  502    0 -0.21923660389E+03  0.10499813549E+03  0.21233723503E+02  0.24400854074E+03  0.00000000000E+00 0. -1.
          1    1    5    5  503    0  0.77297274766E+01  0.40178807066E+02  0.35444082302E+02  0.54132875356E+02  0.00000000000E+00 0. -1.
         -2    1    5    5    0  503  0.15560774221E+03  0.20520228221E+03  0.45789687424E+02  0.26156919072E+03  0.00000000000E+00 0.  1.
         -1    1    6    6    0  502 -0.87629647557E+03  0.53100367482E+03 -0.33351307351E+02  0.10251696081E+04  0.00000000000E+00 0.  1.
<mgrwt>
<rscale>  0 0.31593811E+04</rscale>
<asrwt>0</asrwt>
<pdfrwt beam="1">  1        2 0.15522666E+00 0.31593811E+04</pdfrwt>
<pdfrwt beam="2">  1       -2 0.38049680E+00 0.31593811E+04</pdfrwt>
<totfact> 0.20858099E-01</totfact>
</mgrwt>
</event>
<event>
12    1  0.1496989E-007  0.1471826E+04  0.7818608E-02  0.8903408E-01
         -1   -1    0    0    0  501 -0.00000000000E+00  0.00000000000E+00  0.69963298840E+03  0.69963298840E+03  0.00000000000E+00 0.  1.
          1   -1    0    0  501    0  0.00000000000E+00 -0.00000000000E+00 -0.77407403541E+03  0.77407403541E+03  0.00000000000E+00 0. -1.
         23    2    1    2    0    0  0.23585333897E+00  0.44976036471E+03  0.26987443373E+02  0.45947497277E+03  0.90024925506E+02 0.  0.
        254    2    1    2    0    0 -0.23585333897E+00 -0.44976036471E+03 -0.10142849038E+03  0.10142320510E+04  0.90337947364E+03 0.  0.
        -24    2    4    4    0    0  0.32056268283E+03 -0.23641320406E+03  0.25795023571E+03  0.48134095723E+03  0.80617345098E+02 0.  0.
         24    2    4    4    0    0 -0.32079853617E+03 -0.21334716065E+03 -0.35937872609E+03  0.53289109380E+03  0.79944589105E+02 0.  0.
         11    1    3    3    0    0  0.83139310577E+01  0.62863948839E+02  0.34964330202E+02  0.72412028695E+02  0.00000000000E+00 0.  1.
        -11    1    3    3    0    0 -0.80780777187E+01  0.38689641587E+03 -0.79768868283E+01  0.38706294408E+03  0.00000000000E+00 0. -1.
          4    1    6    6  502    0 -0.30788130163E+03 -0.20433753296E+03 -0.31418841082E+03  0.48503513353E+03  0.00000000000E+00 0. -1.
          1    1    5    5  503    0  0.27972235595E+03 -0.23514540264E+03  0.22876106378E+03  0.43112594576E+03  0.00000000000E+00 0. -1.
         -2    1    5    5    0  503  0.40840326878E+02 -0.12678014235E+01  0.29189171925E+02  0.50215011477E+02  0.00000000000E+00 0.  1.
         -3    1    6    6    0  502 -0.12917234538E+02 -0.90096276892E+01 -0.45190315273E+02  0.47855960273E+02  0.00000000000E+00 0.  1.
<mgrwt>
<rscale>  0 0.14718257E+04</rscale>
<asrwt>0</asrwt>
<pdfrwt beam="1">  1        1 0.11908831E+00 0.14718257E+04</pdfrwt>
<pdfrwt beam="2">  1       -1 0.10763585E+00 0.14718257E+04</pdfrwt>
<totfact> 0.18157566E+01</totfact>
</mgrwt>
</event>
<event>
12    1  0.1496989E-007  0.1442653E+04  0.7818608E-02  0.8923510E-01
          2   -1    0    0  501    0  0.00000000000E+00  0.00000000000E+00  0.11016607616E+04  0.11016607616E+04  0.00000000000E+00 0. -1.
         -2   -1    0    0    0  501 -0.00000000000E+00 -0.00000000000E+00 -0.47229796622E+03  0.47229796622E+03  0.00000000000E+00 0.  1.
         23    2    1    2    0    0  0.36694873174E+03  0.46933311762E+02 -0.55824780102E+02  0.38530491748E+03  0.92137754918E+02 0.  0.
        254    2    1    2    0    0 -0.36694873174E+03 -0.46933311762E+02  0.68518757546E+03  0.11886538103E+04  0.89808783521E+03 0.  0.
        -24    2    4    4    0    0 -0.44597870323E+03  0.32104233727E+03  0.54633338077E+03  0.77897147750E+03  0.79694502684E+02 0.  0.
         24    2    4    4    0    0  0.79029971488E+02 -0.36797564903E+03  0.13885419470E+03  0.40968233283E+03  0.83110238717E+02 0.  0.
         13    1    3    3    0    0  0.16786330281E+03 -0.91697117372E-01  0.15703448993E+02  0.16859624892E+03  0.00000000000E+00 0. -1.
        -13    1    3    3    0    0  0.19908542893E+03  0.47025008880E+02 -0.71528229094E+02  0.21670866856E+03  0.00000000000E+00 0.  1.
          4    1    6    6  502    0  0.86318659573E+02 -0.36370950097E+03  0.14305452725E+03  0.40025005915E+03  0.00000000000E+00 0. -1.
          1    1    5    5  503    0 -0.23771770406E+03  0.12224546146E+03  0.26788200009E+03  0.37843681856E+03  0.00000000000E+00 0. -1.
         -2    1    5    5    0  503 -0.20826099917E+03  0.19879687581E+03  0.27845138067E+03  0.40053465893E+03  0.00000000000E+00 0.  1.
         -3    1    6    6    0  502 -0.72886880852E+01 -0.42661480599E+01 -0.42003325499E+01  0.94322736815E+01  0.00000000000E+00 0.  1.
<mgrwt>
<rscale>  0 0.14426533E+04</rscale>
<asrwt>0</asrwt>
<pdfrwt beam="1">  1        2 0.16948627E+00 0.14426533E+04</pdfrwt>
<pdfrwt beam="2">  1       -2 0.72661226E-01 0.14426533E+04</pdfrwt>
<totfact> 0.36125940E+01</totfact>
</mgrwt>
</event>
<event>
12    1  0.1496989E-007  0.1581425E+04  0.7818608E-02  0.8832042E-01
         -2   -1    0    0    0  501 -0.00000000000E+00  0.00000000000E+00  0.24231270846E+03  0.24231270846E+03  0.00000000000E+00 0.  1.
          2   -1    0    0  501    0  0.00000000000E+00 -0.00000000000E+00 -0.25802438993E+04  0.25802438993E+04  0.00000000000E+00 0. -1.
         23    2    1    2    0    0 -0.46472940593E+03 -0.24338955617E+03 -0.63159442839E+03  0.82610141570E+03  0.91214748028E+02 0.  0.
        254    2    1    2    0    0  0.46472940593E+03  0.24338955617E+03 -0.17063367625E+04  0.19964551921E+04  0.89388829854E+03 0.  0.
        -24    2    4    4    0    0  0.26067963854E+03 -0.21467898423E+03 -0.18737879067E+03  0.39484645796E+03  0.82170395789E+02 0.  0.
         24    2    4    4    0    0  0.20404976738E+03  0.45806854040E+03 -0.15189579718E+04  0.16016087341E+04  0.80337549629E+02 0.  0.
         13    1    3    3    0    0 -0.13082023464E+03 -0.10789195600E+03 -0.24089803221E+03  0.29459543425E+03  0.00000000000E+00 0. -1.
        -13    1    3    3    0    0 -0.33390917129E+03 -0.13549760017E+03 -0.39069639619E+03  0.53150598145E+03  0.00000000000E+00 0.  1.
          2    1    6    6  502    0  0.67242279404E+02  0.98321514125E+02 -0.28110838793E+03  0.30530406163E+03  0.00000000000E+00 0. -1.
          3    1    5    5  503    0  0.83518343696E+01 -0.23849345400E+02 -0.36381475078E+02  0.44296231693E+02  0.00000000000E+00 0. -1.
         -4    1    5    5    0  503  0.25232780418E+03 -0.19082963883E+03 -0.15099731559E+03  0.35055022626E+03  0.00000000000E+00 0.  1.
         -1    1    6    6    0  502  0.13680748798E+03  0.35974702628E+03 -0.12378495838E+04  0.12963046725E+04  0.00000000000E+00 0.  1.
<mgrwt>
<rscale>  0 0.15814245E+04</rscale>
<asrwt>0</asrwt>
<pdfrwt beam="1">  1        2 0.39696059E+00 0.15814245E+04</pdfrwt>
<pdfrwt beam="2">  1       -2 0.37278879E-01 0.15814245E+04</pdfrwt>
<totfact> 0.20419417E+01</totfact>
</mgrwt>
</event>
<event>
12    1  0.1496989E-007  0.1511916E+04  0.7818608E-02  0.8876568E-01
         -1   -1    0    0    0  501 -0.00000000000E+00  0.00000000000E+00  0.60195215930E+03  0.60195215930E+03  0.00000000000E+00 0.  1.
          1   -1    0    0  501    0  0.00000000000E+00 -0.00000000000E+00 -0.94936492779E+03  0.94936492779E+03  0.00000000000E+00 0. -1.
         23    2    1    2    0    0  0.29352219424E+03  0.29170504879E+03  0.15127841558E+03  0.44978110985E+03  0.90392332388E+02 0.  0.
        254    2    1    2    0    0 -0.29352219424E+03 -0.29170504879E+03 -0.49869118407E+03  0.11015359772E+04  0.89075333179E+03 0.  0.
        -24    2    4    4    0    0  0.29076252096E+03  0.40423086466E+02 -0.16735391132E+03  0.34734960757E+03  0.80421071421E+02 0.  0.
         24    2    4    4    0    0 -0.58428471520E+03 -0.33212813526E+03 -0.33133727275E+03  0.75418636968E+03  0.85527570054E+02 0.  0.
         13    1    3    3    0    0  0.28986691006E+03  0.29024964411E+03  0.13321368367E+03  0.43129290160E+03  0.00000000000E+00 0.  1.
        -13    1    3    3    0    0  0.36552841837E+01  0.14554046795E+01  0.18064731912E+02  0.18488208250E+02  0.00000000000E+00 0. -1.
          4    1    6    6  502    0 -0.30501215522E+03 -0.12573504411E+03 -0.17320187263E+03  0.37261321076E+03  0.00000000000E+00 0. -1.
          3    1    5    5  503    0  0.10010083449E+03 -0.20933080735E+02 -0.38944000914E+02  0.10943037120E+03  0.00000000000E+00 0. -1.
         -4    1    5    5    0  503  0.19066168647E+03  0.61356167202E+02 -0.12840991040E+03  0.23791923636E+03  0.00000000000E+00 0.  1.
         -3    1    6    6    0  502 -0.27927255998E+03 -0.20639309115E+03 -0.15813540012E+03  0.38157315892E+03  0.00000000000E+00 0.  1.
<mgrwt>
<rscale>  0 0.15119157E+04</rscale>
<asrwt>0</asrwt>
<pdfrwt beam="1">  1        1 0.14605614E+00 0.15119157E+04</pdfrwt>
<pdfrwt beam="2">  1       -1 0.92608024E-01 0.15119157E+04</pdfrwt>
<totfact> 0.18186312E+01</totfact>
</mgrwt>
</event>
<event>
12    1  0.1496989E-007  0.2691873E+04  0.7818608E-02  0.8337647E-01
         -2   -1    0    0    0  501 -0.00000000000E+00  0.00000000000E+00  0.66045036334E+03  0.66045036334E+03  0.00000000000E+00 0.  1.
          2   -1    0    0  501    0  0.00000000000E+00 -0.00000000000E+00 -0.27428935601E+04  0.27428935601E+04  0.00000000000E+00 0. -1.
         23    2    1    2    0    0  0.96722067347E+03  0.69703668735E+03 -0.83396717449E+03  0.14579588173E+04  0.93630605223E+02 0.  0.
        254    2    1    2    0    0 -0.96722067347E+03 -0.69703668735E+03 -0.12484760223E+04  0.19453851061E+04  0.89691407509E+03 0.  0.
        -24    2    4    4    0    0 -0.33820670600E+03 -0.12266815716E+03 -0.98306402921E+03  0.10497113690E+04  0.77767730309E+02 0.  0.
         24    2    4    4    0    0 -0.62901396747E+03 -0.57436853019E+03 -0.26541199304E+03  0.89567373709E+03  0.78931220162E+02 0.  0.
         13    1    3    3    0    0  0.11300858191E+03  0.88309592792E+02 -0.13884249308E+03  0.19961653651E+03  0.00000000000E+00 0.  1.
        -13    1    3    3    0    0  0.85421209156E+03  0.60872709456E+03 -0.69512468141E+03  0.12583422808E+04  0.00000000000E+00 0. -1.
          4    1    6    6  502    0 -0.33421562869E+03 -0.35391944892E+03 -0.13515791164E+03  0.50519968712E+03  0.00000000000E+00 0. -1.
          3    1    5    5  503    0 -0.19057997553E+03 -0.84439928076E+02 -0.46319228155E+03  0.50793495471E+03  0.00000000000E+00 0. -1.
         -4    1    5    5    0  503 -0.14762673047E+03 -0.38228229085E+02 -0.51987174766E+03  0.54177641428E+03  0.00000000000E+00 0.  1.
         -3    1    6    6    0  502 -0.29479833877E+03 -0.22044908127E+03 -0.13025408140E+03  0.39047404997E+03  0.00000000000E+00 0.  1.
<mgrwt>
<rscale>  0 0.26918730E+04</rscale>
<asrwt>0</asrwt>
<pdfrwt beam="1">  1        2 0.42198363E+00 0.26918730E+04</pdfrwt>
<pdfrwt beam="2">  1       -2 0.10160775E+00 0.26918730E+04</pdfrwt>
<totfact> 0.17469637E+00</totfact>
</mgrwt>
</event>
<event>
12    1  0.1496989E-007  0.1823227E+04  0.7818608E-02  0.8694044E-01
         -1   -1    0    0    0  501 -0.00000000000E+00  0.00000000000E+00  0.46106442382E+03  0.46106442382E+03  0.00000000000E+00 0.  1.
          1   -1    0    0  501    0  0.00000000000E+00 -0.00000000000E+00 -0.18024356805E+04  0.18024356805E+04  0.00000000000E+00 0. -1.
         23    2    1    2    0    0 -0.25034243155E+03 -0.36394312850E+03  0.16053164825E+03  0.47869492446E+03  0.90843198941E+02 0.  0.
        254    2    1    2    0    0  0.25034243155E+03  0.36394312850E+03 -0.15019029049E+04  0.17848051798E+04  0.85714133044E+03 0.  0.
        -24    2    4    4    0    0  0.83386422170E+02  0.32524507076E+03 -0.15516883487E+04  0.15895199904E+04  0.78098764142E+02 0.  0.
         24    2    4    4    0    0  0.16695600938E+03  0.38698057746E+02  0.49785443763E+02  0.19528518945E+03  0.79283453923E+02 0.  0.
         13    1    3    3    0    0 -0.22253397740E+03 -0.35893280464E+03  0.14544662089E+03  0.44666413430E+03  0.00000000000E+00 0.  1.
        -13    1    3    3    0    0 -0.27808454153E+02 -0.50103238617E+01  0.15085027361E+02  0.32030790157E+02  0.00000000000E+00 0. -1.
          4    1    6    6  502    0  0.66278582036E+01 -0.55072287714E+01 -0.14594299634E+02  0.16948500078E+02  0.00000000000E+00 0. -1.
          3    1    5    5  503    0  0.20618632682E+01 -0.33819057422E+01 -0.49424771386E+02  0.49583228951E+02  0.00000000000E+00 0. -1.
         -4    1    5    5    0  503  0.81324558902E+02  0.32862697650E+03 -0.15022635773E+04  0.15399367614E+04  0.00000000000E+00 0.  1.
         -3    1    6    6    0  502  0.16032815118E+03  0.44205286518E+02  0.64379743397E+02  0.17833668937E+03  0.00000000000E+00 0.  1.
<mgrwt>
<rscale>  0 0.18232268E+04</rscale>
<asrwt>0</asrwt>
<pdfrwt beam="1">  1        1 0.27729780E+00 0.18232268E+04</pdfrwt>
<pdfrwt beam="2">  1       -1 0.70932988E-01 0.18232268E+04</pdfrwt>
<totfact> 0.76731398E+00</totfact>
</mgrwt>
</event>
<event>
12    1  0.1496989E-007  0.2193914E+04  0.7818608E-02  0.8520965E-01
          2   -1    0    0  501    0  0.00000000000E+00  0.00000000000E+00  0.33941732685E+04  0.33941732685E+04  0.00000000000E+00 0. -1.
         -2   -1    0    0    0  501 -0.00000000000E+00 -0.00000000000E+00 -0.35452377112E+03  0.35452377112E+03  0.00000000000E+00 0.  1.
         23    2    1    2    0    0  0.75736057750E+03 -0.33833779666E+03  0.19110366262E+04  0.20851417593E+04  0.87679305878E+02 0.  0.
        254    2    1    2    0    0 -0.75736057750E+03  0.33833779666E+03  0.11286128711E+04  0.16635552803E+04  0.89754200385E+03 0.  0.
        -24    2    4    4    0    0 -0.16131271976E+03  0.32511820571E+03 -0.14580220235E+02  0.37178435761E+03  0.79293029332E+02 0.  0.
         24    2    4    4    0    0 -0.59604785774E+03  0.13219590949E+02  0.11431930914E+04  0.12917709227E+04  0.79585590503E+02 0.  0.
         11    1    3    3    0    0  0.20307779725E+03 -0.61446243558E+02  0.55840939096E+03  0.59735858619E+03  0.00000000000E+00 0. -1.
        -11    1    3    3    0    0  0.55428278025E+03 -0.27689155310E+03  0.13526272352E+04  0.14877831731E+04  0.00000000000E+00 0.  1.
          2    1    6    6  502    0 -0.34302789280E+03  0.46892700725E+02  0.65370962602E+03  0.73973193508E+03  0.00000000000E+00 0. -1.
          3    1    5    5  503    0 -0.11410683175E+03  0.25759736161E+03 -0.42221616844E+02  0.28488494992E+03  0.00000000000E+00 0. -1.
         -4    1    5    5    0  503 -0.47205888009E+02  0.67520844100E+02  0.27641396609E+02  0.86899407692E+02  0.00000000000E+00 0.  1.
         -1    1    6    6    0  502 -0.25301996494E+03 -0.33673109776E+02  0.48948346535E+03  0.55203898760E+03  0.00000000000E+00 0.  1.
<mgrwt>
<rscale>  0 0.21939144E+04</rscale>
<asrwt>0</asrwt>
<pdfrwt beam="1">  1        2 0.52218048E+00 0.21939144E+04</pdfrwt>
<pdfrwt beam="2">  1       -2 0.54542121E-01 0.21939144E+04</pdfrwt>
<totfact> 0.27919197E+00</totfact>
</mgrwt>
</event>
<event>
12    1  0.1496989E-007  0.1767444E+04  0.7818608E-02  0.8723807E-01
          2   -1    0    0  501    0  0.00000000000E+00  0.00000000000E+00  0.10223270409E+04  0.10223270409E+04  0.00000000000E+00 0. -1.
         -2   -1    0    0    0  501 -0.00000000000E+00 -0.00000000000E+00 -0.76390877642E+03  0.76390877642E+03  0.00000000000E+00 0.  1.
         23    2    1    2    0    0 -0.14631400832E+03 -0.29918041235E+03  0.64058295236E+03  0.72786312931E+03  0.92312014317E+02 0.  0.
        254    2    1    2    0    0  0.14631400832E+03  0.29918041235E+03 -0.38216468788E+03  0.10583726880E+04  0.92907813982E+03 0.  0.
        -24    2    4    4    0    0  0.22985053740E+02  0.48668662146E+03 -0.57146946970E+03  0.75514677289E+03  0.79228237447E+02 0.  0.
         24    2    4    4    0    0  0.12332895458E+03 -0.18750620911E+03  0.18930478182E+03  0.30322591511E+03  0.75769688430E+02 0.  0.
         13    1    3    3    0    0 -0.47700669655E+02 -0.19637818144E+03  0.34737893450E+03  0.40188539183E+03  0.00000000000E+00 0. -1.
        -13    1    3    3    0    0 -0.98613338668E+02 -0.10280223091E+03  0.29320401786E+03  0.32597773748E+03  0.00000000000E+00 0.  1.
          4    1    6    6  502    0  0.30000080023E+02 -0.99956586678E+02  0.55983008956E+02  0.11842897160E+03  0.00000000000E+00 0. -1.
          1    1    5    5  503    0  0.88518776316E+01  0.15235480442E+03 -0.12546349340E+03  0.19756373742E+03  0.00000000000E+00 0. -1.
         -2    1    5    5    0  503  0.14133176108E+02  0.33433181704E+03 -0.44600597629E+03  0.55758303547E+03  0.00000000000E+00 0.  1.
         -3    1    6    6    0  502  0.93328874560E+02 -0.87549622431E+02  0.13332177286E+03  0.18479694352E+03  0.00000000000E+00 0.  1.
<mgrwt>
<rscale>  0 0.17674440E+04</rscale>
<asrwt>0</asrwt>
<pdfrwt beam="1">  1        2 0.15728108E+00 0.17674440E+04</pdfrwt>
<pdfrwt beam="2">  1       -2 0.11752443E+00 0.17674440E+04</pdfrwt>
<totfact> 0.12899321E+01</totfact>
</mgrwt>
</event>
<event>
12    1  0.1496989E-007  0.1892047E+04  0.7818608E-02  0.8658825E-01
         -1   -1    0    0    0  501 -0.00000000000E+00  0.00000000000E+00  0.24532053224E+04  0.24532053224E+04  0.00000000000E+00 0.  1.
          1   -1    0    0  501    0  0.00000000000E+00 -0.00000000000E+00 -0.36481256698E+03  0.36481256698E+03  0.00000000000E+00 0. -1.
         23    2    1    2    0    0 -0.20717616326E+03  0.53459728703E+03  0.17311572256E+03  0.60574353230E+03  0.90774179144E+02 0.  0.
        254    2    1    2    0    0  0.20717616326E+03 -0.53459728703E+03  0.19152770328E+04  0.22122743570E+04  0.94718292660E+03 0.  0.
        -24    2    4    4    0    0 -0.17451633057E+03 -0.64930435974E+02  0.13963948431E+04  0.14109953388E+04  0.79481929101E+02 0.  0.
         24    2    4    4    0    0  0.38169249383E+03 -0.46966685106E+03  0.51888218974E+03  0.80127901828E+03  0.80828382907E+02 0.  0.
         11    1    3    3    0    0 -0.95700034894E+02  0.35831391045E+03  0.12805120954E+03  0.39235757590E+03  0.00000000000E+00 0. -1.
        -11    1    3    3    0    0 -0.11147612836E+03  0.17628337658E+03  0.45064513013E+02  0.21338595639E+03  0.00000000000E+00 0.  1.
          2    1    6    6  502    0  0.19344623864E+03 -0.27233411739E+03  0.32981492796E+03  0.46943072486E+03  0.00000000000E+00 0. -1.
          3    1    5    5  503    0 -0.13696337211E+03 -0.41087955874E+02  0.78009607728E+03  0.79309335844E+03  0.00000000000E+00 0. -1.
         -4    1    5    5    0  503 -0.37552958460E+02 -0.23842480099E+02  0.61629876582E+03  0.61790198033E+03  0.00000000000E+00 0.  1.
         -1    1    6    6    0  502  0.18824625519E+03 -0.19733273367E+03  0.18906726178E+03  0.33184829342E+03  0.00000000000E+00 0.  1.
<mgrwt>
<rscale>  0 0.18920466E+04</rscale>
<asrwt>0</asrwt>
<pdfrwt beam="1">  1        1 0.56125012E-01 0.18920466E+04</pdfrwt>
<pdfrwt beam="2">  1       -1 0.37741619E+00 0.18920466E+04</pdfrwt>
<totfact> 0.64813319E-01</totfact>
</mgrwt>
</event>
<event>
12    1  0.1496989E-007  0.3051599E+04  0.7818608E-02  0.8229148E-01
         -1   -1    0    0    0  501 -0.00000000000E+00  0.00000000000E+00  0.29309500353E+04  0.29309500353E+04  0.00000000000E+00 0.  1.
          1   -1    0    0  501    0  0.00000000000E+00 -0.00000000000E+00 -0.79430376613E+03  0.79430376613E+03  0.00000000000E+00 0. -1.
         23    2    1    2    0    0 -0.12553438173E+04 -0.56089691705E+03  0.71086878336E+03  0.15508774344E+04  0.96917171860E+02 0.  0.
        254    2    1    2    0    0  0.12553438173E+04  0.56089691705E+03  0.14257774858E+04  0.21743763670E+04  0.89698255005E+03 0.  0.
        -24    2    4    4    0    0  0.77331665130E+03  0.57010711287E+03  0.41082662276E+03  0.10479506540E+04  0.79883014398E+02 0.  0.
         24    2    4    4    0    0  0.48202716602E+03 -0.92101958253E+01  0.10149508630E+04  0.11264257129E+04  0.79212473646E+02 0.  0.
         13    1    3    3    0    0 -0.10218330024E+04 -0.41858417778E+03  0.55042257238E+03  0.12338234909E+04  0.00000000000E+00 0. -1.
        -13    1    3    3    0    0 -0.23351081496E+03 -0.14231273927E+03  0.16044621098E+03  0.31705394349E+03  0.00000000000E+00 0.  1.
          2    1    6    6  502    0  0.20700635177E+03 -0.15129910333E+02  0.52487844489E+03  0.56442707746E+03  0.00000000000E+00 0. -1.
          3    1    5    5  503    0  0.19499282241E+03  0.12338669624E+03  0.13170880753E+03  0.26569472629E+03  0.00000000000E+00 0. -1.
         -4    1    5    5    0  503  0.57832382889E+03  0.44672041663E+03  0.27911781523E+03  0.78225592774E+03  0.00000000000E+00 0.  1.
         -1    1    6    6    0  502  0.27502081424E+03  0.59197145080E+01  0.49007241811E+03  0.56199863548E+03  0.00000000000E+00 0.  1.
<mgrwt>
<rscale>  0 0.30515994E+04</rscale>
<asrwt>0</asrwt>
<pdfrwt beam="1">  1        1 0.12220058E+00 0.30515994E+04</pdfrwt>
<pdfrwt beam="2">  1       -1 0.45091539E+00 0.30515994E+04</pdfrwt>
<totfact> 0.60364115E-02</totfact>
</mgrwt>
</event>
<event>
12    1  0.1496989E-007  0.1814297E+04  0.7818608E-02  0.8698733E-01
         -2   -1    0    0    0  501 -0.00000000000E+00  0.00000000000E+00  0.75114791940E+03  0.75114791940E+03  0.00000000000E+00 0.  1.
          2   -1    0    0  501    0  0.00000000000E+00 -0.00000000000E+00 -0.10955482107E+04  0.10955482107E+04  0.00000000000E+00 0. -1.
         23    2    1    2    0    0 -0.33294576575E+03  0.28422924155E+03 -0.68443677169E+03  0.81761038409E+03  0.91618235310E+02 0.  0.
        254    2    1    2    0    0  0.33294576575E+03 -0.28422924155E+03  0.34003648042E+03  0.10290857460E+04  0.86703720791E+03 0.  0.
        -24    2    4    4    0    0  0.14270061047E+03  0.30543083125E+03  0.13127383998E+03  0.37046738931E+03  0.79760946417E+02 0.  0.
         24    2    4    4    0    0  0.19024515528E+03 -0.58966007280E+03  0.20876264044E+03  0.65861835668E+03  0.79398231395E+02 0.  0.
         11    1    3    3    0    0 -0.20734619490E+03  0.16751467708E+03 -0.33272990837E+03  0.42633649094E+03  0.00000000000E+00 0.  1.
        -11    1    3    3    0    0 -0.12559957085E+03  0.11671456446E+03 -0.35170686332E+03  0.39127389315E+03  0.00000000000E+00 0. -1.
          2    1    6    6  502    0  0.15217722706E+03 -0.40987309424E+03  0.11389259015E+03  0.45180237263E+03  0.00000000000E+00 0. -1.
          1    1    5    5  503    0  0.15324290693E+02  0.41139094227E+02  0.48947364157E+02  0.65750311155E+02  0.00000000000E+00 0. -1.
         -2    1    5    5    0  503  0.12737631977E+03  0.26429173703E+03  0.82326475822E+02  0.30471707816E+03  0.00000000000E+00 0.  1.
         -1    1    6    6    0  502  0.38067928222E+02 -0.17978697856E+03  0.94870050286E+02  0.20681598405E+03  0.00000000000E+00 0.  1.
<mgrwt>
<rscale>  0 0.18142974E+04</rscale>
<asrwt>0</asrwt>
<pdfrwt beam="1">  1        2 0.16854588E+00 0.18142974E+04</pdfrwt>
<pdfrwt beam="2">  1       -2 0.11556122E+00 0.18142974E+04</pdfrwt>
<totfact> 0.12048310E+01</totfact>
</mgrwt>
</event>
<event>
12    1  0.1496989E-007  0.1851822E+04  0.7818608E-02  0.8679217E-01
          1   -1    0    0  501    0  0.00000000000E+00  0.00000000000E+00  0.43044420681E+03  0.43044420681E+03  0.00000000000E+00 0. -1.
         -1   -1    0    0    0  501 -0.00000000000E+00 -0.00000000000E+00 -0.19916888281E+04  0.19916888281E+04  0.00000000000E+00 0.  1.
         23    2    1    2    0    0 -0.59444809100E+03 -0.31922894008E+03 -0.33873062875E+03  0.76011240653E+03  0.88072598591E+02 0.  0.
        254    2    1    2    0    0  0.59444809100E+03  0.31922894008E+03 -0.12225139926E+04  0.16620206284E+04  0.90138585419E+03 0.  0.
        -24    2    4    4    0    0  0.70234780629E+03  0.40833555154E+03 -0.12556010114E+04  0.14976530815E+04  0.80003056891E+02 0.  0.
         24    2    4    4    0    0 -0.10789971529E+03 -0.89106611461E+02  0.33087018830E+02  0.16436754688E+03  0.79621623235E+02 0.  0.
         11    1    3    3    0    0 -0.32205385088E+01 -0.66705965950E+01 -0.15828970638E+02  0.17476413782E+02  0.00000000000E+00 0.  1.
        -11    1    3    3    0    0 -0.59122755249E+03 -0.31255834349E+03 -0.32290165811E+03  0.74263599274E+03  0.00000000000E+00 0. -1.
          4    1    6    6  502    0 -0.99719331706E+01 -0.21224984285E+02 -0.22844840071E+02  0.32738755732E+02  0.00000000000E+00 0. -1.
          3    1    5    5  503    0  0.23106802798E+03  0.96554206723E+02 -0.35464609275E+03  0.43415319818E+03  0.00000000000E+00 0. -1.
         -4    1    5    5    0  503  0.47127977831E+03  0.31178134482E+03 -0.90095491865E+03  0.10634998833E+04  0.00000000000E+00 0.  1.
         -3    1    6    6    0  502 -0.97927782121E+02 -0.67881627177E+02  0.55931858900E+02  0.13162879115E+03  0.00000000000E+00 0.  1.
<mgrwt>
<rscale>  0 0.18518217E+04</rscale>
<asrwt>0</asrwt>
<pdfrwt beam="1">  1        1 0.66222186E-01 0.18518217E+04</pdfrwt>
<pdfrwt beam="2">  1       -1 0.30641366E+00 0.18518217E+04</pdfrwt>
<totfact> 0.15345178E+00</totfact>
</mgrwt>
</event>
<event>
12    1  0.1496989E-007  0.1932817E+04  0.7818608E-02  0.8638691E-01
         -1   -1    0    0    0  501 -0.00000000000E+00  0.00000000000E+00  0.20548559584E+04  0.20548559584E+04  0.00000000000E+00 0.  1.
          1   -1    0    0  501    0  0.00000000000E+00 -0.00000000000E+00 -0.45450657276E+03  0.45450657276E+03  0.00000000000E+00 0. -1.
         23    2    1    2    0    0 -0.24250936334E+03 -0.32461596203E+02  0.15581371548E+04  0.15801523788E+04  0.96049989510E+02 0.  0.
        254    2    1    2    0    0  0.24250936334E+03  0.32461596203E+02  0.42212230774E+02  0.92921015231E+03  0.89542452959E+03 0.  0.
        -24    2    4    4    0    0  0.25803156382E+03  0.90776993476E+02 -0.39108858280E+03  0.48466425481E+03  0.84429910740E+02 0.  0.
         24    2    4    4    0    0 -0.15522200482E+02 -0.58315397273E+02  0.43330081357E+03  0.44454589749E+03  0.78929308064E+02 0.  0.
         13    1    3    3    0    0 -0.16476993943E+03 -0.25156509929E+02  0.12947649586E+04  0.13054494555E+04  0.00000000000E+00 0.  1.
        -13    1    3    3    0    0 -0.77739423906E+02 -0.73050862743E+01  0.26337219627E+03  0.27470292332E+03  0.00000000000E+00 0. -1.
          2    1    6    6  502    0 -0.42541487787E+02 -0.51987919126E+02  0.23854565590E+03  0.24782363057E+03  0.00000000000E+00 0. -1.
          3    1    5    5  503    0  0.24786532349E+03  0.10404150536E+03 -0.37555461189E+03  0.46184750724E+03  0.00000000000E+00 0. -1.
         -4    1    5    5    0  503  0.10166240331E+02 -0.13264511884E+02 -0.15533970906E+02  0.22816747579E+02  0.00000000000E+00 0.  1.
         -1    1    6    6    0  502  0.27019287305E+02 -0.63274781465E+01  0.19475515767E+03  0.19672226693E+03  0.00000000000E+00 0.  1.
<mgrwt>
<rscale>  0 0.19328172E+04</rscale>
<asrwt>0</asrwt>
<pdfrwt beam="1">  1        1 0.69924090E-01 0.19328172E+04</pdfrwt>
<pdfrwt beam="2">  1       -1 0.31613168E+00 0.19328172E+04</pdfrwt>
<totfact> 0.12239529E+00</totfact>
</mgrwt>
</event>
<event>
12    1  0.2147557E-007  0.1725416E+04  0.7818608E-02  0.8747000E-01
          2   -1    0    0  501    0  0.00000000000E+00  0.00000000000E+00  0.21902462471E+04  0.21902462471E+04  0.00000000000E+00 0. -1.
         -2   -1    0    0    0  501 -0.00000000000E+00 -0.00000000000E+00 -0.33980895578E+03  0.33980895578E+03  0.00000000000E+00 0.  1.
         23    2    1    2    0    0 -0.48051071112E+03 -0.40615714747E+03  0.66177753384E+03  0.91613552800E+03  0.74166228399E+02 0.  0.
        254    2    1    2    0    0  0.48051071112E+03  0.40615714747E+03  0.11886597574E+04  0.16139196748E+04  0.89217180292E+03 0.  0.
        -24    2    4    4    0    0  0.73705161723E+03  0.27960918526E+03  0.81191167233E+03  0.11345316798E+04  0.80840496905E+02 0.  0.
         24    2    4    4    0    0 -0.25654090610E+03  0.12654796221E+03  0.37674808511E+03  0.47938799500E+03  0.77756715957E+02 0.  0.
         13    1    3    3    0    0 -0.48043455674E+03 -0.40023318990E+03  0.64502317215E+03  0.89836454862E+03  0.00000000000E+00 0. -1.
        -13    1    3    3    0    0 -0.76154387319E-01 -0.59239575659E+01  0.16754361687E+02  0.17770979384E+02  0.00000000000E+00 0.  1.
          4    1    6    6  502    0 -0.21779582378E+03  0.87874553454E+02  0.25953854406E+03  0.35002459036E+03  0.00000000000E+00 0. -1.
          3    1    5    5  503    0  0.69962576154E+03  0.28210264167E+03  0.76373757042E+03  0.10734771461E+04  0.00000000000E+00 0. -1.
         -4    1    5    5    0  503  0.37425855685E+02 -0.24934564162E+01  0.48174101916E+02  0.61054533772E+02  0.00000000000E+00 0.  1.
         -1    1    6    6    0  502 -0.38745082320E+02  0.38673408755E+02  0.11720954105E+03  0.12936340464E+03  0.00000000000E+00 0.  1.
<mgrwt>
<rscale>  0 0.17254162E+04</rscale>
<asrwt>0</asrwt>
<pdfrwt beam="1">  1        2 0.33696095E+00 0.17254162E+04</pdfrwt>
<pdfrwt beam="2">  1       -2 0.52278302E-01 0.17254162E+04</pdfrwt>
<totfact> 0.17158712E+01</totfact>
</mgrwt>
</event>
<event>
12    1  0.1496989E-007  0.1651426E+04  0.7818608E-02  0.8789563E-01
          1   -1    0    0  501    0  0.00000000000E+00  0.00000000000E+00  0.11801964652E+04  0.11801964652E+04  0.00000000000E+00 0. -1.
         -1   -1    0    0    0  501 -0.00000000000E+00 -0.00000000000E+00 -0.57770221529E+03  0.57770221529E+03  0.00000000000E+00 0.  1.
         23    2    1    2    0    0  0.46258431706E+03  0.76887337360E+01 -0.13406596230E+03  0.49056459502E+03  0.92933162122E+02 0.  0.
        254    2    1    2    0    0 -0.46258431706E+03 -0.76887337360E+01  0.73656021221E+03  0.12673340855E+04  0.92172195968E+03 0.  0.
        -24    2    4    4    0    0 -0.52680033695E+03 -0.29493880165E+03  0.18461820282E+03  0.63677734583E+03  0.83030209086E+02 0.  0.
         24    2    4    4    0    0  0.64216019886E+02  0.28725006791E+03  0.55194200940E+03  0.63055673964E+03  0.79533146867E+02 0.  0.
         11    1    3    3    0    0  0.46673685948E+03  0.56657880076E+01 -0.13489331186E+03  0.48587200242E+03  0.00000000000E+00 0.  1.
        -11    1    3    3    0    0 -0.41525424216E+01  0.20229457283E+01  0.82734956113E+00  0.46925925967E+01  0.00000000000E+00 0. -1.
          2    1    6    6  502    0  0.51439907548E+02  0.28673584011E+03  0.53668053450E+03  0.61064679005E+03  0.00000000000E+00 0. -1.
          3    1    5    5  503    0 -0.47683708114E+03 -0.24538684735E+03  0.14295326693E+03  0.55499904804E+03  0.00000000000E+00 0. -1.
         -4    1    5    5    0  503 -0.49963255806E+02 -0.49551954299E+02  0.41664935891E+02  0.81778297784E+02  0.00000000000E+00 0.  1.
         -1    1    6    6    0  502  0.12776112338E+02  0.51422780100E+00  0.15261474897E+02  0.19909949591E+02  0.00000000000E+00 0.  1.
<mgrwt>
<rscale>  0 0.16514262E+04</rscale>
<asrwt>0</asrwt>
<pdfrwt beam="1">  1        1 0.18156869E+00 0.16514262E+04</pdfrwt>
<pdfrwt beam="2">  1       -1 0.88877264E-01 0.16514262E+04</pdfrwt>
<totfact> 0.13112463E+01</totfact>
</mgrwt>
</event>
<event>
12    1  0.1496989E-007  0.1367487E+04  0.7818608E-02  0.8977696E-01
         -3   -1    0    0    0  501 -0.00000000000E+00  0.00000000000E+00  0.12160562315E+04  0.12160562315E+04  0.00000000000E+00 0.  1.
          3   -1    0    0  501    0  0.00000000000E+00 -0.00000000000E+00 -0.38444346329E+03  0.38444346329E+03  0.00000000000E+00 0. -1.
         23    2    1    2    0    0  0.24207084329E+03 -0.28764549181E+03  0.23918248792E+03  0.45482203270E+03  0.91195376878E+02 0.  0.
        254    2    1    2    0    0 -0.24207084329E+03  0.28764549181E+03  0.59243028029E+03  0.11456776621E+04  0.90568507016E+03 0.  0.
        -24    2    4    4    0    0 -0.40549346234E+02  0.51037158030E+03  0.64875402428E+03  0.82980575484E+03  0.74648558606E+02 0.  0.
         24    2    4    4    0    0 -0.20152149706E+03 -0.22272608848E+03 -0.56323743986E+02  0.31587190726E+03  0.79905402782E+02 0.  0.
         13    1    3    3    0    0  0.23388345769E+02 -0.80326081092E+02  0.71008894397E+02  0.10973402893E+03  0.00000000000E+00 0. -1.
        -13    1    3    3    0    0  0.21868249752E+03 -0.20731941072E+03  0.16817359353E+03  0.34508800377E+03  0.00000000000E+00 0.  1.
          4    1    6    6  502    0 -0.54483297870E+02 -0.62330373901E+02  0.20199413699E+02  0.85214561967E+02  0.00000000000E+00 0. -1.
          1    1    5    5  503    0 -0.49752717559E+02  0.35106348771E+03  0.40286734196E+03  0.53667774365E+03  0.00000000000E+00 0. -1.
         -2    1    5    5    0  503  0.92033713251E+01  0.15930809258E+03  0.24588668232E+03  0.29312801120E+03  0.00000000000E+00 0.  1.
         -3    1    6    6    0  502 -0.14703819919E+03 -0.16039571458E+03 -0.76523157685E+02  0.23065734529E+03  0.00000000000E+00 0.  1.
<mgrwt>
<rscale>  0 0.13674866E+04</rscale>
<asrwt>0</asrwt>
<pdfrwt beam="1">  1        3 0.59145149E-01 0.13674866E+04</pdfrwt>
<pdfrwt beam="2">  1       -3 0.18708557E+00 0.13674866E+04</pdfrwt>
<totfact> 0.12694491E+00</totfact>
</mgrwt>
</event>
<event>
12    1  0.1496989E-007  0.1728891E+04  0.7818608E-02  0.8745056E-01
         -1   -1    0    0    0  501 -0.00000000000E+00  0.00000000000E+00  0.17209255858E+04  0.17209255858E+04  0.00000000000E+00 0.  1.
          1   -1    0    0  501    0  0.00000000000E+00 -0.00000000000E+00 -0.43422312813E+03  0.43422312813E+03  0.00000000000E+00 0. -1.
         23    2    1    2    0    0 -0.46791447494E+03 -0.10589630164E+03 -0.29460360279E+02  0.48945414171E+03  0.92409206509E+02 0.  0.
        254    2    1    2    0    0  0.46791447494E+03  0.10589630164E+03  0.13161628180E+04  0.16656945722E+04  0.90116361559E+03 0.  0.
        -24    2    4    4    0    0 -0.40115098920E+01  0.17700366694E+03 -0.62457471422E+02  0.20458634929E+03  0.81291132711E+02 0.  0.
         24    2    4    4    0    0  0.47192598483E+03 -0.71107365301E+02  0.13786202894E+04  0.14611082230E+04  0.80454610359E+02 0.  0.
         13    1    3    3    0    0 -0.36092839561E+03 -0.11898321996E+03 -0.34170594487E+02  0.38156774354E+03  0.00000000000E+00 0. -1.
        -13    1    3    3    0    0 -0.10698607933E+03  0.13086918318E+02  0.47102342079E+01  0.10788639816E+03  0.00000000000E+00 0.  1.
          4    1    6    6  502    0  0.21386248112E+03 -0.16384112214E+02  0.50873459161E+03  0.55210187888E+03  0.00000000000E+00 0. -1.
          1    1    5    5  503    0  0.60031585418E+01 -0.61473882374E+01  0.40206602491E+01  0.94865169298E+01  0.00000000000E+00 0. -1.
         -2    1    5    5    0  503 -0.10014668434E+02  0.18315105518E+03 -0.66478131671E+02  0.19509983236E+03  0.00000000000E+00 0.  1.
         -3    1    6    6    0  502  0.25806350372E+03 -0.54723253086E+02  0.86988569778E+03  0.90900634408E+03  0.00000000000E+00 0.  1.
<mgrwt>
<rscale>  0 0.17288906E+04</rscale>
<asrwt>0</asrwt>
<pdfrwt beam="1">  1        1 0.66803559E-01 0.17288906E+04</pdfrwt>
<pdfrwt beam="2">  1       -1 0.26475778E+00 0.17288906E+04</pdfrwt>
<totfact> 0.28520098E+00</totfact>
</mgrwt>
</event>
<event>
12    1  0.1496989E-007  0.1193820E+04  0.7818608E-02  0.9118283E-01
         -1   -1    0    0    0  501 -0.00000000000E+00  0.00000000000E+00  0.26768472362E+03  0.26768472362E+03  0.00000000000E+00 0.  1.
          1   -1    0    0  501    0  0.00000000000E+00 -0.00000000000E+00 -0.13310485453E+04  0.13310485453E+04  0.00000000000E+00 0. -1.
         23    2    1    2    0    0 -0.23225382512E+03  0.83693556271E+02 -0.23655511163E+03  0.35298998866E+03  0.87733463477E+02 0.  0.
        254    2    1    2    0    0  0.23225382512E+03 -0.83693556271E+02 -0.82680871003E+03  0.12457432802E+04  0.89850833419E+03 0.  0.
        -24    2    4    4    0    0 -0.96790274106E+02 -0.30175269690E+03 -0.22265899476E+01  0.32804155108E+03  0.84754081206E+02 0.  0.
         24    2    4    4    0    0  0.32904409923E+03  0.21805914063E+03 -0.82458212008E+03  0.91770172915E+03  0.80131035659E+02 0.  0.
         13    1    3    3    0    0 -0.77944300225E+02  0.38052669097E+02 -0.14186444411E+03  0.16627940361E+03  0.00000000000E+00 0. -1.
        -13    1    3    3    0    0 -0.15430952489E+03  0.45640887174E+02 -0.94690667527E+02  0.18671058506E+03  0.00000000000E+00 0.  1.
          2    1    6    6  502    0  0.13210395702E+03  0.84877773851E+02 -0.24202208168E+03  0.28849675904E+03  0.00000000000E+00 0. -1.
          3    1    5    5  503    0 -0.66839187478E+02 -0.17723919553E+03 -0.41841029658E+02  0.19398938419E+03  0.00000000000E+00 0. -1.
         -4    1    5    5    0  503 -0.29951086629E+02 -0.12451350137E+03  0.39614439710E+02  0.13405216689E+03  0.00000000000E+00 0.  1.
         -1    1    6    6    0  502  0.19694014220E+03  0.13318136678E+03 -0.58256003840E+03  0.62920497011E+03  0.00000000000E+00 0.  1.
<mgrwt>
<rscale>  0 0.11938197E+04</rscale>
<asrwt>0</asrwt>
<pdfrwt beam="1">  1        1 0.20477671E+00 0.11938197E+04</pdfrwt>
<pdfrwt beam="2">  1       -1 0.41182264E-01 0.11938197E+04</pdfrwt>
<totfact> 0.49117501E+01</totfact>
</mgrwt>
</event>
<event>
12    1  0.1496989E-007  0.2907246E+04  0.7818608E-02  0.8270725E-01
          2   -1    0    0  501    0  0.00000000000E+00  0.00000000000E+00  0.30461879926E+04  0.30461879926E+04  0.00000000000E+00 0.  1.
         -2   -1    0    0    0  501 -0.00000000000E+00 -0.00000000000E+00 -0.69366055763E+03  0.69366055763E+03  0.00000000000E+00 0. -1.
         23    2    1    2    0    0  0.17405041077E+03  0.11673405461E+04  0.17973023925E+04  0.21520618987E+04  0.89983497486E+02 0.  0.
        254    2    1    2    0    0 -0.17405041077E+03 -0.11673405461E+04  0.55522504248E+03  0.15877866515E+04  0.90543586568E+03 0.  0.
        -24    2    4    4    0    0  0.21457852745E+03  0.24205142685E+02  0.61640390096E+02  0.23836572688E+03  0.79930273893E+02 0.  0.
         24    2    4    4    0    0 -0.38862893823E+03 -0.11915456888E+04  0.49358465238E+03  0.13494209246E+04  0.80606716084E+02 0.  0.
         11    1    3    3    0    0  0.12892903379E+03  0.98439716267E+03  0.15587422757E+04  0.18480632976E+04  0.00000000000E+00 0.  1.
        -11    1    3    3    0    0  0.45121376980E+02  0.18294338343E+03  0.23856011675E+03  0.30399860116E+03  0.00000000000E+00 0. -1.
          4    1    6    6  502    0 -0.36908624302E+03 -0.11271172636E+04  0.44654363207E+03  0.12672881266E+04  0.00000000000E+00 0. -1.
          3    1    5    5  503    0  0.16509552964E+03 -0.89571337688E+00  0.74937950678E+02  0.18130921835E+03  0.00000000000E+00 0. -1.
         -4    1    5    5    0  503  0.49482997816E+02  0.25100856062E+02 -0.13297560582E+02  0.57056508528E+02  0.00000000000E+00 0.  1.
         -3    1    6    6    0  502 -0.19542695211E+02 -0.64428425227E+02  0.47041020305E+02  0.82132797984E+02  0.00000000000E+00 0.  1.
<mgrwt>
<rscale>  0 0.29072464E+04</rscale>
<asrwt>0</asrwt>
<pdfrwt beam="1">  1        2 0.46864430E+00 0.29072464E+04</pdfrwt>
<pdfrwt beam="2">  1       -2 0.10671701E+00 0.29072464E+04</pdfrwt>
<totfact> 0.99235015E-01</totfact>
</mgrwt>
</event>
<event>
12    1  0.1496989E-007  0.1559466E+04  0.7818608E-02  0.8845844E-01
         -1   -1    0    0    0  501 -0.00000000000E+00  0.00000000000E+00  0.84099429447E+03  0.84099429447E+03  0.00000000000E+00 0.  1.
          1   -1    0    0  501    0  0.00000000000E+00 -0.00000000000E+00 -0.72293417956E+03  0.72293417956E+03  0.00000000000E+00 0. -1.
         23    2    1    2    0    0  0.36379501669E+03 -0.35178659572E+03 -0.97920910093E+02  0.52371599630E+03  0.92678568419E+02 0.  0.
        254    2    1    2    0    0 -0.36379501669E+03  0.35178659572E+03  0.21598102500E+03  0.10402124777E+04  0.88277606026E+03 0.  0.
        -24    2    4    4    0    0  0.14004259076E+03  0.46428371888E+03  0.70823429910E+02  0.49752240669E+03  0.85681317064E+02 0.  0.
         24    2    4    4    0    0 -0.50383760745E+03 -0.11249712316E+03  0.14515759509E+03  0.54269007104E+03  0.83269732757E+02 0.  0.
         11    1    3    3    0    0  0.62584947247E+02 -0.10754132068E+03 -0.45072149935E+02  0.13233861861E+03  0.00000000000E+00 0. -1.
        -11    1    3    3    0    0  0.30121006945E+03 -0.24424527504E+03 -0.52848760158E+02  0.39137737769E+03  0.00000000000E+00 0.  1.
          2    1    6    6  502    0 -0.49852085976E+03 -0.99886538211E+02  0.13627846828E+03  0.52637647083E+03  0.00000000000E+00 0. -1.
          3    1    5    5  503    0  0.89971122658E+02  0.37388685411E+03  0.27727261532E+02  0.38555801590E+03  0.00000000000E+00 0. -1.
         -4    1    5    5    0  503  0.50071468099E+02  0.90396864772E+02  0.43096168379E+02  0.11196439080E+03  0.00000000000E+00 0.  1.
         -1    1    6    6    0  502 -0.53167476920E+01 -0.12610584948E+02  0.88791268178E+01  0.16313600209E+02  0.00000000000E+00 0.  1.
<mgrwt>
<rscale>  0 0.15594660E+04</rscale>
<asrwt>0</asrwt>
<pdfrwt beam="1">  1        1 0.11122064E+00 0.15594660E+04</pdfrwt>
<pdfrwt beam="2">  1       -1 0.12938374E+00 0.15594660E+04</pdfrwt>
<totfact> 0.12816263E+01</totfact>
</mgrwt>
</event>
<event>
12    1  0.1496989E-007  0.1398266E+04  0.7818608E-02  0.8955075E-01
          2   -1    0    0  501    0  0.00000000000E+00  0.00000000000E+00  0.27522624958E+04  0.27522624958E+04  0.00000000000E+00 0. -1.
         -2   -1    0    0    0  501 -0.00000000000E+00 -0.00000000000E+00 -0.17759456700E+03  0.17759456700E+03  0.00000000000E+00 0.  1.
         23    2    1    2    0    0 -0.27820779070E+03  0.39597306228E+01  0.13150115020E+04  0.13471749007E+04  0.90607440779E+02 0.  0.
        254    2    1    2    0    0  0.27820779070E+03 -0.39597306228E+01  0.12596564268E+04  0.15826821621E+04  0.91691507702E+03 0.  0.
        -24    2    4    4    0    0  0.22187444814E+03  0.24038567344E+03  0.44359759664E+02  0.33922211752E+03  0.78040463887E+02 0.  0.
         24    2    4    4    0    0  0.56333342557E+02 -0.24434540406E+03  0.12152966671E+04  0.12434600446E+04  0.79804582788E+02 0.  0.
         13    1    3    3    0    0 -0.13593634010E+03  0.35862958170E+02  0.50785101334E+03  0.52695112874E+03  0.00000000000E+00 0.  1.
        -13    1    3    3    0    0 -0.14227145060E+03 -0.31903227547E+02  0.80716048868E+03  0.82022377195E+03  0.00000000000E+00 0. -1.
          2    1    6    6  502    0 -0.24648666362E+00 -0.16693426018E+03  0.74156080227E+03  0.76011810361E+03  0.00000000000E+00 0. -1.
          1    1    5    5  503    0  0.18234491130E+03  0.18971528929E+03  0.66216445333E+02  0.27134143675E+03  0.00000000000E+00 0. -1.
         -2    1    5    5    0  503  0.39529536846E+02  0.50670384147E+02 -0.21856685668E+02  0.67880680767E+02  0.00000000000E+00 0.  1.
         -1    1    6    6    0  502  0.56579829220E+02 -0.77411143883E+02  0.47373586484E+03  0.48334194098E+03  0.00000000000E+00 0.  1.
<mgrwt>
<rscale>  0 0.13982659E+04</rscale>
<asrwt>0</asrwt>
<pdfrwt beam="1">  1        2 0.42342497E+00 0.13982659E+04</pdfrwt>
<pdfrwt beam="2">  1       -2 0.27322243E-01 0.13982659E+04</pdfrwt>
<totfact> 0.29516372E+01</totfact>
</mgrwt>
</event>
<event>
12    1  0.1496989E-007  0.1356758E+04  0.7818608E-02  0.8985728E-01
          1   -1    0    0  501    0  0.00000000000E+00  0.00000000000E+00  0.24919805955E+04  0.24919805955E+04  0.00000000000E+00 0.  1.
         -1   -1    0    0    0  501 -0.00000000000E+00 -0.00000000000E+00 -0.18467170377E+03  0.18467170377E+03  0.00000000000E+00 0. -1.
         23    2    1    2    0    0  0.32704919809E+03  0.16644063973E+03  0.67679188721E+03  0.77531982907E+03  0.91705584553E+02 0.  0.
        254    2    1    2    0    0 -0.32704919809E+03 -0.16644063973E+03  0.16305170045E+04  0.19013324702E+04  0.90654056482E+03 0.  0.
        -24    2    4    4    0    0  0.14156692182E+03 -0.41150309943E+03  0.69897890582E+03  0.82722701340E+03  0.79730964714E+02 0.  0.
         24    2    4    4    0    0 -0.46861611991E+03  0.24506245970E+03  0.93153809868E+03  0.10741054568E+04  0.79263017813E+02 0.  0.
         13    1    3    3    0    0  0.15733658925E+03  0.71200258807E+02  0.22694030113E+03  0.28517745256E+03  0.00000000000E+00 0.  1.
        -13    1    3    3    0    0  0.16971260884E+03  0.95240380924E+02  0.44985158608E+03  0.49014237651E+03  0.00000000000E+00 0. -1.
          4    1    6    6  502    0 -0.44109337437E+03  0.21319003410E+03  0.82432568235E+03  0.95891928031E+03  0.00000000000E+00 0. -1.
          1    1    5    5  503    0  0.14288243207E+03 -0.34178907444E+03  0.61632417507E+03  0.71909015400E+03  0.00000000000E+00 0. -1.
         -2    1    5    5    0  503 -0.13155102527E+01 -0.69714024983E+02  0.82654730747E+02  0.10813685940E+03  0.00000000000E+00 0.  1.
         -3    1    6    6    0  502 -0.27522745535E+02  0.31872425593E+02  0.10721241632E+03  0.11518617647E+03  0.00000000000E+00 0.  1.
<mgrwt>
<rscale>  0 0.13567583E+04</rscale>
<asrwt>0</asrwt>
<pdfrwt beam="1">  1        1 0.38338160E+00 0.13567583E+04</pdfrwt>
<pdfrwt beam="2">  1       -1 0.28411033E-01 0.13567583E+04</pdfrwt>
<totfact> 0.15127602E+01</totfact>
</mgrwt>
</event>
<event>
12    1  0.1496989E-007  0.3751895E+04  0.7818608E-02  0.8056558E-01
          2   -1    0    0  501    0  0.00000000000E+00  0.00000000000E+00  0.22351977877E+04  0.22351977877E+04  0.00000000000E+00 0. -1.
         -2   -1    0    0    0  501 -0.00000000000E+00 -0.00000000000E+00 -0.15744376214E+04  0.15744376214E+04  0.00000000000E+00 0.  1.
         23    2    1    2    0    0 -0.90951005033E+03  0.11146306628E+04  0.13672517690E+04  0.19867474876E+04  0.90433034528E+02 0.  0.
        254    2    1    2    0    0  0.90951005033E+03 -0.11146306628E+04 -0.70649160268E+03  0.18228879214E+04  0.86843534205E+03 0.  0.
        -24    2    4    4    0    0  0.51710122971E+03 -0.37477264847E+03 -0.74062589273E+03  0.98120893991E+03  0.79975314676E+02 0.  0.
         24    2    4    4    0    0  0.39240882062E+03 -0.73985801432E+03  0.34134290050E+02  0.84167898152E+03  0.76705894919E+02 0.  0.
         13    1    3    3    0    0 -0.90767265195E+03  0.11040444936E+04  0.13636096465E+04  0.19754025299E+04  0.00000000000E+00 0. -1.
        -13    1    3    3    0    0 -0.18373983800E+01  0.10586169164E+02  0.36421224904E+01  0.11344957761E+02  0.00000000000E+00 0.  1.
          2    1    6    6  502    0  0.27299727227E+03 -0.47272526532E+03 -0.86567076239E+01  0.54595936271E+03  0.00000000000E+00 0. -1.
          1    1    5    5  503    0  0.21939906095E+03 -0.11517031937E+03 -0.31003290661E+03  0.39688859091E+03  0.00000000000E+00 0. -1.
         -2    1    5    5    0  503  0.29770216876E+03 -0.25960232910E+03 -0.43059298612E+03  0.58432034900E+03  0.00000000000E+00 0.  1.
         -1    1    6    6    0  502  0.11941154835E+03 -0.26713274900E+03  0.42790997674E+02  0.29571961881E+03  0.00000000000E+00 0.  1.
<mgrwt>
<rscale>  0 0.37518952E+04</rscale>
<asrwt>0</asrwt>
<pdfrwt beam="1">  1        2 0.34387658E+00 0.37518952E+04</pdfrwt>
<pdfrwt beam="2">  1       -2 0.24222117E+00 0.37518952E+04</pdfrwt>
<totfact> 0.28501199E-01</totfact>
</mgrwt>
</event>
<event>
12    1  0.1496989E-007  0.1430715E+04  0.7818608E-02  0.8931881E-01
         -2   -1    0    0    0  501 -0.00000000000E+00  0.00000000000E+00  0.16681202754E+03  0.16681202754E+03  0.00000000000E+00 0.  1.
          2   -1    0    0  501    0  0.00000000000E+00 -0.00000000000E+00 -0.30677423170E+04  0.30677423170E+04  0.00000000000E+00 0. -1.
         23    2    1    2    0    0 -0.13257157145E+03  0.31097284325E+03 -0.29202934597E+03  0.45671625952E+03  0.95022481597E+02 0.  0.
        254    2    1    2    0    0  0.13257157145E+03 -0.31097284325E+03 -0.26089009435E+04  0.27778380850E+04  0.89204313958E+03 0.  0.
        -24    2    4    4    0    0  0.40269558573E+03 -0.36074163355E+03 -0.22665031145E+04  0.23315725068E+04  0.83040505726E+02 0.  0.
         24    2    4    4    0    0 -0.27012401428E+03  0.49768790299E+02 -0.34239782896E+03  0.44626557818E+03  0.80453573002E+02 0.  0.
         13    1    3    3    0    0  0.10604733078E+02  0.14052806256E+02 -0.21231929116E+01  0.17732728934E+02  0.00000000000E+00 0. -1.
        -13    1    3    3    0    0 -0.14317630453E+03  0.29692003700E+03 -0.28990615305E+03  0.43898353059E+03  0.00000000000E+00 0.  1.
          2    1    6    6  502    0 -0.19794886111E+03  0.70637560671E+02 -0.26734959202E+03  0.34007237604E+03  0.00000000000E+00 0. -1.
          1    1    5    5  503    0  0.20281549846E+03 -0.23018458960E+03 -0.13582328758E+04  0.13924495024E+04  0.00000000000E+00 0. -1.
         -4    1    5    5    0  503  0.19988008727E+03 -0.13055704395E+03 -0.90827023867E+03  0.93912300444E+03  0.00000000000E+00 0.  1.
         -1    1    6    6    0  502 -0.72175153171E+02 -0.20868770372E+02 -0.75048236946E+02  0.10619320214E+03  0.00000000000E+00 0.  1.
<mgrwt>
<rscale>  0 0.14307149E+04</rscale>
<asrwt>0</asrwt>
<pdfrwt beam="1">  1        2 0.47196033E+00 0.14307149E+04</pdfrwt>
<pdfrwt beam="2">  1       -2 0.25663391E-01 0.14307149E+04</pdfrwt>
<totfact> 0.21158801E+01</totfact>
</mgrwt>
</event>
<event>
12    1  0.1496989E-007  0.1330073E+04  0.7818608E-02  0.9006051E-01
          1   -1    0    0  501    0  0.00000000000E+00  0.00000000000E+00  0.31255123953E+04  0.31255123953E+04  0.00000000000E+00 0. -1.
         -1   -1    0    0    0  501 -0.00000000000E+00 -0.00000000000E+00 -0.14150436735E+03  0.14150436735E+03  0.00000000000E+00 0.  1.
         23    2    1    2    0    0  0.30729259725E+03 -0.10964015865E+03  0.45374639691E+03  0.56645296201E+03  0.92376732716E+02 0.  0.
        254    2    1    2    0    0 -0.30729259725E+03  0.10964015865E+03  0.25302616311E+04  0.27005638007E+04  0.88564734241E+03 0.  0.
        -24    2    4    4    0    0 -0.36783625942E+03  0.42043324176E+03  0.19991802096E+04  0.20772738634E+04  0.79231107109E+02 0.  0.
         24    2    4    4    0    0  0.60543662173E+02 -0.31079308311E+03  0.53108142144E+03  0.62328993730E+03  0.78644734127E+02 0.  0.
         13    1    3    3    0    0  0.10289363226E+03 -0.22805123867E+02  0.22050136276E+03  0.24439317546E+03  0.00000000000E+00 0. -1.
        -13    1    3    3    0    0  0.20439896499E+03 -0.86835034778E+02  0.23324503416E+03  0.32205978655E+03  0.00000000000E+00 0.  1.
          2    1    6    6  502    0 -0.17670931521E+02 -0.30941455669E+02  0.54742033387E+02  0.65317116585E+02  0.00000000000E+00 0. -1.
          1    1    5    5  503    0 -0.74643738186E+02  0.11458787582E+03  0.39123738479E+03  0.41444994896E+03  0.00000000000E+00 0. -1.
         -4    1    5    5    0  503 -0.29319252124E+03  0.30584536594E+03  0.16079428248E+04  0.16628239144E+04  0.00000000000E+00 0.  1.
         -1    1    6    6    0  502  0.78214593695E+02 -0.27985162744E+03  0.47633938805E+03  0.55797282072E+03  0.00000000000E+00 0.  1.
<mgrwt>
<rscale>  0 0.13300732E+04</rscale>
<asrwt>0</asrwt>
<pdfrwt beam="1">  1        1 0.48084801E+00 0.13300732E+04</pdfrwt>
<pdfrwt beam="2">  1       -1 0.21769905E-01 0.13300732E+04</pdfrwt>
<totfact> 0.84919758E+00</totfact>
</mgrwt>
</event>
<event>
12    1  0.1496989E-007  0.1113837E+04  0.7818608E-02  0.9191809E-01
         -2   -1    0    0    0  501 -0.00000000000E+00  0.00000000000E+00  0.59956908956E+03  0.59956908956E+03  0.00000000000E+00 0.  1.
          2   -1    0    0  501    0  0.00000000000E+00 -0.00000000000E+00 -0.51730182272E+03  0.51730182272E+03  0.00000000000E+00 0. -1.
         23    2    1    2    0    0  0.11273137387E+03  0.35866024799E+02 -0.11608438176E+03  0.18924605265E+03  0.91344131534E+02 0.  0.
        254    2    1    2    0    0 -0.11273137387E+03 -0.35866024799E+02  0.19835164860E+03  0.92762485963E+03  0.89841514307E+03 0.  0.
        -24    2    4    4    0    0 -0.29344664775E+03 -0.18394915206E+03 -0.23736008510E+03  0.42709551087E+03  0.78246659900E+02 0.  0.
         24    2    4    4    0    0  0.18071527388E+03  0.14808312726E+03  0.43571173370E+03  0.50052934876E+03  0.78091557071E+02 0.  0.
         13    1    3    3    0    0  0.74038493805E+02 -0.24220214745E+02 -0.63899874935E+02  0.10075470899E+03  0.00000000000E+00 0. -1.
        -13    1    3    3    0    0  0.38692880070E+02  0.60086239544E+02 -0.52184506826E+02  0.88491343663E+02  0.00000000000E+00 0.  1.
          2    1    6    6  502    0  0.13087348549E+03  0.13596091174E+03  0.28946356929E+03  0.34554651882E+03  0.00000000000E+00 0. -1.
          3    1    5    5  503    0 -0.25497111643E+03 -0.12532974727E+03 -0.20173248196E+03  0.34844484505E+03  0.00000000000E+00 0. -1.
         -4    1    5    5    0  503 -0.38475531327E+02 -0.58619404789E+02 -0.35627603140E+02  0.78650665822E+02  0.00000000000E+00 0.  1.
         -3    1    6    6    0  502  0.49841788390E+02  0.12122215520E+02  0.14624816442E+03  0.15498282993E+03  0.00000000000E+00 0.  1.
<mgrwt>
<rscale>  0 0.11138369E+04</rscale>
<asrwt>0</asrwt>
<pdfrwt beam="1">  1        2 0.79584895E-01 0.11138369E+04</pdfrwt>
<pdfrwt beam="2">  1       -2 0.92241399E-01 0.11138369E+04</pdfrwt>
<totfact> 0.58633465E+01</totfact>
</mgrwt>
</event>
<event>
12    1  0.1496989E-007  0.2433784E+04  0.7818608E-02  0.8426963E-01
          2   -1    0    0  501    0  0.00000000000E+00  0.00000000000E+00  0.30749536974E+04  0.30749536974E+04  0.00000000000E+00 0. -1.
         -2   -1    0    0    0  501 -0.00000000000E+00 -0.00000000000E+00 -0.48157679877E+03  0.48157679877E+03  0.00000000000E+00 0.  1.
         23    2    1    2    0    0 -0.29932627755E+03 -0.99542525399E+03  0.12252615016E+04  0.16094654657E+04  0.92982155998E+02 0.  0.
        254    2    1    2    0    0  0.29932627755E+03  0.99542525399E+03  0.13681153970E+04  0.19470650304E+04  0.91589018799E+03 0.  0.
        -24    2    4    4    0    0  0.16223539534E+03 -0.75346509561E+01  0.72008543302E+03  0.74248668647E+03  0.79914668701E+02 0.  0.
         24    2    4    4    0    0  0.13709088221E+03  0.10029599049E+04  0.64802996397E+03  0.12045783439E+04  0.79647169297E+02 0.  0.
         13    1    3    3    0    0 -0.27892511189E+03 -0.89777639419E+03  0.11445440381E+04  0.14811423724E+04  0.00000000000E+00 0. -1.
        -13    1    3    3    0    0 -0.20401165665E+02 -0.97648859794E+02  0.80717463519E+02  0.12832309339E+03  0.00000000000E+00 0.  1.
          4    1    6    6  502    0  0.59635167672E+02  0.56555665834E+03  0.40567453599E+03  0.69855745373E+03  0.00000000000E+00 0. -1.
          3    1    5    5  503    0  0.40171013085E+02 -0.69960138390E+01  0.69745885053E+02  0.80790735755E+02  0.00000000000E+00 0. -1.
         -4    1    5    5    0  503  0.12206438225E+03 -0.53863711719E+00  0.65033954797E+03  0.66169595072E+03  0.00000000000E+00 0.  1.
         -3    1    6    6    0  502  0.77455714541E+02  0.43740324661E+03  0.24235542798E+03  0.50602089021E+03  0.00000000000E+00 0.  1.
<mgrwt>
<rscale>  0 0.24337842E+04</rscale>
<asrwt>0</asrwt>
<pdfrwt beam="1">  1        2 0.47306979E+00 0.24337842E+04</pdfrwt>
<pdfrwt beam="2">  1       -2 0.74088740E-01 0.24337842E+04</pdfrwt>
<totfact> 0.22981721E+00</totfact>
</mgrwt>
</event>
<event>
12    1  0.1496989E-007  0.2255970E+04  0.7818608E-02  0.8495487E-01
         -2   -1    0    0    0  501 -0.00000000000E+00  0.00000000000E+00  0.19885555478E+04  0.19885555478E+04  0.00000000000E+00 0.  1.
          2   -1    0    0  501    0  0.00000000000E+00 -0.00000000000E+00 -0.63983654728E+03  0.63983654728E+03  0.00000000000E+00 0. -1.
         23    2    1    2    0    0 -0.15876092269E+03  0.22692585756E+03 -0.48375920765E+03  0.56475295740E+03  0.90678313305E+02 0.  0.
        254    2    1    2    0    0  0.15876092269E+03 -0.22692585756E+03  0.18324782082E+04  0.20636391377E+04  0.90770575174E+03 0.  0.
        -24    2    4    4    0    0  0.95993373264E+02 -0.45499762880E+03  0.17305967792E+04  0.17938828997E+04  0.82541357413E+02 0.  0.
         24    2    4    4    0    0  0.62767549428E+02  0.22807177124E+03  0.10188142899E+03  0.26975623801E+03  0.80200400715E+02 0.  0.
         13    1    3    3    0    0 -0.10120770206E+03  0.68281693578E+02 -0.18584277665E+03  0.22235765395E+03  0.00000000000E+00 0. -1.
        -13    1    3    3    0    0 -0.57553220634E+02  0.15864416399E+03 -0.29791643099E+03  0.34239530345E+03  0.00000000000E+00 0.  1.
          4    1    6    6  502    0  0.31205630668E+01  0.15526068603E+03  0.70432221415E+02  0.17051778897E+03  0.00000000000E+00 0. -1.
          3    1    5    5  503    0  0.61210204452E+02 -0.41328587919E+03  0.15466765355E+04  0.16021111736E+04  0.00000000000E+00 0. -1.
         -4    1    5    5    0  503  0.34783168812E+02 -0.41711749611E+02  0.18392024370E+03  0.19177172610E+03  0.00000000000E+00 0.  1.
         -1    1    6    6    0  502  0.59646986361E+02  0.72811085203E+02  0.31449207572E+02  0.99238449037E+02  0.00000000000E+00 0.  1.
<mgrwt>
<rscale>  0 0.22559703E+04</rscale>
<asrwt>0</asrwt>
<pdfrwt beam="1">  1        2 0.98436393E-01 0.22559703E+04</pdfrwt>
<pdfrwt beam="2">  1       -2 0.30593162E+00 0.22559703E+04</pdfrwt>
<totfact> 0.12200239E+00</totfact>
</mgrwt>
</event>
<event>
12    1  0.1496989E-007  0.1269639E+04  0.7818608E-02  0.9053994E-01
          2   -1    0    0  501    0  0.00000000000E+00  0.00000000000E+00  0.19289995085E+03  0.19289995085E+03  0.00000000000E+00 0. -1.
         -2   -1    0    0    0  501 -0.00000000000E+00 -0.00000000000E+00 -0.20891451209E+04  0.20891451209E+04  0.00000000000E+00 0.  1.
         23    2    1    2    0    0 -0.17231354974E+03  0.23574907706E+02 -0.10047709539E+04  0.10235220155E+04  0.88232141302E+02 0.  0.
        254    2    1    2    0    0  0.17231354974E+03 -0.23574907706E+02 -0.89147421613E+03  0.12585230562E+04  0.87115226527E+03 0.  0.
        -24    2    4    4    0    0 -0.34004515510E+03  0.75958294294E+02 -0.41107192409E+03  0.54481917730E+03  0.80295947607E+02 0.  0.
         24    2    4    4    0    0  0.51235870484E+03 -0.99533202000E+02 -0.48040229204E+03  0.71370387891E+03  0.78540205279E+02 0.  0.
         11    1    3    3    0    0 -0.17684833248E+03  0.19727498557E+02 -0.83987210369E+03  0.85851596227E+03  0.00000000000E+00 0.  1.
        -11    1    3    3    0    0  0.45347827438E+01  0.38474091490E+01 -0.16489885023E+03  0.16500605328E+03  0.00000000000E+00 0. -1.
          4    1    6    6  502    0  0.41660185058E+03 -0.10829372698E+03 -0.37329914504E+03  0.56976915053E+03  0.00000000000E+00 0. -1.
          1    1    5    5  503    0 -0.34167618885E+03  0.77735599541E+02 -0.39276983104E+03  0.52635879554E+03  0.00000000000E+00 0. -1.
         -4    1    5    5    0  503  0.16310337487E+01 -0.17773052468E+01 -0.18302093043E+02  0.18460381762E+02  0.00000000000E+00 0.  1.
         -3    1    6    6    0  502  0.95756854259E+02  0.87605249747E+01 -0.10710314701E+03  0.14393472838E+03  0.00000000000E+00 0.  1.
<mgrwt>
<rscale>  0 0.12696393E+04</rscale>
<asrwt>0</asrwt>
<pdfrwt beam="1">  1        2 0.29676916E-01 0.12696393E+04</pdfrwt>
<pdfrwt beam="2">  1       -2 0.32140694E+00 0.12696393E+04</pdfrwt>
<totfact> 0.41942710E+00</totfact>
</mgrwt>
</event>
<event>
12    1  0.1496989E-007  0.1160870E+04  0.7818608E-02  0.9147814E-01
          2   -1    0    0  501    0  0.00000000000E+00  0.00000000000E+00  0.23738765085E+03  0.23738765085E+03  0.00000000000E+00 0.  1.
         -2   -1    0    0    0  501 -0.00000000000E+00 -0.00000000000E+00 -0.14192180367E+04  0.14192180367E+04  0.00000000000E+00 0. -1.
         23    2    1    2    0    0  0.38505233222E+02 -0.17365292568E+03 -0.47030735923E+03  0.51098028616E+03  0.90960700938E+02 0.  0.
        254    2    1    2    0    0 -0.38505233222E+02  0.17365292568E+03 -0.71152302659E+03  0.11456254014E+04  0.88008780887E+03 0.  0.
        -24    2    4    4    0    0  0.22477195804E+03  0.24966248645E+03  0.34371059488E+02  0.34707919262E+03  0.80179835110E+02 0.  0.
         24    2    4    4    0    0 -0.26327719126E+03 -0.76009560773E+02 -0.74589408608E+03  0.79854620875E+03  0.78903276879E+02 0.  0.
         11    1    3    3    0    0  0.42435619704E+02 -0.72899561635E+02 -0.31271757879E+03  0.32389413701E+03  0.00000000000E+00 0. -1.
        -11    1    3    3    0    0 -0.39303864816E+01 -0.10075336404E+03 -0.15758978044E+03  0.18708614915E+03  0.00000000000E+00 0.  1.
          4    1    6    6  502    0 -0.11564919866E+02  0.40464819405E+01 -0.75835414885E+01  0.14409423621E+02  0.00000000000E+00 0. -1.
          3    1    5    5  503    0 -0.42543012307E+01  0.13082604725E+02  0.97930440193E+01  0.16886602279E+02  0.00000000000E+00 0. -1.
         -4    1    5    5    0  503  0.22902625927E+03  0.23657988172E+03  0.24578015469E+02  0.33019259034E+03  0.00000000000E+00 0.  1.
         -3    1    6    6    0  502 -0.25171227139E+03 -0.80056042714E+02 -0.73831054459E+03  0.78413678513E+03  0.00000000000E+00 0.  1.
<mgrwt>
<rscale>  0 0.11608701E+04</rscale>
<asrwt>0</asrwt>
<pdfrwt beam="1">  1        2 0.36521177E-01 0.11608701E+04</pdfrwt>
<pdfrwt beam="2">  1       -2 0.21834124E+00 0.11608701E+04</pdfrwt>
<totfact> 0.14296893E+01</totfact>
</mgrwt>
</event>
<event>
12    1  0.1496989E-007  0.2003999E+04  0.7818608E-02  0.8604753E-01
         -2   -1    0    0    0  501 -0.00000000000E+00  0.00000000000E+00  0.41830351348E+03  0.41830351348E+03  0.00000000000E+00 0.  1.
          2   -1    0    0  501    0  0.00000000000E+00 -0.00000000000E+00 -0.24001772986E+04  0.24001772986E+04  0.00000000000E+00 0. -1.
         23    2    1    2    0    0 -0.55491000738E+03 -0.44597722398E+03 -0.12985663463E+04  0.14839189464E+04  0.94446191997E+02 0.  0.
        254    2    1    2    0    0  0.55491000738E+03  0.44597722398E+03 -0.68330743883E+03  0.13345618657E+04  0.89851294746E+03 0.  0.
        -24    2    4    4    0    0 -0.18478330701E+02 -0.16770150614E+02 -0.58132719850E+03  0.58730728264E+03  0.79786251175E+02 0.  0.
         24    2    4    4    0    0  0.57338833808E+03  0.46274737459E+03 -0.10198024033E+03  0.74725458303E+03  0.71274985125E+02 0.  0.
         13    1    3    3    0    0 -0.29038328871E+03 -0.18184493989E+03 -0.67227256017E+03  0.75454650730E+03  0.00000000000E+00 0. -1.
        -13    1    3    3    0    0 -0.26452671867E+03 -0.26413228409E+03 -0.62629378614E+03  0.72937243912E+03  0.00000000000E+00 0.  1.
          2    1    6    6  502    0  0.49741981992E+02  0.18612739582E+02 -0.14644657682E+02  0.55092330191E+02  0.00000000000E+00 0. -1.
          3    1    5    5  503    0 -0.21037074352E+02  0.97418268031E+01 -0.47898080482E+02  0.53213605409E+02  0.00000000000E+00 0. -1.
         -4    1    5    5    0  503  0.25587436514E+01 -0.26511977417E+02 -0.53342911801E+03  0.53409367723E+03  0.00000000000E+00 0.  1.
         -1    1    6    6    0  502  0.52364635609E+03  0.44413463501E+03 -0.87335582649E+02  0.69216225284E+03  0.00000000000E+00 0.  1.
<mgrwt>
<rscale>  0 0.20039986E+04</rscale>
<asrwt>0</asrwt>
<pdfrwt beam="1">  1        2 0.36925805E+00 0.20039986E+04</pdfrwt>
<pdfrwt beam="2">  1       -2 0.64354387E-01 0.20039986E+04</pdfrwt>
<totfact> 0.82364043E+00</totfact>
</mgrwt>
</event>
<event>
12    1  0.1496989E-007  0.1507315E+04  0.7818608E-02  0.8879603E-01
         -2   -1    0    0    0  501 -0.00000000000E+00  0.00000000000E+00  0.81870721089E+03  0.81870721089E+03  0.00000000000E+00 0.  1.
          2   -1    0    0  501    0  0.00000000000E+00 -0.00000000000E+00 -0.69377653122E+03  0.69377653122E+03  0.00000000000E+00 0. -1.
         23    2    1    2    0    0 -0.31540463882E+03 -0.35891552748E+03  0.31154417115E+02  0.48777569648E+03  0.93027363240E+02 0.  0.
        254    2    1    2    0    0  0.31540463882E+03  0.35891552748E+03  0.93776262562E+02  0.10247080456E+04  0.90162750030E+03 0.  0.
        -24    2    4    4    0    0  0.57034012032E+03  0.54967308428E+01  0.76089758370E+02  0.58071617312E+03  0.78253150108E+02 0.  0.
         24    2    4    4    0    0 -0.25493548149E+03  0.35341879664E+03  0.17686504191E+02  0.44399187251E+03  0.83180676131E+02 0.  0.
         13    1    3    3    0    0 -0.20537107812E+03 -0.26751307644E+03  0.58079862965E+02  0.34221893033E+03  0.00000000000E+00 0. -1.
        -13    1    3    3    0    0 -0.11003356070E+03 -0.91402451038E+02 -0.26925445850E+02  0.14555676614E+03  0.00000000000E+00 0.  1.
          2    1    6    6  502    0 -0.15023902560E+03  0.27276642322E+03  0.86931509826E+01  0.31152665587E+03  0.00000000000E+00 0. -1.
          3    1    5    5  503    0  0.24370958342E+03 -0.20248268401E+02  0.64296496942E+02  0.25286042185E+03  0.00000000000E+00 0. -1.
         -4    1    5    5    0  503  0.32663053690E+03  0.25744999244E+02  0.11793261428E+02  0.32785575127E+03  0.00000000000E+00 0.  1.
         -1    1    6    6    0  502 -0.10469645590E+03  0.80652373422E+02  0.89933532086E+01  0.13246521663E+03  0.00000000000E+00 0.  1.
<mgrwt>
<rscale>  0 0.15073153E+04</rscale>
<asrwt>0</asrwt>
<pdfrwt beam="1">  1        2 0.10673485E+00 0.15073153E+04</pdfrwt>
<pdfrwt beam="2">  1       -2 0.12595496E+00 0.15073153E+04</pdfrwt>
<totfact> 0.18819059E+01</totfact>
</mgrwt>
</event>
<event>
12    1  0.1496989E-007  0.1553425E+04  0.7818608E-02  0.8849683E-01
         -1   -1    0    0    0  501 -0.00000000000E+00  0.00000000000E+00  0.37189275166E+03  0.37189275166E+03  0.00000000000E+00 0.  1.
          1   -1    0    0  501    0  0.00000000000E+00 -0.00000000000E+00 -0.16221942611E+04  0.16221942611E+04  0.00000000000E+00 0. -1.
         23    2    1    2    0    0 -0.42905511394E+03 -0.27610856231E+03 -0.52454053444E+03  0.73718742204E+03  0.89321296229E+02 0.  0.
        254    2    1    2    0    0  0.42905511394E+03  0.27610856231E+03 -0.72576097505E+03  0.12568995908E+04  0.89036136450E+03 0.  0.
        -24    2    4    4    0    0  0.52642654492E+03  0.18874041856E+03 -0.87586479964E+03  0.10423848420E+04  0.81726121033E+02 0.  0.
         24    2    4    4    0    0 -0.97371430976E+02  0.87368143750E+02  0.15010382459E+03  0.21451474874E+03  0.79818739395E+02 0.  0.
         13    1    3    3    0    0 -0.40759260305E+01 -0.19583371226E+02 -0.10507392004E+02  0.22594842073E+02  0.00000000000E+00 0.  1.
        -13    1    3    3    0    0 -0.42497918791E+03 -0.25652519108E+03 -0.51403314244E+03  0.71459257997E+03  0.00000000000E+00 0. -1.
          2    1    6    6  502    0 -0.92676746324E+02  0.44254386246E+02  0.72831726584E+02  0.12590429067E+03  0.00000000000E+00 0. -1.
          3    1    5    5  503    0  0.61634277369E+02 -0.44116495202E+01 -0.91167878671E+02  0.11013550245E+03  0.00000000000E+00 0. -1.
         -4    1    5    5    0  503  0.46479226755E+03  0.19315206808E+03 -0.78469692097E+03  0.93224933958E+03  0.00000000000E+00 0.  1.
         -1    1    6    6    0  502 -0.46946846519E+01  0.43113757505E+02  0.77272098001E+02  0.88610458071E+02  0.00000000000E+00 0.  1.
<mgrwt>
<rscale>  0 0.15534250E+04</rscale>
<asrwt>0</asrwt>
<pdfrwt beam="1">  1        1 0.24956835E+00 0.15534250E+04</pdfrwt>
<pdfrwt beam="2">  1       -1 0.57214269E-01 0.15534250E+04</pdfrwt>
<totfact> 0.16052152E+01</totfact>
</mgrwt>
</event>
<event>
12    1  0.1496989E-007  0.1726972E+04  0.7818608E-02  0.8746129E-01
          2   -1    0    0  501    0  0.00000000000E+00  0.00000000000E+00  0.21898506988E+04  0.21898506988E+04  0.00000000000E+00 0. -1.
         -2   -1    0    0    0  501 -0.00000000000E+00 -0.00000000000E+00 -0.34048365456E+03  0.34048365456E+03  0.00000000000E+00 0.  1.
         23    2    1    2    0    0  0.33108308427E+03  0.52255068940E+03  0.61296285734E+03  0.87577693044E+03  0.92663562055E+02 0.  0.
        254    2    1    2    0    0 -0.33108308427E+03 -0.52255068940E+03  0.12364041869E+04  0.16545574229E+04  0.90894978997E+03 0.  0.
        -24    2    4    4    0    0  0.24299289186E+03 -0.17026726211E+03  0.86086429518E+02  0.31897704206E+03  0.79366201689E+02 0.  0.
         24    2    4    4    0    0 -0.57407597613E+03 -0.35228342729E+03  0.11503177574E+04  0.13355803809E+04  0.82928712115E+02 0.  0.
         11    1    3    3    0    0  0.29396630144E+03  0.49581458210E+03  0.54111716211E+03  0.79060487561E+03  0.00000000000E+00 0.  1.
        -11    1    3    3    0    0  0.37116782827E+02  0.26736107298E+02  0.71845695237E+02  0.85172054836E+02  0.00000000000E+00 0. -1.
          2    1    6    6  502    0 -0.44174505669E+03 -0.24675294396E+03  0.91697212375E+03  0.10473125542E+04  0.00000000000E+00 0. -1.
          1    1    5    5  503    0  0.19545299886E+02 -0.46215909195E+02  0.31250902603E+01  0.50276189191E+02  0.00000000000E+00 0. -1.
         -2    1    5    5    0  503  0.22344759198E+03 -0.12405135291E+03  0.82961339258E+02  0.26870085287E+03  0.00000000000E+00 0.  1.
         -1    1    6    6    0  502 -0.13233091945E+03 -0.10553048333E+03  0.23334563362E+03  0.28826782665E+03  0.00000000000E+00 0.  1.
<mgrwt>
<rscale>  0 0.17269723E+04</rscale>
<asrwt>0</asrwt>
<pdfrwt beam="1">  1        2 0.33690010E+00 0.17269723E+04</pdfrwt>
<pdfrwt beam="2">  1       -2 0.52382102E-01 0.17269723E+04</pdfrwt>
<totfact> 0.17095289E+01</totfact>
</mgrwt>
</event>
<event>
12    1  0.1496989E-007  0.1342439E+04  0.7818608E-02  0.8996572E-01
          2   -1    0    0  501    0  0.00000000000E+00  0.00000000000E+00  0.81249028218E+03  0.81249028218E+03  0.00000000000E+00 0. -1.
         -2   -1    0    0    0  501 -0.00000000000E+00 -0.00000000000E+00 -0.55451173534E+03  0.55451173534E+03  0.00000000000E+00 0.  1.
         23    2    1    2    0    0  0.29494425781E+03 -0.59176361868E+02  0.27367945672E+03  0.41680649457E+03  0.91286646663E+02 0.  0.
        254    2    1    2    0    0 -0.29494425781E+03  0.59176361868E+02 -0.15700909883E+02  0.95019552295E+03  0.90118314245E+03 0.  0.
        -24    2    4    4    0    0 -0.21915772329E+03  0.46824845525E+03  0.28967841508E+02  0.52418277664E+03  0.81496772714E+02 0.  0.
         24    2    4    4    0    0 -0.75786534526E+02 -0.40907209338E+03 -0.44668751392E+02  0.42601274631E+03  0.80049898610E+02 0.  0.
         11    1    3    3    0    0  0.72214841617E+02 -0.21370724727E+02  0.12636398275E+03  0.14710386590E+03  0.00000000000E+00 0.  1.
        -11    1    3    3    0    0  0.22272941620E+03 -0.37805637141E+02  0.14731547397E+03  0.26970262867E+03  0.00000000000E+00 0. -1.
          2    1    6    6  502    0 -0.30447723888E+02 -0.21750135151E+03  0.15477449453E+02  0.22016687589E+03  0.00000000000E+00 0. -1.
          3    1    5    5  503    0 -0.17873174247E+03  0.29470941570E+03  0.79658480673E+01  0.34476387602E+03  0.00000000000E+00 0. -1.
         -4    1    5    5    0  503 -0.40425980815E+02  0.17353903955E+03  0.21001993441E+02  0.17941890062E+03  0.00000000000E+00 0.  1.
         -1    1    6    6    0  502 -0.45338810638E+02 -0.19157074187E+03 -0.60146200845E+02  0.20584587042E+03  0.00000000000E+00 0.  1.
<mgrwt>
<rscale>  0 0.13424387E+04</rscale>
<asrwt>0</asrwt>
<pdfrwt beam="1">  1        2 0.12499851E+00 0.13424387E+04</pdfrwt>
<pdfrwt beam="2">  1       -2 0.85309498E-01 0.13424387E+04</pdfrwt>
<totfact> 0.39417047E+01</totfact>
</mgrwt>
</event>
<event>
12    1  0.1496989E-007  0.1782210E+04  0.7818608E-02  0.8715818E-01
          2   -1    0    0  501    0  0.00000000000E+00  0.00000000000E+00  0.91328038478E+03  0.91328038478E+03  0.00000000000E+00 0. -1.
         -2   -1    0    0    0  501 -0.00000000000E+00 -0.00000000000E+00 -0.86946804174E+03  0.86946804174E+03  0.00000000000E+00 0.  1.
         23    2    1    2    0    0 -0.20279684118E+03 -0.17707835529E+03  0.61083621958E+03  0.67288480907E+03  0.84674532317E+02 0.  0.
        254    2    1    2    0    0  0.20279684118E+03  0.17707835529E+03 -0.56702387653E+03  0.11098636174E+04  0.91531299022E+03 0.  0.
        -24    2    4    4    0    0  0.52020738599E+03  0.20432712793E+03 -0.15686790965E+03  0.58547469134E+03  0.76208749359E+02 0.  0.
         24    2    4    4    0    0 -0.31741054480E+03 -0.27248772640E+02 -0.41015596688E+03  0.52438892611E+03  0.72552595360E+02 0.  0.
         11    1    3    3    0    0 -0.91424141706E+02 -0.46529030870E+02  0.31019008843E+03  0.32671274135E+03  0.00000000000E+00 0. -1.
        -11    1    3    3    0    0 -0.11137269948E+03 -0.13054932442E+03  0.30064613115E+03  0.34617206772E+03  0.00000000000E+00 0.  1.
          4    1    6    6  502    0 -0.27272150631E+03 -0.14037688269E+02 -0.38321408033E+03  0.47056041913E+03  0.00000000000E+00 0. -1.
          1    1    5    5  503    0  0.51309229094E+03  0.21015431527E+03 -0.15134404106E+03  0.57474651283E+03  0.00000000000E+00 0. -1.
         -2    1    5    5    0  503  0.71150950468E+01 -0.58271873438E+01 -0.55238685911E+01  0.10728178507E+02  0.00000000000E+00 0.  1.
         -3    1    6    6    0  502 -0.44689038496E+02 -0.13211084371E+02 -0.26941886554E+02  0.53828506974E+02  0.00000000000E+00 0.  1.
<mgrwt>
<rscale>  0 0.17822100E+04</rscale>
<asrwt>0</asrwt>
<pdfrwt beam="1">  1        2 0.14050468E+00 0.17822100E+04</pdfrwt>
<pdfrwt beam="2">  1       -2 0.13376431E+00 0.17822100E+04</pdfrwt>
<totfact> 0.10966243E+01</totfact>
</mgrwt>
</event>
<event>
12    1  0.1496989E-007  0.1120970E+04  0.7818608E-02  0.9184991E-01
         -2   -1    0    0    0  501 -0.00000000000E+00  0.00000000000E+00  0.44498450391E+03  0.44498450391E+03  0.00000000000E+00 0.  1.
          2   -1    0    0  501    0  0.00000000000E+00 -0.00000000000E+00 -0.70596479174E+03  0.70596479174E+03  0.00000000000E+00 0. -1.
         23    2    1    2    0    0  0.84020916286E+01  0.17612055801E+03  0.50721246749E+01  0.19632375013E+03  0.86187251491E+02 0.  0.
        254    2    1    2    0    0 -0.84020916286E+01 -0.17612055801E+03 -0.26605241250E+03  0.95462554551E+03  0.89968716777E+03 0.  0.
        -24    2    4    4    0    0 -0.42018572121E+03 -0.29894782181E+01  0.23621711125E+01  0.42729713997E+03  0.77538949443E+02 0.  0.
         24    2    4    4    0    0  0.41178362958E+03 -0.17313107979E+03 -0.26841458362E+03  0.52732840555E+03  0.80552654911E+02 0.  0.
         11    1    3    3    0    0  0.24980963668E+02  0.12153864317E+03  0.38862068035E+02  0.13002288515E+03  0.00000000000E+00 0.  1.
        -11    1    3    3    0    0 -0.16578872039E+02  0.54581914836E+02 -0.33789943360E+02  0.66300864984E+02  0.00000000000E+00 0. -1.
          2    1    6    6  502    0  0.33905229878E+03 -0.17209309985E+03 -0.21247062650E+03  0.43556430460E+03  0.00000000000E+00 0. -1.
          1    1    5    5  503    0 -0.40350229901E+03 -0.18733447912E+02  0.64920057940E+01  0.40398910074E+03  0.00000000000E+00 0. -1.
         -2    1    5    5    0  503 -0.16683422201E+02  0.15743969694E+02 -0.41298346815E+01  0.23308039226E+02  0.00000000000E+00 0.  1.
         -1    1    6    6    0  502  0.72731330807E+02 -0.10379799450E+01 -0.55943957121E+02  0.91764100941E+02  0.00000000000E+00 0.  1.
<mgrwt>
<rscale>  0 0.11209699E+04</rscale>
<asrwt>0</asrwt>
<pdfrwt beam="1">  1        2 0.10860997E+00 0.11209699E+04</pdfrwt>
<pdfrwt beam="2">  1       -2 0.68459155E-01 0.11209699E+04</pdfrwt>
<totfact> 0.78479053E+01</totfact>
</mgrwt>
</event>
<event>
12    1  0.1496989E-007  0.1262068E+04  0.7818608E-02  0.9060199E-01
         -2   -1    0    0    0  501 -0.00000000000E+00  0.00000000000E+00  0.41979878473E+03  0.41979878473E+03  0.00000000000E+00 0. -1.
          2   -1    0    0  501    0  0.00000000000E+00 -0.00000000000E+00 -0.94855849342E+03  0.94855849342E+03  0.00000000000E+00 0.  1.
         23    2    1    2    0    0 -0.32385220525E+03 -0.10129252452E+03 -0.33786503962E+03  0.48729531804E+03  0.90352175538E+02 0.  0.
        254    2    1    2    0    0  0.32385220525E+03  0.10129252452E+03 -0.19089466908E+03  0.88106196011E+03  0.79037268204E+03 0.  0.
        -24    2    4    4    0    0  0.46970941174E+03  0.10428572439E+03  0.14287839192E+03  0.50808038696E+03  0.78924020096E+02 0.  0.
         24    2    4    4    0    0 -0.14585720650E+03 -0.29931998716E+01 -0.33377306100E+03  0.37298157315E+03  0.80171776359E+02 0.  0.
         13    1    3    3    0    0 -0.22775764408E+03 -0.99870131556E+02 -0.28255570615E+03  0.37641109800E+03  0.00000000000E+00 0.  1.
        -13    1    3    3    0    0 -0.96094561163E+02 -0.14223929640E+01 -0.55309333461E+02  0.11088422004E+03  0.00000000000E+00 0. -1.
          2    1    6    6  502    0 -0.13223370088E+03 -0.21041684203E+02 -0.31902376188E+03  0.34598361921E+03  0.00000000000E+00 0. -1.
          1    1    5    5  503    0  0.45156577290E+03  0.82526787222E+02  0.13110121763E+03  0.47739904391E+03  0.00000000000E+00 0. -1.
         -2    1    5    5    0  503  0.18143638844E+02  0.21758937169E+02  0.11777174297E+02  0.30681343055E+02  0.00000000000E+00 0.  1.
         -1    1    6    6    0  502 -0.13623505613E+02  0.18048484332E+02 -0.14749299127E+02  0.26997953933E+02  0.00000000000E+00 0.  1.
<mgrwt>
<rscale>  0 0.12620677E+04</rscale>
<asrwt>0</asrwt>
<pdfrwt beam="1">  1        2 0.14593208E+00 0.12620677E+04</pdfrwt>
<pdfrwt beam="2">  1       -2 0.64584429E-01 0.12620677E+04</pdfrwt>
<totfact> 0.59199979E+01</totfact>
</mgrwt>
</event>
<event>
12    1  0.1496989E-007  0.2637427E+04  0.7818608E-02  0.8355598E-01
         -2   -1    0    0    0  501 -0.00000000000E+00  0.00000000000E+00  0.13868128801E+04  0.13868128801E+04  0.00000000000E+00 0.  1.
          2   -1    0    0  501    0  0.00000000000E+00 -0.00000000000E+00 -0.12539584457E+04  0.12539584457E+04  0.00000000000E+00 0. -1.
         23    2    1    2    0    0 -0.43320233321E+03 -0.70404594194E+03 -0.75767747478E+03  0.11250190408E+04  0.90817050093E+02 0.  0.
        254    2    1    2    0    0  0.43320233321E+03  0.70404594194E+03  0.89053190919E+03  0.15157522849E+04  0.90615283376E+03 0.  0.
        -24    2    4    4    0    0  0.51080028957E+02 -0.63529475458E+02  0.59333306299E+03  0.60463299492E+03  0.83016692888E+02 0.  0.
         24    2    4    4    0    0  0.38212230426E+03  0.76757541740E+03  0.29719884620E+03  0.91111929002E+03  0.81374010906E+02 0.  0.
         13    1    3    3    0    0 -0.43466682206E+03 -0.70543072248E+03 -0.75187367142E+03  0.11188752246E+04  0.00000000000E+00 0. -1.
        -13    1    3    3    0    0  0.14644888462E+01  0.13847805335E+01 -0.58038033588E+01  0.61438162517E+01  0.00000000000E+00 0.  1.
          4    1    6    6  502    0  0.50751837111E+02  0.97632831178E+02  0.67996307040E+02  0.12934997667E+03  0.00000000000E+00 0. -1.
          1    1    5    5  503    0  0.42680347895E+01 -0.68190331549E+02  0.31195300179E+03  0.31934747965E+03  0.00000000000E+00 0. -1.
         -2    1    5    5    0  503  0.46811994168E+02  0.46608560908E+01  0.28138006120E+03  0.28528551526E+03  0.00000000000E+00 0.  1.
         -3    1    6    6    0  502  0.33137046714E+03  0.66994258622E+03  0.22920253916E+03  0.78176931335E+03  0.00000000000E+00 0.  1.
<mgrwt>
<rscale>  0 0.26374273E+04</rscale>
<asrwt>0</asrwt>
<pdfrwt beam="1">  1        2 0.19291668E+00 0.26374273E+04</pdfrwt>
<pdfrwt beam="2">  1       -2 0.21335583E+00 0.26374273E+04</pdfrwt>
<totfact> 0.16903930E+00</totfact>
</mgrwt>
</event>
<event>
12    1  0.1496989E-007  0.1147953E+04  0.7818608E-02  0.9159674E-01
         -2   -1    0    0    0  501 -0.00000000000E+00  0.00000000000E+00  0.62647477455E+03  0.62647477455E+03  0.00000000000E+00 0.  1.
          2   -1    0    0  501    0  0.00000000000E+00 -0.00000000000E+00 -0.52587717949E+03  0.52587717949E+03  0.00000000000E+00 0. -1.
         23    2    1    2    0    0  0.18867546220E+03 -0.10260981618E+03  0.52460622916E+02  0.23929639375E+03  0.91561141846E+02 0.  0.
        254    2    1    2    0    0 -0.18867546220E+03  0.10260981618E+03  0.48136972139E+02  0.91305556029E+03  0.88612983455E+03 0.  0.
        -24    2    4    4    0    0 -0.20177464011E+03  0.46943139461E+03 -0.62642954154E+02  0.52082143577E+03  0.79069517590E+02 0.  0.
         24    2    4    4    0    0  0.13099177917E+02 -0.36682157843E+03  0.11077992629E+03  0.39223412452E+03  0.82739092962E+02 0.  0.
         11    1    3    3    0    0  0.16002485306E+03 -0.10253319708E+03  0.73476705978E+02  0.20376416864E+03  0.00000000000E+00 0.  1.
        -11    1    3    3    0    0  0.28650609134E+02 -0.76619098932E-01 -0.21016083061E+02  0.35532225113E+02  0.00000000000E+00 0. -1.
          2    1    6    6  502    0 -0.26738818466E+02 -0.49771004131E+02  0.21513267448E+02  0.60456082750E+02  0.00000000000E+00 0. -1.
          3    1    5    5  503    0 -0.17789226396E+03  0.44733595606E+03 -0.72470723059E+02  0.48683377128E+03  0.00000000000E+00 0. -1.
         -4    1    5    5    0  503 -0.23882376157E+02  0.22095438552E+02  0.98277689055E+01  0.33987664488E+02  0.00000000000E+00 0.  1.
         -1    1    6    6    0  502  0.39837996383E+02 -0.31705057430E+03  0.89266658845E+02  0.33177804177E+03  0.00000000000E+00 0.  1.
<mgrwt>
<rscale>  0 0.11479526E+04</rscale>
<asrwt>0</asrwt>
<pdfrwt beam="1">  1        2 0.80904182E-01 0.11479526E+04</pdfrwt>
<pdfrwt beam="2">  1       -2 0.96380734E-01 0.11479526E+04</pdfrwt>
<totfact> 0.51796205E+01</totfact>
</mgrwt>
</event>
<event>
12    1  0.1496989E-007  0.4074498E+04  0.7818608E-02  0.7989684E-01
          1   -1    0    0  501    0  0.00000000000E+00  0.00000000000E+00  0.33433305504E+04  0.33433305504E+04  0.00000000000E+00 0. -1.
         -1   -1    0    0    0  501 -0.00000000000E+00 -0.00000000000E+00 -0.12413918446E+04  0.12413918446E+04  0.00000000000E+00 0.  1.
         23    2    1    2    0    0 -0.91698260886E+03  0.70868450827E+03 -0.74289638589E+03  0.13798246859E+04  0.94500192799E+02 0.  0.
        254    2    1    2    0    0  0.91698260886E+03 -0.70868450827E+03  0.28448350917E+04  0.32048977092E+04  0.91388828088E+03 0.  0.
        -24    2    4    4    0    0  0.39742634974E+02  0.14405448904E+03  0.82415311072E+03  0.84134532966E+03  0.79387914642E+02 0.  0.
         24    2    4    4    0    0  0.87723997389E+03 -0.85273899731E+03  0.20206819810E+04  0.23635523795E+04  0.80687130292E+02 0.  0.
         13    1    3    3    0    0 -0.51178296487E+02  0.31239386475E+02 -0.16546099733E+02  0.62200407675E+02  0.00000000000E+00 0. -1.
        -13    1    3    3    0    0 -0.86580431237E+03  0.67744512179E+03 -0.72635028616E+03  0.13176242782E+04  0.00000000000E+00 0.  1.
          2    1    6    6  502    0  0.66042865561E+03 -0.61799006936E+03  0.15513057349E+04  0.17957247055E+04  0.00000000000E+00 0. -1.
          3    1    5    5  503    0  0.37411834474E+02  0.15422539275E+03  0.76664834776E+03  0.78290153037E+03  0.00000000000E+00 0. -1.
         -4    1    5    5    0  503  0.23308004997E+01 -0.10170903710E+02  0.57504762956E+02  0.58443799293E+02  0.00000000000E+00 0.  1.
         -1    1    6    6    0  502  0.21681131828E+03 -0.23474892796E+03  0.46937624611E+03  0.56782767397E+03  0.00000000000E+00 0.  1.
<mgrwt>
<rscale>  0 0.40744979E+04</rscale>
<asrwt>0</asrwt>
<pdfrwt beam="1">  1        1 0.51435854E+00 0.40744979E+04</pdfrwt>
<pdfrwt beam="2">  1       -1 0.19098336E+00 0.40744979E+04</pdfrwt>
<totfact> 0.44712512E-02</totfact>
</mgrwt>
</event>
<event>
12    1  0.1496989E-007  0.1728187E+04  0.7818608E-02  0.8745450E-01
          2   -1    0    0  501    0  0.00000000000E+00  0.00000000000E+00  0.12879784662E+04  0.12879784662E+04  0.00000000000E+00 0. -1.
         -2   -1    0    0    0  501 -0.00000000000E+00 -0.00000000000E+00 -0.57971260475E+03  0.57971260475E+03  0.00000000000E+00 0.  1.
         23    2    1    2    0    0 -0.40448666832E+03 -0.23251265638E+03 -0.19433305160E+03  0.51392548822E+03  0.93179784677E+02 0.  0.
        254    2    1    2    0    0  0.40448666832E+03  0.23251265638E+03  0.90259891302E+03  0.13537655827E+04  0.89460877198E+03 0.  0.
        -24    2    4    4    0    0 -0.20160045703E+03  0.12253507128E+03  0.62660800157E+03  0.67432467291E+03  0.80116096379E+02 0.  0.
         24    2    4    4    0    0  0.60608712536E+03  0.10997758510E+03  0.27599091145E+03  0.67944090979E+03  0.77667843733E+02 0.  0.
         13    1    3    3    0    0  0.16293747085E+01 -0.14446078130E+02 -0.90383120691E+01  0.17118268614E+02  0.00000000000E+00 0. -1.
        -13    1    3    3    0    0 -0.40611604303E+03 -0.21806657825E+03 -0.18529473953E+03  0.49680721961E+03  0.00000000000E+00 0.  1.
          4    1    6    6  502    0  0.58268081410E+03  0.11639701135E+03  0.27601243044E+03  0.65517025049E+03  0.00000000000E+00 0. -1.
          1    1    5    5  503    0 -0.17536842348E+03  0.67201619614E+02  0.46372395225E+03  0.50030994945E+03  0.00000000000E+00 0. -1.
         -2    1    5    5    0  503 -0.26232033550E+02  0.55333451664E+02  0.16288404932E+03  0.17401472346E+03  0.00000000000E+00 0.  1.
         -3    1    6    6    0  502  0.23406311253E+02 -0.64194262462E+01 -0.21518987855E-01  0.24270659300E+02  0.00000000000E+00 0.  1.
<mgrwt>
<rscale>  0 0.17281867E+04</rscale>
<asrwt>0</asrwt>
<pdfrwt beam="1">  1        2 0.19815053E+00 0.17281867E+04</pdfrwt>
<pdfrwt beam="2">  1       -2 0.89186555E-01 0.17281867E+04</pdfrwt>
<totfact> 0.17217075E+01</totfact>
</mgrwt>
</event>
<event>
12    1  0.1496989E-007  0.1926287E+04  0.7818608E-02  0.8641881E-01
          1   -1    0    0  501    0  0.00000000000E+00  0.00000000000E+00  0.13771727981E+04  0.13771727981E+04  0.00000000000E+00 0. -1.
         -1   -1    0    0    0  501 -0.00000000000E+00 -0.00000000000E+00 -0.67358673703E+03  0.67358673703E+03  0.00000000000E+00 0.  1.
         23    2    1    2    0    0  0.24612080094E+03  0.50572960890E+03  0.80311300821E+03  0.98337362357E+03  0.75467169101E+02 0.  0.
        254    2    1    2    0    0 -0.24612080094E+03 -0.50572960890E+03 -0.99526947095E+02  0.10673859116E+04  0.90170349068E+03 0.  0.
        -24    2    4    4    0    0  0.26466482883E+03 -0.46575369820E+03 -0.88789129574E+02  0.54882744365E+03  0.79712448050E+02 0.  0.
         24    2    4    4    0    0 -0.51078562977E+03 -0.39975910698E+02 -0.10737817521E+02  0.51855846794E+03  0.79294078804E+02 0.  0.
         11    1    3    3    0    0  0.21366040104E+03  0.43983034535E+03  0.73750236754E+03  0.88487922441E+03  0.00000000000E+00 0. -1.
        -11    1    3    3    0    0  0.32460399903E+02  0.65899263543E+02  0.65610640672E+02  0.98494399165E+02  0.00000000000E+00 0.  1.
          2    1    6    6  502    0 -0.49172925919E+03 -0.23330933625E+02 -0.16691239125E+02  0.49256531980E+03  0.00000000000E+00 0. -1.
          3    1    5    5  503    0  0.98838406768E+02 -0.25079773366E+03 -0.56499994946E+02  0.27542836326E+03  0.00000000000E+00 0. -1.
         -4    1    5    5    0  503  0.16582642206E+03 -0.21495596454E+03 -0.32289134628E+02  0.27339908039E+03  0.00000000000E+00 0.  1.
         -1    1    6    6    0  502 -0.19056370578E+02 -0.16644977073E+02  0.59534216038E+01  0.25993148138E+02  0.00000000000E+00 0.  1.
<mgrwt>
<rscale>  0 0.19262869E+04</rscale>
<asrwt>0</asrwt>
<pdfrwt beam="1">  1        1 0.21187274E+00 0.19262869E+04</pdfrwt>
<pdfrwt beam="2">  1       -1 0.10362873E+00 0.19262869E+04</pdfrwt>
<totfact> 0.65334193E+00</totfact>
</mgrwt>
</event>
<event>
12    1  0.1496989E-007  0.1436759E+04  0.7818608E-02  0.8927632E-01
         -2   -1    0    0    0  501 -0.00000000000E+00  0.00000000000E+00  0.10927236332E+04  0.10927236332E+04  0.00000000000E+00 0.  1.
          2   -1    0    0  501    0  0.00000000000E+00 -0.00000000000E+00 -0.47227787258E+03  0.47227787258E+03  0.00000000000E+00 0. -1.
         23    2    1    2    0    0 -0.91728632714E+02 -0.26275061446E+03 -0.15790907581E+03  0.33208757909E+03  0.88853005021E+02 0.  0.
        254    2    1    2    0    0  0.91728632714E+02  0.26275061446E+03  0.77835483646E+03  0.12329139267E+04  0.91476142889E+03 0.  0.
        -24    2    4    4    0    0  0.30396523653E+03 -0.13989588924E+03  0.67828582026E+03  0.76052136195E+03  0.79720531643E+02 0.  0.
         24    2    4    4    0    0 -0.21223660382E+03  0.40264650371E+03  0.10006901621E+03  0.47239256477E+03  0.77280943929E+02 0.  0.
         13    1    3    3    0    0 -0.56009867933E+02 -0.14523989650E+03 -0.37560148648E+02  0.16013274995E+03  0.00000000000E+00 0.  1.
        -13    1    3    3    0    0 -0.35718764780E+02 -0.11751071796E+03 -0.12034892716E+03  0.17195482914E+03  0.00000000000E+00 0. -1.
          2    1    6    6  502    0 -0.92146649804E+02  0.11191423025E+03  0.52894511162E+02  0.15431665275E+03  0.00000000000E+00 0. -1.
          3    1    5    5  503    0  0.16933908593E+03 -0.36404876012E+02  0.31405755173E+03  0.35865469023E+03  0.00000000000E+00 0. -1.
         -4    1    5    5    0  503  0.13462615060E+03 -0.10349101323E+03  0.36422826853E+03  0.40186667172E+03  0.00000000000E+00 0.  1.
         -1    1    6    6    0  502 -0.12008995402E+03  0.29073227345E+03  0.47174505044E+02  0.31807591202E+03  0.00000000000E+00 0.  1.
<mgrwt>
<rscale>  0 0.14367591E+04</rscale>
<asrwt>0</asrwt>
<pdfrwt beam="1">  1        2 0.72658134E-01 0.14367591E+04</pdfrwt>
<pdfrwt beam="2">  1       -2 0.16811133E+00 0.14367591E+04</pdfrwt>
<totfact> 0.14025514E+01</totfact>
</mgrwt>
</event>
<event>
12    1  0.1496989E-007  0.1535937E+04  0.7818608E-02  0.8860900E-01
         -2   -1    0    0    0  501 -0.00000000000E+00  0.00000000000E+00  0.44368612803E+03  0.44368612803E+03  0.00000000000E+00 0.  1.
          2   -1    0    0  501    0  0.00000000000E+00 -0.00000000000E+00 -0.13292638615E+04  0.13292638615E+04  0.00000000000E+00 0. -1.
         23    2    1    2    0    0 -0.88945124404E+02  0.57914157489E+02  0.27102884754E+03  0.30318939382E+03  0.84863935419E+02 0.  0.
        254    2    1    2    0    0  0.88945124404E+02 -0.57914157489E+02 -0.11566065810E+04  0.14697605957E+04  0.90066205686E+03 0.  0.
        -24    2    4    4    0    0  0.30633592543E+03  0.23167264966E+03 -0.98703704985E+03  0.10622424622E+04  0.81258814716E+02 0.  0.
         24    2    4    4    0    0 -0.21739080103E+03 -0.28958680714E+03 -0.16956953119E+03  0.40751813350E+03  0.78726894914E+02 0.  0.
         11    1    3    3    0    0 -0.18344068712E+02 -0.10220929369E+02  0.12818753247E+03  0.12989617290E+03  0.00000000000E+00 0.  1.
        -11    1    3    3    0    0 -0.70601055692E+02  0.68135086858E+02  0.14284131507E+03  0.17329322092E+03  0.00000000000E+00 0. -1.
          4    1    6    6  502    0 -0.21196503078E+03 -0.28457868770E+03 -0.17743203817E+03  0.39673206568E+03  0.00000000000E+00 0. -1.
          1    1    5    5  503    0  0.15202587986E+03  0.88222966906E+02 -0.35726716338E+03  0.39816452136E+03  0.00000000000E+00 0. -1.
         -2    1    5    5    0  503  0.15431004558E+03  0.14344968275E+03 -0.62976988647E+03  0.66407794087E+03  0.00000000000E+00 0.  1.
         -3    1    6    6    0  502 -0.54257702475E+01 -0.50081194403E+01  0.78625069798E+01  0.10786067825E+02  0.00000000000E+00 0.  1.
<mgrwt>
<rscale>  0 0.15359374E+04</rscale>
<asrwt>0</asrwt>
<pdfrwt beam="1">  1        2 0.20450213E+00 0.15359374E+04</pdfrwt>
<pdfrwt beam="2">  1       -2 0.68259405E-01 0.15359374E+04</pdfrwt>
<totfact> 0.30079664E+01</totfact>
</mgrwt>
</event>
<event>
12    1  0.1496989E-007  0.1870201E+04  0.7818608E-02  0.8669833E-01
          2   -1    0    0  501    0  0.00000000000E+00  0.00000000000E+00  0.17613387525E+04  0.17613387525E+04  0.00000000000E+00 0. -1.
         -2   -1    0    0    0  501 -0.00000000000E+00 -0.00000000000E+00 -0.49644788766E+03  0.49644788766E+03  0.00000000000E+00 0.  1.
         23    2    1    2    0    0 -0.72572428184E+02 -0.63215184742E+03  0.99090543249E+02  0.65042797966E+03  0.91405171808E+02 0.  0.
        254    2    1    2    0    0  0.72572428184E+02  0.63215184742E+03  0.11658003216E+04  0.16073586605E+04  0.90533350660E+03 0.  0.
        -24    2    4    4    0    0  0.37756841319E+03  0.53218846088E+03  0.39134930999E+03  0.76519649061E+03  0.81172176746E+02 0.  0.
         24    2    4    4    0    0 -0.30499598501E+03  0.99963386534E+02  0.77445101161E+03  0.84216216991E+03  0.80296460156E+02 0.  0.
         11    1    3    3    0    0 -0.22416701549E+02 -0.10366824543E+03  0.50137301389E+02  0.11731735852E+03  0.00000000000E+00 0. -1.
        -11    1    3    3    0    0 -0.50155726635E+02 -0.52848360198E+03  0.48953241861E+02  0.53311062114E+03  0.00000000000E+00 0.  1.
          4    1    6    6  502    0 -0.27429739616E+03  0.85021165475E+02  0.73950373222E+03  0.79330538262E+03  0.00000000000E+00 0. -1.
          1    1    5    5  503    0  0.34607472740E+03  0.51808799813E+03  0.37091518087E+03  0.72509376093E+03  0.00000000000E+00 0. -1.
         -2    1    5    5    0  503  0.31493685791E+02  0.14100462759E+02  0.20434129122E+02  0.40102729679E+02  0.00000000000E+00 0.  1.
         -3    1    6    6    0  502 -0.30698588847E+02  0.14942221059E+02  0.34947279394E+02  0.48856787291E+02  0.00000000000E+00 0.  1.
<mgrwt>
<rscale>  0 0.18702010E+04</rscale>
<asrwt>0</asrwt>
<pdfrwt beam="1">  1        2 0.27097519E+00 0.18702010E+04</pdfrwt>
<pdfrwt beam="2">  1       -2 0.76376599E-01 0.18702010E+04</pdfrwt>
<totfact> 0.13050845E+01</totfact>
</mgrwt>
</event>
<event>
12    1  0.1496989E-007  0.2126132E+04  0.7818608E-02  0.8549819E-01
          2   -1    0    0  501    0  0.00000000000E+00  0.00000000000E+00  0.13480490895E+04  0.13480490895E+04  0.00000000000E+00 0. -1.
         -2   -1    0    0    0  501 -0.00000000000E+00 -0.00000000000E+00 -0.83832945253E+03  0.83832945253E+03  0.00000000000E+00 0.  1.
         23    2    1    2    0    0 -0.81954236664E+03 -0.27335487393E+03  0.14145967647E+03  0.88061612219E+03  0.95400926508E+02 0.  0.
        254    2    1    2    0    0  0.81954236664E+03  0.27335487393E+03  0.36825996049E+03  0.13057624198E+04  0.90720864233E+03 0.  0.
        -24    2    4    4    0    0  0.68042234188E+03  0.48722264320E+03  0.52830154923E+03  0.99295586125E+03  0.80612332145E+02 0.  0.
         24    2    4    4    0    0  0.13912002476E+03 -0.21386776927E+03 -0.16004158875E+03  0.31280655858E+03  0.84503425601E+02 0.  0.
         11    1    3    3    0    0 -0.45751428012E+02 -0.10596173986E+02  0.30335802021E+02  0.55908254780E+02  0.00000000000E+00 0. -1.
        -11    1    3    3    0    0 -0.77379093863E+03 -0.26275869994E+03  0.11112387445E+03  0.82470786741E+03  0.00000000000E+00 0.  1.
          4    1    6    6  502    0 -0.55198582124E+01 -0.40591573566E+02 -0.39578919252E+02  0.56961702296E+02  0.00000000000E+00 0. -1.
          3    1    5    5  503    0  0.40920924468E+03  0.26800251972E+03  0.26780160028E+03  0.55766948422E+03  0.00000000000E+00 0. -1.
         -4    1    5    5    0  503  0.27121309720E+03  0.21922012348E+03  0.26049994895E+03  0.43528637704E+03  0.00000000000E+00 0.  1.
         -3    1    6    6    0  502  0.14463988297E+03 -0.17327619571E+03 -0.12046266949E+03  0.25584485628E+03  0.00000000000E+00 0.  1.
<mgrwt>
<rscale>  0 0.21261319E+04</rscale>
<asrwt>0</asrwt>
<pdfrwt beam="1">  1        2 0.20739217E+00 0.21261319E+04</pdfrwt>
<pdfrwt beam="2">  1       -2 0.12897376E+00 0.21261319E+04</pdfrwt>
<totfact> 0.63178391E+00</totfact>
</mgrwt>
</event>
<event>
12    1  0.1496989E-007  0.1772730E+04  0.7818608E-02  0.8720937E-01
          3   -1    0    0  501    0  0.00000000000E+00  0.00000000000E+00  0.42695213125E+03  0.42695213125E+03  0.00000000000E+00 0. -1.
         -3   -1    0    0    0  501 -0.00000000000E+00 -0.00000000000E+00 -0.18401191192E+04  0.18401191192E+04  0.00000000000E+00 0.  1.
         23    2    1    2    0    0  0.41861290891E+03  0.26163854619E+03 -0.66749285595E+02  0.50634730270E+03  0.90777901856E+02 0.  0.
        254    2    1    2    0    0 -0.41861290891E+03 -0.26163854619E+03 -0.13464177024E+04  0.17607239478E+04  0.10215755942E+04 0.  0.
        -24    2    4    4    0    0 -0.28387314867E+03  0.18723501679E+03 -0.12199952664E+04  0.12689905428E+04  0.79420599449E+02 0.  0.
         24    2    4    4    0    0 -0.13473976023E+03 -0.44887356299E+03 -0.12642243603E+03  0.49173340502E+03  0.78592816123E+02 0.  0.
         13    1    3    3    0    0  0.30650027169E+03  0.14371503368E+03 -0.32569656120E+02  0.34008412187E+03  0.00000000000E+00 0. -1.
        -13    1    3    3    0    0  0.11211263722E+03  0.11792351251E+03 -0.34179629475E+02  0.16626318083E+03  0.00000000000E+00 0.  1.
          4    1    6    6  502    0 -0.16622806031E+02 -0.57059915893E+02 -0.44840997573E+02  0.74450431465E+02  0.00000000000E+00 0. -1.
          3    1    5    5  503    0 -0.80584394534E+02  0.13405464706E+02 -0.27696443115E+03  0.28876088248E+03  0.00000000000E+00 0. -1.
         -4    1    5    5    0  503 -0.20328875414E+03  0.17382955209E+03 -0.94303083521E+03  0.98022966028E+03  0.00000000000E+00 0.  1.
         -3    1    6    6    0  502 -0.11811695420E+03 -0.39181364709E+03 -0.81581438454E+02  0.41728297356E+03  0.00000000000E+00 0.  1.
<mgrwt>
<rscale>  0 0.17727298E+04</rscale>
<asrwt>0</asrwt>
<pdfrwt beam="1">  1        3 0.65684944E-01 0.17727298E+04</pdfrwt>
<pdfrwt beam="2">  1       -3 0.28309525E+00 0.17727298E+04</pdfrwt>
<totfact> 0.26264024E-01</totfact>
</mgrwt>
</event>
<event>
12    1  0.1496989E-007  0.2213685E+04  0.7818608E-02  0.8512754E-01
         -2   -1    0    0    0  501 -0.00000000000E+00  0.00000000000E+00  0.48164833086E+03  0.48164833086E+03  0.00000000000E+00 0.  1.
          2   -1    0    0  501    0  0.00000000000E+00 -0.00000000000E+00 -0.25435581526E+04  0.25435581526E+04  0.00000000000E+00 0. -1.
         23    2    1    2    0    0  0.90072974841E+03  0.10544171637E+02 -0.55107258145E+03  0.10601427935E+04  0.93789622583E+02 0.  0.
        254    2    1    2    0    0 -0.90072974841E+03 -0.10544171637E+02 -0.15108372403E+04  0.19650636900E+04  0.87602561599E+03 0.  0.
        -24    2    4    4    0    0  0.81979814592E+02 -0.15795365369E+02 -0.63782727540E+03  0.64806240958E+03  0.78683352091E+02 0.  0.
         24    2    4    4    0    0 -0.98270956300E+03  0.52511937322E+01 -0.87300996493E+03  0.13170012804E+04  0.81242314060E+02 0.  0.
         13    1    3    3    0    0  0.66464358097E+03 -0.26500492636E+02 -0.37794837262E+03  0.76504793197E+03  0.00000000000E+00 0.  1.
        -13    1    3    3    0    0  0.23608616743E+03  0.37044664272E+02 -0.17312420883E+03  0.29509486151E+03  0.00000000000E+00 0. -1.
          4    1    6    6  502    0 -0.45724778452E+03  0.24210396211E+02 -0.36085953709E+03  0.58299338353E+03  0.00000000000E+00 0. -1.
          3    1    5    5  503    0 -0.35722535125E+01 -0.82101026507E+01 -0.68679647843E+01  0.11284313048E+02  0.00000000000E+00 0. -1.
         -4    1    5    5    0  503  0.85552068105E+02 -0.75852627181E+01 -0.63095931062E+03  0.63677809653E+03  0.00000000000E+00 0.  1.
         -3    1    6    6    0  502 -0.52546177848E+03 -0.18959202479E+02 -0.51215042784E+03  0.73400789692E+03  0.00000000000E+00 0.  1.
<mgrwt>
<rscale>  0 0.22136852E+04</rscale>
<asrwt>0</asrwt>
<pdfrwt beam="1">  1        2 0.39131664E+00 0.22136852E+04</pdfrwt>
<pdfrwt beam="2">  1       -2 0.74099744E-01 0.22136852E+04</pdfrwt>
<totfact> 0.49180459E+00</totfact>
</mgrwt>
</event>
<event>
12    1  0.1496989E-007  0.1815702E+04  0.7818608E-02  0.8697993E-01
         -2   -1    0    0    0  501 -0.00000000000E+00  0.00000000000E+00  0.10762763862E+04  0.10762763862E+04  0.00000000000E+00 0. -1.
          2   -1    0    0  501    0  0.00000000000E+00 -0.00000000000E+00 -0.76578269548E+03  0.76578269548E+03  0.00000000000E+00 0.  1.
         23    2    1    2    0    0  0.44501602571E+02 -0.20789879606E+03  0.77691650921E+03  0.81064031037E+03  0.91302510780E+02 0.  0.
        254    2    1    2    0    0 -0.44501602571E+02  0.20789879606E+03 -0.46642281846E+03  0.10314187713E+04  0.89502633160E+03 0.  0.
        -24    2    4    4    0    0 -0.42581036525E+03  0.18963846572E+03 -0.74727639684E+02  0.47890122834E+03  0.80529196818E+02 0.  0.
         24    2    4    4    0    0  0.38130876268E+03  0.18260330342E+02 -0.39169517877E+03  0.55251754300E+03  0.78234967147E+02 0.  0.
         11    1    3    3    0    0  0.43291595093E+01 -0.17051339382E+03  0.49868707710E+03  0.52705062372E+03  0.00000000000E+00 0. -1.
        -11    1    3    3    0    0  0.40172443061E+02 -0.37385402241E+02  0.27822943211E+03  0.28358968665E+03  0.00000000000E+00 0.  1.
          2    1    6    6  502    0  0.92412014993E+02 -0.31571510614E+00 -0.14614060307E+03  0.17290794099E+03  0.00000000000E+00 0. -1.
          1    1    5    5  503    0 -0.52710062343E+02  0.25731502287E+01 -0.25587533156E+02  0.58648901331E+02  0.00000000000E+00 0. -1.
         -2    1    5    5    0  503 -0.37310030291E+03  0.18706531549E+03 -0.49140106528E+02  0.42025232701E+03  0.00000000000E+00 0.  1.
         -1    1    6    6    0  502  0.28889674769E+03  0.18576045448E+02 -0.24555457570E+03  0.37960960201E+03  0.00000000000E+00 0.  1.
<mgrwt>
<rscale>  0 0.18157024E+04</rscale>
<asrwt>0</asrwt>
<pdfrwt beam="1">  1        2 0.11781272E+00 0.18157024E+04</pdfrwt>
<pdfrwt beam="2">  1       -2 0.16558098E+00 0.18157024E+04</pdfrwt>
<totfact> 0.78854771E+00</totfact>
</mgrwt>
</event>
<event>
12    1  0.1496989E-007  0.1569654E+04  0.7818608E-02  0.8839410E-01
          1   -1    0    0  501    0  0.00000000000E+00  0.00000000000E+00  0.46416513604E+03  0.46416513604E+03  0.00000000000E+00 0. -1.
         -1   -1    0    0    0  501 -0.00000000000E+00 -0.00000000000E+00 -0.13270140885E+04  0.13270140885E+04  0.00000000000E+00 0.  1.
         23    2    1    2    0    0  0.76540131184E+02 -0.38863720833E+03 -0.66875150304E+03  0.78252647608E+03  0.90674371065E+02 0.  0.
        254    2    1    2    0    0 -0.76540131184E+02  0.38863720833E+03 -0.19409744938E+03  0.10086527484E+04  0.90708835054E+03 0.  0.
        -24    2    4    4    0    0  0.67583085860E+02  0.23835682777E+02 -0.49541118166E+03  0.50737568182E+03  0.82838579943E+02 0.  0.
         24    2    4    4    0    0 -0.14412321704E+03  0.36480152555E+03  0.30131373228E+03  0.50127706661E+03  0.81468260783E+02 0.  0.
         11    1    3    3    0    0 -0.31603435092E+01 -0.12894072353E+03 -0.15738449064E+03  0.20348360093E+03  0.00000000000E+00 0. -1.
        -11    1    3    3    0    0  0.79700474693E+02 -0.25969648479E+03 -0.51136701241E+03  0.57904287515E+03  0.00000000000E+00 0.  1.
          2    1    6    6  502    0 -0.69011844823E+02  0.24535805675E+03  0.22939915740E+03  0.34290987760E+03  0.00000000000E+00 0. -1.
          1    1    5    5  503    0  0.20938960241E+02  0.34241159276E+02 -0.38472522765E+03  0.38681313038E+03  0.00000000000E+00 0. -1.
         -2    1    5    5    0  503  0.46644125619E+02 -0.10405476499E+02 -0.11068595401E+03  0.12056255144E+03  0.00000000000E+00 0.  1.
         -1    1    6    6    0  502 -0.75111372220E+02  0.11944346880E+03  0.71914574876E+02  0.15836718901E+03  0.00000000000E+00 0.  1.
<mgrwt>
<rscale>  0 0.15696543E+04</rscale>
<asrwt>0</asrwt>
<pdfrwt beam="1">  1        1 0.71410021E-01 0.15696543E+04</pdfrwt>
<pdfrwt beam="2">  1       -1 0.20415601E+00 0.15696543E+04</pdfrwt>
<totfact> 0.66529068E+00</totfact>
</mgrwt>
</event>
<event>
12    1  0.1496989E-007  0.2015031E+04  0.7818608E-02  0.8599625E-01
          2   -1    0    0  501    0  0.00000000000E+00  0.00000000000E+00  0.35944068153E+04  0.35944068153E+04  0.00000000000E+00 0.  1.
         -2   -1    0    0    0  501 -0.00000000000E+00 -0.00000000000E+00 -0.28240741354E+03  0.28240741354E+03  0.00000000000E+00 0. -1.
         23    2    1    2    0    0 -0.26184706536E+03  0.68050494386E+03  0.19542182730E+04  0.20878026612E+04  0.91104496761E+02 0.  0.
        254    2    1    2    0    0  0.26184706536E+03 -0.68050494386E+03  0.13577811287E+04  0.17890115676E+04  0.90848331367E+03 0.  0.
        -24    2    4    4    0    0  0.48796355005E+02 -0.76415640476E+03  0.13406837710E+04  0.15459897951E+04  0.79595084413E+02 0.  0.
         24    2    4    4    0    0  0.21305071035E+03  0.83651460897E+02  0.17097357647E+02  0.24302177246E+03  0.79869206564E+02 0.  0.
         13    1    3    3    0    0 -0.12722717242E+03  0.34538184913E+03  0.11147834650E+04  0.11739751058E+04  0.00000000000E+00 0.  1.
        -13    1    3    3    0    0 -0.13461989293E+03  0.33512309473E+03  0.83943480802E+03  0.91382755545E+03  0.00000000000E+00 0. -1.
          4    1    6    6  502    0  0.15785156343E+03  0.80412770954E+02  0.42487154574E+02  0.18217707900E+03  0.00000000000E+00 0. -1.
          1    1    5    5  503    0  0.68917433487E+02 -0.63111068259E+03  0.10864009748E+04  0.12582994017E+04  0.00000000000E+00 0. -1.
         -2    1    5    5    0  503 -0.20121078482E+02 -0.13304572217E+03  0.25428279628E+03  0.28769039342E+03  0.00000000000E+00 0.  1.
         -3    1    6    6    0  502  0.55199146927E+02  0.32386899425E+01 -0.25389796927E+02  0.60844693458E+02  0.00000000000E+00 0.  1.
<mgrwt>
<rscale>  0 0.20150307E+04</rscale>
<asrwt>0</asrwt>
<pdfrwt beam="1">  1        2 0.55298563E+00 0.20150307E+04</pdfrwt>
<pdfrwt beam="2">  1       -2 0.43447297E-01 0.20150307E+04</pdfrwt>
<totfact> 0.32683868E+00</totfact>
</mgrwt>
</event>
<event>
12    1  0.1496989E-007  0.1978378E+04  0.7818608E-02  0.8616797E-01
          2   -1    0    0  501    0  0.00000000000E+00  0.00000000000E+00  0.22562684037E+04  0.22562684037E+04  0.00000000000E+00 0. -1.
         -2   -1    0    0    0  501 -0.00000000000E+00 -0.00000000000E+00 -0.43367826178E+03  0.43367826178E+03  0.00000000000E+00 0.  1.
         23    2    1    2    0    0  0.16514682643E+03  0.36822398895E+03  0.17708965385E+04  0.18184187763E+04  0.87806123659E+02 0.  0.
        254    2    1    2    0    0 -0.16514682643E+03 -0.36822398895E+03  0.51693603377E+02  0.87152788920E+03  0.77073098595E+03 0.  0.
        -24    2    4    4    0    0 -0.45874953719E+03 -0.23623635673E+03 -0.50270926879E+02  0.52453028968E+03  0.79662441535E+02 0.  0.
         24    2    4    4    0    0  0.29360271076E+03 -0.13198763222E+03  0.10196453026E+03  0.34699759952E+03  0.79920471824E+02 0.  0.
         11    1    3    3    0    0  0.12423497375E+01  0.55776286755E+02  0.16357370722E+03  0.17282619967E+03  0.00000000000E+00 0.  1.
        -11    1    3    3    0    0  0.16390447669E+03  0.31244770219E+03  0.16073228313E+04  0.16455925766E+04  0.00000000000E+00 0. -1.
          4    1    6    6  502    0  0.29608851369E+02 -0.43883936374E+02  0.22884594000E+02  0.57673118466E+02  0.00000000000E+00 0. -1.
          3    1    5    5  503    0 -0.85139766473E+02 -0.73641930281E+02  0.83459642859E+01  0.11287855798E+03  0.00000000000E+00 0. -1.
         -4    1    5    5    0  503 -0.37360977072E+03 -0.16259442645E+03 -0.58616891165E+02  0.41165173170E+03  0.00000000000E+00 0.  1.
         -3    1    6    6    0  502  0.26399385939E+03 -0.88103695847E+02  0.79079936255E+02  0.28932448106E+03  0.00000000000E+00 0.  1.
<mgrwt>
<rscale>  0 0.19783777E+04</rscale>
<asrwt>0</asrwt>
<pdfrwt beam="1">  1        2 0.34711821E+00 0.19783777E+04</pdfrwt>
<pdfrwt beam="2">  1       -2 0.66719734E-01 0.19783777E+04</pdfrwt>
<totfact> 0.92189739E+00</totfact>
</mgrwt>
</event>
<event>
12    1  0.1496989E-007  0.2002156E+04  0.7818608E-02  0.8605614E-01
         -2   -1    0    0    0  501 -0.00000000000E+00  0.00000000000E+00  0.56304859173E+03  0.56304859173E+03  0.00000000000E+00 0.  1.
          2   -1    0    0  501    0  0.00000000000E+00 -0.00000000000E+00 -0.17798761268E+04  0.17798761268E+04  0.00000000000E+00 0. -1.
         23    2    1    2    0    0 -0.19185899945E+03 -0.25209565337E+03  0.36756486968E+03  0.49349279283E+03  0.89828219634E+02 0.  0.
        254    2    1    2    0    0  0.19185899945E+03  0.25209565337E+03 -0.15843924048E+04  0.18494319257E+04  0.89985391118E+03 0.  0.
        -24    2    4    4    0    0 -0.46449122705E+02 -0.30520806155E+03 -0.36177231925E+03  0.48257131783E+03  0.81770312306E+02 0.  0.
         24    2    4    4    0    0  0.23830812215E+03  0.55730371492E+03 -0.12226200855E+04  0.13668606079E+04  0.78293397934E+02 0.  0.
         13    1    3    3    0    0 -0.44249173038E+02 -0.17257704549E+02  0.86043244033E+02  0.98281521786E+02  0.00000000000E+00 0. -1.
        -13    1    3    3    0    0 -0.14760982641E+03 -0.23483794882E+03  0.28152162564E+03  0.39521127104E+03  0.00000000000E+00 0.  1.
          4    1    6    6  502    0  0.22041768843E+03  0.43734988253E+03 -0.96906844573E+03  0.10857958048E+04  0.00000000000E+00 0. -1.
          1    1    5    5  503    0 -0.59864692766E+02 -0.24544325804E+03 -0.25180472076E+03  0.35669565704E+03  0.00000000000E+00 0. -1.
         -2    1    5    5    0  503  0.13415570060E+02 -0.59764803513E+02 -0.10996759850E+03  0.12587566079E+03  0.00000000000E+00 0.  1.
         -1    1    6    6    0  502  0.17890433721E+02  0.11995383239E+03 -0.25355163976E+03  0.28106480312E+03  0.00000000000E+00 0.  1.
<mgrwt>
<rscale>  0 0.20021556E+04</rscale>
<asrwt>0</asrwt>
<pdfrwt beam="1">  1        2 0.27382709E+00 0.20021556E+04</pdfrwt>
<pdfrwt beam="2">  1       -2 0.86622861E-01 0.20021556E+04</pdfrwt>
<totfact> 0.94899605E+00</totfact>
</mgrwt>
</event>
<event>
12    1  0.1496989E-007  0.2712158E+04  0.7818608E-02  0.8331071E-01
         -2   -1    0    0    0  501 -0.00000000000E+00  0.00000000000E+00  0.72391176234E+03  0.72391176234E+03  0.00000000000E+00 0.  1.
          2   -1    0    0  501    0  0.00000000000E+00 -0.00000000000E+00 -0.25402956337E+04  0.25402956337E+04  0.00000000000E+00 0. -1.
         23    2    1    2    0    0 -0.15848239598E+03  0.28141019247E+03  0.58083638294E+03  0.67145461763E+03  0.95770734174E+02 0.  0.
        254    2    1    2    0    0  0.15848239598E+03 -0.28141019247E+03 -0.23972202543E+04  0.25927527784E+04  0.93348468443E+03 0.  0.
        -24    2    4    4    0    0  0.50346041561E+03 -0.35488595041E+03 -0.13862288645E+04  0.15192729300E+04  0.84518300411E+02 0.  0.
         24    2    4    4    0    0 -0.34497801963E+03  0.73475757941E+02 -0.10109913897E+04  0.10734798484E+04  0.76464852794E+02 0.  0.
         11    1    3    3    0    0 -0.60213273449E+02  0.56560237408E+02  0.86774685173E+02  0.11981045339E+03  0.00000000000E+00 0. -1.
        -11    1    3    3    0    0 -0.98269122533E+02  0.22484995506E+03  0.49406169777E+03  0.55164416424E+03  0.00000000000E+00 0.  1.
          4    1    6    6  502    0 -0.20439702989E+03  0.60213206208E+02 -0.50402123399E+03  0.54721218951E+03  0.00000000000E+00 0. -1.
          3    1    5    5  503    0  0.37090469991E+03 -0.26353995379E+03 -0.11087392238E+04  0.11984683017E+04  0.00000000000E+00 0. -1.
         -4    1    5    5    0  503  0.13255571570E+03 -0.91345996620E+02 -0.27748964072E+03  0.32080462835E+03  0.00000000000E+00 0.  1.
         -3    1    6    6    0  502 -0.14058098974E+03  0.13262551733E+02 -0.50697015575E+03  0.52626765887E+03  0.00000000000E+00 0.  1.
<mgrwt>
<rscale>  0 0.27121577E+04</rscale>
<asrwt>0</asrwt>
<pdfrwt beam="1">  1        2 0.39081471E+00 0.27121577E+04</pdfrwt>
<pdfrwt beam="2">  1       -2 0.11137104E+00 0.27121577E+04</pdfrwt>
<totfact> 0.18425099E+00</totfact>
</mgrwt>
</event>
<event>
12    1  0.1496989E-007  0.1117361E+04  0.7818608E-02  0.9188434E-01
         -2   -1    0    0    0  501 -0.00000000000E+00  0.00000000000E+00  0.72238395806E+03  0.72238395806E+03  0.00000000000E+00 0.  1.
          2   -1    0    0  501    0  0.00000000000E+00 -0.00000000000E+00 -0.43207443058E+03  0.43207443058E+03  0.00000000000E+00 0. -1.
         23    2    1    2    0    0 -0.48690069000E+02 -0.12582268124E+03 -0.75929124143E+02  0.17519012335E+03  0.82001692011E+02 0.  0.
        254    2    1    2    0    0  0.48690069000E+02  0.12582268124E+03  0.36623865162E+03  0.97926826530E+03  0.89812778353E+03 0.  0.
        -24    2    4    4    0    0 -0.15095158388E+03  0.74916183834E+02  0.61817183688E+03  0.64598218327E+03  0.82205510223E+02 0.  0.
         24    2    4    4    0    0  0.19964165288E+03  0.50906497405E+02 -0.25193318525E+03  0.33328608203E+03  0.71840250553E+02 0.  0.
         13    1    3    3    0    0 -0.21242062934E+02 -0.11784506887E+03 -0.83058536969E+02  0.14573059410E+03  0.00000000000E+00 0. -1.
        -13    1    3    3    0    0 -0.27448006066E+02 -0.79776123704E+01  0.71294128260E+01  0.29459529246E+02  0.00000000000E+00 0.  1.
          4    1    6    6  502    0  0.10757844021E+03  0.53202441900E+02 -0.18040761750E+03  0.21668070766E+03  0.00000000000E+00 0. -1.
          3    1    5    5  503    0 -0.13526455610E+03  0.53109156175E+02  0.58752084582E+03  0.60522543476E+03  0.00000000000E+00 0. -1.
         -4    1    5    5    0  503 -0.15687027784E+02  0.21807027659E+02  0.30650991058E+02  0.40756748507E+02  0.00000000000E+00 0.  1.
         -3    1    6    6    0  502  0.92063212672E+02 -0.22959444954E+01 -0.71525567759E+02  0.11660537437E+03  0.00000000000E+00 0.  1.
<mgrwt>
<rscale>  0 0.11173605E+04</rscale>
<asrwt>0</asrwt>
<pdfrwt beam="1">  1        2 0.66472989E-01 0.11173605E+04</pdfrwt>
<pdfrwt beam="2">  1       -2 0.11113599E+00 0.11173605E+04</pdfrwt>
<totfact> 0.46303751E+01</totfact>
</mgrwt>
</event>
<event>
12    1  0.1496989E-007  0.1604623E+04  0.7818608E-02  0.8817713E-01
         -2   -1    0    0    0  501 -0.00000000000E+00  0.00000000000E+00  0.28463143346E+03  0.28463143346E+03  0.00000000000E+00 0.  1.
          2   -1    0    0  501    0  0.00000000000E+00 -0.00000000000E+00 -0.22615347440E+04  0.22615347440E+04  0.00000000000E+00 0. -1.
         23    2    1    2    0    0  0.40931816009E+03  0.31114882950E+03 -0.90697637519E+03  0.10454409335E+04  0.77366982962E+02 0.  0.
        254    2    1    2    0    0 -0.40931816009E+03 -0.31114882950E+03 -0.10699269353E+04  0.15007252439E+04  0.91819260534E+03 0.  0.
        -24    2    4    4    0    0 -0.29974572354E+03 -0.57714264015E+03 -0.40204133100E+03  0.76880034491E+03  0.80471191345E+02 0.  0.
         24    2    4    4    0    0 -0.10957243656E+03  0.26599381066E+03 -0.66788560431E+03  0.73192489899E+03  0.82970182380E+02 0.  0.
         11    1    3    3    0    0  0.10211245037E+03  0.94532112074E+02 -0.31265233460E+03  0.34222033117E+03  0.00000000000E+00 0. -1.
        -11    1    3    3    0    0  0.30720570972E+03  0.21661671742E+03 -0.59432404059E+03  0.70322060236E+03  0.00000000000E+00 0.  1.
          4    1    6    6  502    0  0.97474194371E+00  0.95541436894E+02 -0.23746539529E+03  0.25596665846E+03  0.00000000000E+00 0. -1.
          1    1    5    5  503    0 -0.16293638225E+03 -0.23952363775E+03 -0.20245750671E+03  0.35342450357E+03  0.00000000000E+00 0. -1.
         -2    1    5    5    0  503 -0.13680934129E+03 -0.33761900241E+03 -0.19958382430E+03  0.41537584134E+03  0.00000000000E+00 0.  1.
         -3    1    6    6    0  502 -0.11054717850E+03  0.17045237376E+03 -0.43042020902E+03  0.47595824053E+03  0.00000000000E+00 0.  1.
<mgrwt>
<rscale>  0 0.16046232E+04</rscale>
<asrwt>0</asrwt>
<pdfrwt beam="1">  1        2 0.34792842E+00 0.16046232E+04</pdfrwt>
<pdfrwt beam="2">  1       -2 0.43789452E-01 0.16046232E+04</pdfrwt>
<totfact> 0.22620775E+01</totfact>
</mgrwt>
</event>
<event>
12    1  0.1496989E-007  0.1329090E+04  0.7818608E-02  0.9006810E-01
         -1   -1    0    0    0  501 -0.00000000000E+00  0.00000000000E+00  0.45523640234E+03  0.45523640234E+03  0.00000000000E+00 0.  1.
          1   -1    0    0  501    0  0.00000000000E+00 -0.00000000000E+00 -0.97008900724E+03  0.97008900724E+03  0.00000000000E+00 0. -1.
         23    2    1    2    0    0  0.23273639043E+03  0.61312378925E+02  0.14111325421E+03  0.29348865176E+03  0.91088983745E+02 0.  0.
        254    2    1    2    0    0 -0.23273639043E+03 -0.61312378925E+02 -0.65596585911E+03  0.11318367578E+04  0.89041439948E+03 0.  0.
        -24    2    4    4    0    0  0.22096841559E+03  0.15113868299E+03  0.27397653347E+02  0.28073293717E+03  0.79940030167E+02 0.  0.
         24    2    4    4    0    0 -0.45370480602E+03 -0.21245106191E+03 -0.68336351246E+03  0.85110382065E+03  0.80053223864E+02 0.  0.
         11    1    3    3    0    0  0.10339037836E+03  0.68353711151E+02  0.94352155967E+02  0.15576947551E+03  0.00000000000E+00 0.  1.
        -11    1    3    3    0    0  0.12934601207E+03 -0.70413322260E+01  0.46761098241E+02  0.13771917625E+03  0.00000000000E+00 0. -1.
          4    1    6    6  502    0 -0.42156807304E+02  0.33861640804E+01 -0.65920385406E+02  0.78320876663E+02  0.00000000000E+00 0. -1.
          1    1    5    5  503    0  0.22081109789E+02  0.20245309916E+02  0.30315349611E+02  0.42620046987E+02  0.00000000000E+00 0. -1.
         -2    1    5    5    0  503  0.19888730580E+03  0.13089337307E+03 -0.29176962640E+01  0.23811289019E+03  0.00000000000E+00 0.  1.
         -3    1    6    6    0  502 -0.41154799871E+03 -0.21583722599E+03 -0.61744312705E+03  0.77278294398E+03  0.00000000000E+00 0.  1.
<mgrwt>
<rscale>  0 0.13290897E+04</rscale>
<asrwt>0</asrwt>
<pdfrwt beam="1">  1        1 0.14924446E+00 0.13290897E+04</pdfrwt>
<pdfrwt beam="2">  1       -1 0.70036371E-01 0.13290897E+04</pdfrwt>
<totfact> 0.32284871E+01</totfact>
</mgrwt>
</event>
<event>
12    1  0.1496989E-007  0.1614928E+04  0.7818608E-02  0.8811429E-01
         -2   -1    0    0    0  501 -0.00000000000E+00  0.00000000000E+00  0.25811476523E+03  0.25811476523E+03  0.00000000000E+00 0.  1.
          2   -1    0    0  501    0  0.00000000000E+00 -0.00000000000E+00 -0.25260022631E+04  0.25260022631E+04  0.00000000000E+00 0. -1.
         23    2    1    2    0    0 -0.14577456449E+03  0.38150876019E+03 -0.14996258846E+04  0.15569608268E+04  0.91924233969E+02 0.  0.
        254    2    1    2    0    0  0.14577456449E+03 -0.38150876019E+03 -0.76826161333E+03  0.12271562016E+04  0.86538273541E+03 0.  0.
        -24    2    4    4    0    0  0.33830965643E+03 -0.29394489122E+03 -0.86779202669E+03  0.98013045422E+03  0.82071206882E+02 0.  0.
         24    2    4    4    0    0 -0.19253509194E+03 -0.87563868975E+02  0.99530413356E+02  0.24702574734E+03  0.79863783322E+02 0.  0.
         13    1    3    3    0    0 -0.62053227705E+02  0.12134567197E+03 -0.35771002303E+03  0.38279476975E+03  0.00000000000E+00 0. -1.
        -13    1    3    3    0    0 -0.83721336784E+02  0.26016308823E+03 -0.11419158615E+04  0.11741660570E+04  0.00000000000E+00 0.  1.
          2    1    6    6  502    0 -0.74563545698E+01  0.13157278408E+02  0.38284484233E+01  0.15600263328E+02  0.00000000000E+00 0. -1.
          3    1    5    5  503    0  0.23695386143E+03 -0.15438379014E+03 -0.52077325661E+03  0.59260971296E+03  0.00000000000E+00 0. -1.
         -4    1    5    5    0  503  0.10135579501E+03 -0.13956110108E+03 -0.34701877008E+03  0.38752074126E+03  0.00000000000E+00 0.  1.
         -1    1    6    6    0  502 -0.18507873737E+03 -0.10072114738E+03  0.95701964933E+02  0.23142548401E+03  0.00000000000E+00 0.  1.
<mgrwt>
<rscale>  0 0.16149285E+04</rscale>
<asrwt>0</asrwt>
<pdfrwt beam="1">  1        2 0.38861572E+00 0.16149285E+04</pdfrwt>
<pdfrwt beam="2">  1       -2 0.39709965E-01 0.16149285E+04</pdfrwt>
<totfact> 0.19362349E+01</totfact>
</mgrwt>
</event>
<event>
12    1  0.1496989E-007  0.1742089E+04  0.7818608E-02  0.8737717E-01
          2   -1    0    0  501    0  0.00000000000E+00  0.00000000000E+00  0.17423527271E+04  0.17423527271E+04  0.00000000000E+00 0.  1.
         -2   -1    0    0    0  501 -0.00000000000E+00 -0.00000000000E+00 -0.43545654663E+03  0.43545654663E+03  0.00000000000E+00 0. -1.
         23    2    1    2    0    0 -0.59791454043E+03  0.21128068950E+03  0.59741053555E+03  0.87610359215E+03  0.92286666323E+02 0.  0.
        254    2    1    2    0    0  0.59791454043E+03 -0.21128068950E+03  0.70948564494E+03  0.13017056816E+04  0.88821533072E+03 0.  0.
        -24    2    4    4    0    0  0.13810763677E+03 -0.44972693475E+03  0.82387020221E+02  0.48448563253E+03  0.81306038228E+02 0.  0.
         24    2    4    4    0    0  0.45980690366E+03  0.23844624524E+03  0.62709862472E+03  0.81722004908E+03  0.79479072487E+02 0.  0.
         11    1    3    3    0    0 -0.38333167781E+03  0.17810617171E+03  0.37112764019E+03  0.56249507459E+03  0.00000000000E+00 0.  1.
        -11    1    3    3    0    0 -0.21458286262E+03  0.33174517791E+02  0.22628289536E+03  0.31360851757E+03  0.00000000000E+00 0. -1.
          4    1    6    6  502    0  0.39250039197E+03  0.19026627606E+03  0.48114910071E+03  0.64943226793E+03  0.00000000000E+00 0. -1.
          3    1    5    5  503    0  0.14248057770E+03 -0.44905865068E+03  0.85836393643E+02  0.47887605207E+03  0.00000000000E+00 0. -1.
         -4    1    5    5    0  503 -0.43729409257E+01 -0.66828407003E+00 -0.34493734222E+01  0.56095804606E+01  0.00000000000E+00 0.  1.
         -3    1    6    6    0  502  0.67306511686E+02  0.48179969180E+02  0.14594952401E+03  0.16778778115E+03  0.00000000000E+00 0.  1.
<mgrwt>
<rscale>  0 0.17420894E+04</rscale>
<asrwt>0</asrwt>
<pdfrwt beam="1">  1        2 0.26805426E+00 0.17420894E+04</pdfrwt>
<pdfrwt beam="2">  1       -2 0.66993316E-01 0.17420894E+04</pdfrwt>
<totfact> 0.18016897E+01</totfact>
</mgrwt>
</event>
<event>
12    1  0.1496989E-007  0.2910792E+04  0.7818608E-02  0.8269674E-01
          2   -1    0    0  501    0  0.00000000000E+00  0.00000000000E+00  0.24037260555E+04  0.24037260555E+04  0.00000000000E+00 0. -1.
         -2   -1    0    0    0  501 -0.00000000000E+00 -0.00000000000E+00 -0.88120611122E+03  0.88120611122E+03  0.00000000000E+00 0.  1.
         23    2    1    2    0    0 -0.10934678323E+04  0.40680748759E+03  0.75420596670E+01  0.11701601110E+04  0.89741686966E+02 0.  0.
        254    2    1    2    0    0  0.10934678323E+04 -0.40680748759E+03  0.15149778846E+04  0.21147720557E+04  0.90329321081E+03 0.  0.
        -24    2    4    4    0    0  0.28954930304E+03 -0.53967260165E+03  0.89338408734E+03  0.10864214841E+04  0.84209249443E+02 0.  0.
         24    2    4    4    0    0  0.80391852926E+03  0.13286511405E+03  0.62159379723E+03  0.10283505716E+04  0.84781538275E+02 0.  0.
         13    1    3    3    0    0 -0.87853761409E+03  0.28914877174E+03 -0.30730697246E+01  0.92490258694E+03  0.00000000000E+00 0.  1.
        -13    1    3    3    0    0 -0.21493021820E+03  0.11765871585E+03  0.10615129392E+02  0.24525752401E+03  0.00000000000E+00 0. -1.
          4    1    6    6  502    0  0.63775760417E+03  0.12218976922E+03  0.45563846569E+03  0.79326635678E+03  0.00000000000E+00 0. -1.
          1    1    5    5  503    0  0.22317651314E+03 -0.46847525493E+03  0.78187389998E+03  0.93840482521E+03  0.00000000000E+00 0. -1.
         -2    1    5    5    0  503  0.66372789892E+02 -0.71197346710E+02  0.11151018735E+03  0.14801665886E+03  0.00000000000E+00 0.  1.
         -3    1    6    6    0  502  0.16616092509E+03  0.10675344837E+02  0.16595533155E+03  0.23508421487E+03  0.00000000000E+00 0.  1.
<mgrwt>
<rscale>  0 0.29107924E+04</rscale>
<asrwt>0</asrwt>
<pdfrwt beam="1">  1        2 0.36980401E+00 0.29107924E+04</pdfrwt>
<pdfrwt beam="2">  1       -2 0.13557017E+00 0.29107924E+04</pdfrwt>
<totfact> 0.13311392E+00</totfact>
</mgrwt>
</event>
<event>
12    1  0.1496989E-007  0.1406049E+04  0.7818608E-02  0.8949452E-01
          1   -1    0    0  501    0  0.00000000000E+00  0.00000000000E+00  0.82630346356E+03  0.82630346356E+03  0.00000000000E+00 0. -1.
         -1   -1    0    0    0  501 -0.00000000000E+00 -0.00000000000E+00 -0.59813794729E+03  0.59813794729E+03  0.00000000000E+00 0.  1.
         23    2    1    2    0    0 -0.57934398748E+02  0.42160943879E+03 -0.47524454782E+02  0.43812958076E+03  0.92671690907E+02 0.  0.
        254    2    1    2    0    0  0.57934398748E+02 -0.42160943879E+03  0.27568997104E+03  0.98631183009E+03  0.84598767876E+03 0.  0.
        -24    2    4    4    0    0 -0.86182896068E+02  0.88785650100E+02  0.40840239190E+03  0.43393549825E+03  0.78721786669E+02 0.  0.
         24    2    4    4    0    0  0.14411729482E+03 -0.51039508889E+03 -0.13271242085E+03  0.55237633185E+03  0.78956215124E+02 0.  0.
         11    1    3    3    0    0 -0.73450331760E+02  0.24518503377E+03 -0.50412561635E+01  0.25600012946E+03  0.00000000000E+00 0.  1.
        -11    1    3    3    0    0  0.15515933012E+02  0.17642440502E+03 -0.42483198619E+02  0.18212945130E+03  0.00000000000E+00 0. -1.
          4    1    6    6  502    0  0.87294849907E+02 -0.21128349522E+03 -0.86517376484E+02  0.24443069080E+03  0.00000000000E+00 0. -1.
          3    1    5    5  503    0 -0.92318813241E+01 -0.11369554336E+02  0.93631492871E+02  0.94769989215E+02  0.00000000000E+00 0. -1.
         -4    1    5    5    0  503 -0.76951014743E+02  0.10015520444E+03  0.31477089902E+03  0.33916550903E+03  0.00000000000E+00 0.  1.
         -3    1    6    6    0  502  0.56822444909E+02 -0.29911159367E+03 -0.46195044367E+02  0.30794564104E+03  0.00000000000E+00 0.  1.
<mgrwt>
<rscale>  0 0.14060490E+04</rscale>
<asrwt>0</asrwt>
<pdfrwt beam="1">  1        1 0.12712361E+00 0.14060490E+04</pdfrwt>
<pdfrwt beam="2">  1       -1 0.92021223E-01 0.14060490E+04</pdfrwt>
<totfact> 0.23521166E+01</totfact>
</mgrwt>
</event>
<event>
12    1  0.1496989E-007  0.1685502E+04  0.7818608E-02  0.8769677E-01
          2   -1    0    0  501    0  0.00000000000E+00  0.00000000000E+00  0.15262110967E+04  0.15262110967E+04  0.00000000000E+00 0.  1.
         -2   -1    0    0    0  501 -0.00000000000E+00 -0.00000000000E+00 -0.46535444844E+03  0.46535444844E+03  0.00000000000E+00 0. -1.
         23    2    1    2    0    0 -0.53213460338E+03  0.15681197506E+03  0.60652823807E+03  0.82700919297E+03  0.91161779560E+02 0.  0.
        254    2    1    2    0    0  0.53213460338E+03 -0.15681197506E+03  0.45432841018E+03  0.11645563522E+04  0.91761645660E+03 0.  0.
        -24    2    4    4    0    0  0.14276229894E+03 -0.34450776133E+03  0.59197595826E+03  0.70354190765E+03  0.73952748706E+02 0.  0.
         24    2    4    4    0    0  0.38937230444E+03  0.18769578628E+03 -0.13764754809E+03  0.46101444451E+03  0.82139947043E+02 0.  0.
         11    1    3    3    0    0 -0.31602326316E+03  0.77051406240E+02  0.29179939918E+03  0.43698342237E+03  0.00000000000E+00 0. -1.
        -11    1    3    3    0    0 -0.21611134022E+03  0.79760568817E+02  0.31472883889E+03  0.39002577061E+03  0.00000000000E+00 0.  1.
          4    1    6    6  502    0  0.18327919705E+03  0.84239793154E+02 -0.10714782904E+03  0.22840373046E+03  0.00000000000E+00 0. -1.
          1    1    5    5  503    0  0.11539779116E+03 -0.19964995124E+03  0.32386196296E+03  0.39757178508E+03  0.00000000000E+00 0. -1.
         -2    1    5    5    0  503  0.27364507772E+02 -0.14485781009E+03  0.26811399530E+03  0.30597012257E+03  0.00000000000E+00 0.  1.
         -1    1    6    6    0  502  0.20609310740E+03  0.10345599312E+03 -0.30499719050E+02  0.23261071405E+03  0.00000000000E+00 0.  1.
<mgrwt>
<rscale>  0 0.16855019E+04</rscale>
<asrwt>0</asrwt>
<pdfrwt beam="1">  1        2 0.23480171E+00 0.16855019E+04</pdfrwt>
<pdfrwt beam="2">  1       -2 0.71592992E-01 0.16855019E+04</pdfrwt>
<totfact> 0.20679146E+01</totfact>
</mgrwt>
</event>
<event>
12    1  0.1496989E-007  0.1210051E+04  0.7818608E-02  0.9104104E-01
         -2   -1    0    0    0  501 -0.00000000000E+00  0.00000000000E+00  0.16619670507E+03  0.16619670507E+03  0.00000000000E+00 0.  1.
          2   -1    0    0  501    0  0.00000000000E+00 -0.00000000000E+00 -0.22025462884E+04  0.22025462884E+04  0.00000000000E+00 0. -1.
         23    2    1    2    0    0 -0.14790229292E+03 -0.13970146680E+03 -0.11606616247E+03  0.24860651598E+03  0.83320211450E+02 0.  0.
        254    2    1    2    0    0  0.14790229292E+03  0.13970146680E+03 -0.19202834209E+04  0.21201364775E+04  0.87527063169E+03 0.  0.
        -24    2    4    4    0    0  0.17615288217E+03  0.91482529586E+02 -0.17157343457E+02  0.21448756854E+03  0.79445903030E+02 0.  0.
         24    2    4    4    0    0 -0.28250589248E+02  0.48218937215E+02 -0.19031260774E+04  0.19056489090E+04  0.80534067288E+02 0.  0.
         11    1    3    3    0    0 -0.15574285966E+03 -0.12111633148E+03 -0.11509550900E+03  0.22841186545E+03  0.00000000000E+00 0.  1.
        -11    1    3    3    0    0  0.78405667385E+01 -0.18585135320E+02 -0.97065347381E+00  0.20194650525E+02  0.00000000000E+00 0. -1.
          4    1    6    6  502    0 -0.43906930924E+02  0.39079919601E+02 -0.72358588184E+03  0.72596941195E+03  0.00000000000E+00 0. -1.
          3    1    5    5  503    0  0.12530771094E+03  0.22358294602E+02 -0.18763766122E+02  0.12866232812E+03  0.00000000000E+00 0. -1.
         -4    1    5    5    0  503  0.50845171232E+02  0.69124234984E+02  0.16064226652E+01  0.85825240422E+02  0.00000000000E+00 0.  1.
         -3    1    6    6    0  502  0.15656341676E+02  0.91390176132E+01 -0.11795401956E+04  0.11796794970E+04  0.00000000000E+00 0.  1.
<mgrwt>
<rscale>  0 0.12100511E+04</rscale>
<asrwt>0</asrwt>
<pdfrwt beam="1">  1        2 0.33885327E+00 0.12100511E+04</pdfrwt>
<pdfrwt beam="2">  1       -2 0.25568724E-01 0.12100511E+04</pdfrwt>
<totfact> 0.70094816E+01</totfact>
</mgrwt>
</event>
<event>
12    1  0.1496989E-007  0.2096766E+04  0.7818608E-02  0.8562669E-01
          2   -1    0    0  501    0  0.00000000000E+00  0.00000000000E+00  0.15178011214E+04  0.15178011214E+04  0.00000000000E+00 0. -1.
         -2   -1    0    0    0  501 -0.00000000000E+00 -0.00000000000E+00 -0.72414422264E+03  0.72414422264E+03  0.00000000000E+00 0.  1.
         23    2    1    2    0    0  0.55401166962E+03  0.50168250813E+03 -0.10915902111E+03  0.76075625610E+03  0.90664878913E+02 0.  0.
        254    2    1    2    0    0 -0.55401166962E+03 -0.50168250813E+03  0.90281591991E+03  0.14811890880E+04  0.90566564473E+03 0.  0.
        -24    2    4    4    0    0  0.20583756122E+02 -0.35078581795E+03  0.79279013759E+03  0.87170514642E+03  0.88765302585E+02 0.  0.
         24    2    4    4    0    0 -0.57459542574E+03 -0.15089669018E+03  0.11002578232E+03  0.60948394156E+03  0.80220245861E+02 0.  0.
         13    1    3    3    0    0  0.39408242537E+03  0.34116724975E+03 -0.35320641286E+02  0.52244004248E+03  0.00000000000E+00 0.  1.
        -13    1    3    3    0    0  0.15992924426E+03  0.16051525838E+03 -0.73838379822E+02  0.23831621362E+03  0.00000000000E+00 0. -1.
          2    1    6    6  502    0 -0.46206155467E+02 -0.34325181318E+02  0.20087319614E+02  0.60964967685E+02  0.00000000000E+00 0. -1.
          1    1    5    5  503    0 -0.22836188014E+02 -0.46990023238E+02  0.16218127790E+03  0.17038873398E+03  0.00000000000E+00 0. -1.
         -2    1    5    5    0  503  0.43419944136E+02 -0.30379579471E+03  0.63060885969E+03  0.70131641243E+03  0.00000000000E+00 0.  1.
         -1    1    6    6    0  502 -0.52838927028E+03 -0.11657150886E+03  0.89938462706E+02  0.54851897387E+03  0.00000000000E+00 0.  1.
<mgrwt>
<rscale>  0 0.20967660E+04</rscale>
<asrwt>0</asrwt>
<pdfrwt beam="1">  1        2 0.23350786E+00 0.20967660E+04</pdfrwt>
<pdfrwt beam="2">  1       -2 0.11140680E+00 0.20967660E+04</pdfrwt>
<totfact> 0.72848341E+00</totfact>
</mgrwt>
</event>
<event>
12    1  0.1496989E-007  0.1652317E+04  0.7818608E-02  0.8789037E-01
          1   -1    0    0  501    0  0.00000000000E+00  0.00000000000E+00  0.91205760905E+03  0.91205760905E+03  0.00000000000E+00 0. -1.
         -1   -1    0    0    0  501 -0.00000000000E+00 -0.00000000000E+00 -0.74834953383E+03  0.74834953383E+03  0.00000000000E+00 0.  1.
         23    2    1    2    0    0 -0.22410804079E+03 -0.32638676688E+03 -0.35612066347E+03  0.54085430292E+03  0.94597645275E+02 0.  0.
        254    2    1    2    0    0  0.22410804079E+03  0.32638676688E+03  0.51982873868E+03  0.11195528400E+04  0.90907860406E+03 0.  0.
        -24    2    4    4    0    0  0.42541741626E+03  0.30690242657E+03 -0.26622695112E+02  0.53126058454E+03  0.79749378062E+02 0.  0.
         24    2    4    4    0    0 -0.20130937547E+03  0.19484340312E+02  0.54645143379E+03  0.58829225541E+03  0.81077149178E+02 0.  0.
         13    1    3    3    0    0 -0.99624436430E+02 -0.14485284270E+03 -0.96737660757E+02  0.20066277528E+03  0.00000000000E+00 0. -1.
        -13    1    3    3    0    0 -0.12448360436E+03 -0.18153392418E+03 -0.25938300271E+03  0.34019152764E+03  0.00000000000E+00 0.  1.
          4    1    6    6  502    0 -0.16189091312E+03  0.17336096485E+02  0.32670377526E+03  0.36502680006E+03  0.00000000000E+00 0. -1.
          1    1    5    5  503    0  0.70138418968E+02  0.48107043197E+02  0.25117936335E+02  0.88682558298E+02  0.00000000000E+00 0. -1.
         -2    1    5    5    0  503  0.35527899729E+03  0.25879538337E+03 -0.51740631447E+02  0.44257802625E+03  0.00000000000E+00 0.  1.
         -3    1    6    6    0  502 -0.39418462352E+02  0.21482438278E+01  0.21974765853E+03  0.22326545536E+03  0.00000000000E+00 0.  1.
<mgrwt>
<rscale>  0 0.16523170E+04</rscale>
<asrwt>0</asrwt>
<pdfrwt beam="1">  1        1 0.14031656E+00 0.16523170E+04</pdfrwt>
<pdfrwt beam="2">  1       -1 0.11513070E+00 0.16523170E+04</pdfrwt>
<totfact> 0.11635938E+01</totfact>
</mgrwt>
</event>
<event>
12    1  0.1496989E-007  0.1394871E+04  0.7818608E-02  0.8957540E-01
         -1   -1    0    0    0  501 -0.00000000000E+00  0.00000000000E+00  0.27260437382E+03  0.27260437382E+03  0.00000000000E+00 0.  1.
          1   -1    0    0  501    0  0.00000000000E+00 -0.00000000000E+00 -0.17843293609E+04  0.17843293609E+04  0.00000000000E+00 0. -1.
         23    2    1    2    0    0  0.13086244646E+03 -0.22487029485E+03  0.86852957054E+01  0.27590650919E+03  0.91418477634E+02 0.  0.
        254    2    1    2    0    0 -0.13086244646E+03  0.22487029485E+03 -0.15204102828E+04  0.17810272255E+04  0.89034764033E+03 0.  0.
        -24    2    4    4    0    0  0.33182151819E+03 -0.86471907046E+02 -0.72624904990E+03  0.80737688233E+03  0.82685167935E+02 0.  0.
         24    2    4    4    0    0 -0.46268396466E+03  0.31134220190E+03 -0.79416123288E+03  0.97365034318E+03  0.79325337366E+02 0.  0.
         13    1    3    3    0    0  0.92575785443E+02 -0.19342181567E+03  0.38812858580E+02  0.21791905107E+03  0.00000000000E+00 0.  1.
        -13    1    3    3    0    0  0.38286661020E+02 -0.31448479178E+02 -0.30127562875E+02  0.57987458122E+02  0.00000000000E+00 0. -1.
          2    1    6    6  502    0 -0.34240897809E+03  0.26749549068E+03 -0.59148997314E+03  0.73393333085E+03  0.00000000000E+00 0. -1.
          1    1    5    5  503    0  0.16274933916E+03 -0.81499882591E+02 -0.41435004945E+03  0.45256551099E+03  0.00000000000E+00 0. -1.
         -2    1    5    5    0  503  0.16907217903E+03 -0.49720244543E+01 -0.31189900045E+03  0.35481137134E+03  0.00000000000E+00 0.  1.
         -1    1    6    6    0  502 -0.12027498656E+03  0.43846711212E+02 -0.20267125974E+03  0.23971701233E+03  0.00000000000E+00 0.  1.
<mgrwt>
<rscale>  0 0.13948706E+04</rscale>
<asrwt>0</asrwt>
<pdfrwt beam="1">  1        1 0.27451221E+00 0.13948706E+04</pdfrwt>
<pdfrwt beam="2">  1       -1 0.41939135E-01 0.13948706E+04</pdfrwt>
<totfact> 0.22743697E+01</totfact>
</mgrwt>
</event>
<event>
12    1  0.1885972E-007  0.1546490E+04  0.7818608E-02  0.8854113E-01
          2   -1    0    0  501    0  0.00000000000E+00  0.00000000000E+00  0.14310195670E+04  0.14310195670E+04  0.00000000000E+00 0. -1.
         -2   -1    0    0    0  501 -0.00000000000E+00 -0.00000000000E+00 -0.41781954441E+03  0.41781954441E+03  0.00000000000E+00 0.  1.
         23    2    1    2    0    0 -0.10652378661E+03  0.40173093926E+03  0.68129638121E+03  0.80340915335E+03  0.92555086113E+02 0.  0.
        254    2    1    2    0    0  0.10652378661E+03 -0.40173093926E+03  0.33190364142E+03  0.10454299581E+04  0.90001594732E+03 0.  0.
        -24    2    4    4    0    0  0.31835817910E+03  0.11931006701E+03  0.32455592834E+03  0.47657369365E+03  0.78734443391E+02 0.  0.
         24    2    4    4    0    0 -0.21183439249E+03 -0.52104100627E+03  0.73477130784E+01  0.56885626444E+03  0.84769809807E+02 0.  0.
         13    1    3    3    0    0 -0.25151010303E+02  0.12840552587E+02  0.38775625769E+02  0.47968763417E+02  0.00000000000E+00 0.  1.
        -13    1    3    3    0    0 -0.81372776308E+02  0.38889038668E+03  0.64252075544E+03  0.75544038994E+03  0.00000000000E+00 0. -1.
          4    1    6    6  502    0 -0.19553093554E+03 -0.40148019513E+03 -0.11581138168E+02  0.44671334947E+03  0.00000000000E+00 0. -1.
          3    1    5    5  503    0  0.22831199779E+03  0.56257128989E+02  0.25305400939E+03  0.34543822105E+03  0.00000000000E+00 0. -1.
         -4    1    5    5    0  503  0.90046181309E+02  0.63052938017E+02  0.71501918950E+02  0.13113547260E+03  0.00000000000E+00 0.  1.
         -3    1    6    6    0  502 -0.16303456951E+02 -0.11956081114E+03  0.18928851247E+02  0.12214291497E+03  0.00000000000E+00 0.  1.
<mgrwt>
<rscale>  0 0.15464901E+04</rscale>
<asrwt>0</asrwt>
<pdfrwt beam="1">  1        2 0.22015685E+00 0.15464901E+04</pdfrwt>
<pdfrwt beam="2">  1       -2 0.64279930E-01 0.15464901E+04</pdfrwt>
<totfact> 0.29905582E+01</totfact>
</mgrwt>
</event>
<event>
12    1  0.1496989E-007  0.2186386E+04  0.7818608E-02  0.8524116E-01
         -2   -1    0    0    0  501 -0.00000000000E+00  0.00000000000E+00  0.19042276066E+04  0.19042276066E+04  0.00000000000E+00 0.  1.
          2   -1    0    0  501    0  0.00000000000E+00 -0.00000000000E+00 -0.62758849695E+03  0.62758849695E+03  0.00000000000E+00 0. -1.
         23    2    1    2    0    0  0.61457035705E+03 -0.56290537541E+03  0.92645931529E+03  0.12491936180E+04  0.87170217607E+02 0.  0.
        254    2    1    2    0    0 -0.61457035705E+03  0.56290537541E+03  0.35017979437E+03  0.12826224856E+04  0.90990953767E+03 0.  0.
        -24    2    4    4    0    0 -0.69318196425E+02  0.66356112749E+03  0.15716225964E+03  0.69006070846E+03  0.79783602560E+02 0.  0.
         24    2    4    4    0    0 -0.54525216062E+03 -0.10065575208E+03  0.19301753474E+03  0.59256177714E+03  0.80263266310E+02 0.  0.
         13    1    3    3    0    0  0.13704459812E+03 -0.12791469879E+03  0.15682353421E+03  0.24441156462E+03  0.00000000000E+00 0. -1.
        -13    1    3    3    0    0  0.47752575893E+03 -0.43499067662E+03  0.76963578108E+03  0.10047820533E+04  0.00000000000E+00 0.  1.
          4    1    6    6  502    0 -0.41287086708E+03 -0.10316504753E+03  0.16953154354E+03  0.45808986474E+03  0.00000000000E+00 0. -1.
          3    1    5    5  503    0 -0.35885209345E+02  0.40347628470E+03  0.55654353212E+02  0.40887439098E+03  0.00000000000E+00 0. -1.
         -4    1    5    5    0  503 -0.33432987081E+02  0.26008484279E+03  0.10150790642E+03  0.28118631748E+03  0.00000000000E+00 0.  1.
         -3    1    6    6    0  502 -0.13238129353E+03  0.25092954556E+01  0.23485991202E+02  0.13447191240E+03  0.00000000000E+00 0.  1.
<mgrwt>
<rscale>  0 0.21863864E+04</rscale>
<asrwt>0</asrwt>
<pdfrwt beam="1">  1        2 0.96552077E-01 0.21863864E+04</pdfrwt>
<pdfrwt beam="2">  1       -2 0.29295809E+00 0.21863864E+04</pdfrwt>
<totfact> 0.15085810E+00</totfact>
</mgrwt>
</event>
<event>
12    1  0.1496989E-007  0.1179812E+04  0.7818608E-02  0.9130713E-01
         -2   -1    0    0    0  501 -0.00000000000E+00  0.00000000000E+00  0.16429932477E+03  0.16429932477E+03  0.00000000000E+00 0.  1.
          2   -1    0    0  501    0  0.00000000000E+00 -0.00000000000E+00 -0.21180178091E+04  0.21180178091E+04  0.00000000000E+00 0. -1.
         23    2    1    2    0    0  0.18033981130E+03 -0.17404865487E+02 -0.69654560574E+03  0.72522424648E+03  0.89157444599E+02 0.  0.
        254    2    1    2    0    0 -0.18033981130E+03  0.17404865487E+02 -0.12571728786E+04  0.15570928874E+04  0.90068265024E+03 0.  0.
        -24    2    4    4    0    0  0.28440069704E+03  0.97322763339E+02 -0.92135788666E+03  0.97251206610E+03  0.80770580408E+02 0.  0.
         24    2    4    4    0    0 -0.46474050833E+03 -0.79917897852E+02 -0.33581499198E+03  0.58458082134E+03  0.81193702684E+02 0.  0.
         11    1    3    3    0    0  0.69267359025E+02 -0.50735394222E+02 -0.30769132397E+03  0.31944639315E+03  0.00000000000E+00 0.  1.
        -11    1    3    3    0    0  0.11107245227E+03  0.33330528735E+02 -0.38885428177E+03  0.40577785333E+03  0.00000000000E+00 0. -1.
          4    1    6    6  502    0 -0.40439890858E+03 -0.54867497934E+02 -0.25732713451E+03  0.48245846842E+03  0.00000000000E+00 0. -1.
          3    1    5    5  503    0  0.17787528096E+03  0.99561743725E+02 -0.63863650010E+03  0.67037954597E+03  0.00000000000E+00 0. -1.
         -4    1    5    5    0  503  0.10652541608E+03 -0.22389803865E+01 -0.28272138656E+03  0.30213252014E+03  0.00000000000E+00 0.  1.
         -3    1    6    6    0  502 -0.60341599755E+02 -0.25050399918E+02 -0.78487857462E+02  0.10212235292E+03  0.00000000000E+00 0.  1.
<mgrwt>
<rscale>  0 0.11798117E+04</rscale>
<asrwt>0</asrwt>
<pdfrwt beam="1">  1        2 0.32584888E+00 0.11798117E+04</pdfrwt>
<pdfrwt beam="2">  1       -2 0.25276820E-01 0.11798117E+04</pdfrwt>
<totfact> 0.79958556E+01</totfact>
</mgrwt>
</event>
<event>
12    1  0.1496989E-007  0.1225698E+04  0.7818608E-02  0.9090656E-01
         -2   -1    0    0    0  501 -0.00000000000E+00  0.00000000000E+00  0.25634201530E+03  0.25634201530E+03  0.00000000000E+00 0.  1.
          2   -1    0    0  501    0  0.00000000000E+00 -0.00000000000E+00 -0.14651663559E+04  0.14651663559E+04  0.00000000000E+00 0. -1.
         23    2    1    2    0    0 -0.18762172377E+03 -0.17611535623E+03 -0.38358793229E+03  0.47143866315E+03  0.94319570501E+02 0.  0.
        254    2    1    2    0    0  0.18762172377E+03  0.17611535623E+03 -0.82523640831E+03  0.12500697081E+04  0.90301750563E+03 0.  0.
        -24    2    4    4    0    0  0.53274921005E+03  0.52531494048E+02 -0.61845470879E+03  0.82172189638E+03  0.78481650691E+02 0.  0.
         24    2    4    4    0    0 -0.34512748628E+03  0.12358386218E+03 -0.20678169952E+03  0.42834781167E+03  0.79606681430E+02 0.  0.
         11    1    3    3    0    0 -0.11582047610E+03 -0.11070718371E+03 -0.31215489043E+03  0.35087196928E+03  0.00000000000E+00 0. -1.
        -11    1    3    3    0    0 -0.71801247670E+02 -0.65408172523E+02 -0.71433041859E+02  0.12056669386E+03  0.00000000000E+00 0.  1.
          2    1    6    6  502    0 -0.13729859660E+02  0.55659190882E+01 -0.32586970748E+02  0.35796636212E+02  0.00000000000E+00 0. -1.
          1    1    5    5  503    0  0.59138425142E+02  0.23392438566E+02 -0.47780370539E+02  0.79545730993E+02  0.00000000000E+00 0. -1.
         -2    1    5    5    0  503  0.47361078491E+03  0.29139055483E+02 -0.57067433825E+03  0.74217616539E+03  0.00000000000E+00 0.  1.
         -1    1    6    6    0  502 -0.33139762662E+03  0.11801794310E+03 -0.17419472877E+03  0.39255117546E+03  0.00000000000E+00 0.  1.
<mgrwt>
<rscale>  0 0.12256977E+04</rscale>
<asrwt>0</asrwt>
<pdfrwt beam="1">  1        2 0.22541020E+00 0.12256977E+04</pdfrwt>
<pdfrwt beam="2">  1       -2 0.39437234E-01 0.12256977E+04</pdfrwt>
<totfact> 0.79527512E+01</totfact>
</mgrwt>
</event>
<event>
12    1  0.1496989E-007  0.1800215E+04  0.7818608E-02  0.8706185E-01
          1   -1    0    0  501    0  0.00000000000E+00  0.00000000000E+00  0.11665476087E+04  0.11665476087E+04  0.00000000000E+00 0. -1.
         -1   -1    0    0    0  501 -0.00000000000E+00 -0.00000000000E+00 -0.69452241847E+03  0.69452241847E+03  0.00000000000E+00 0.  1.
         23    2    1    2    0    0  0.38481424131E+03 -0.38811877894E+03 -0.22592334499E+03  0.59827877811E+03  0.90432027766E+02 0.  0.
        254    2    1    2    0    0 -0.38481424131E+03  0.38811877894E+03  0.69794853517E+03  0.12627912490E+04  0.89932830156E+03 0.  0.
        -24    2    4    4    0    0  0.11468895204E+03 -0.18792129536E+03  0.12656692833E+02  0.23443479991E+03  0.79570814794E+02 0.  0.
         24    2    4    4    0    0 -0.49950319335E+03  0.57604007430E+03  0.68529184233E+03  0.10283564491E+04  0.81033757653E+02 0.  0.
         13    1    3    3    0    0  0.38449585008E+03 -0.36737310174E+03 -0.22522921304E+03  0.57751904991E+03  0.00000000000E+00 0.  1.
        -13    1    3    3    0    0  0.31839122965E+00 -0.20745677204E+02 -0.69413195073E+00  0.20759728197E+02  0.00000000000E+00 0. -1.
          4    1    6    6  502    0 -0.42497183544E+03  0.50083540045E+03  0.62414824186E+03  0.90608950280E+03  0.00000000000E+00 0. -1.
          1    1    5    5  503    0  0.12611418438E+03 -0.15901035506E+03  0.92429664444E+01  0.20316129786E+03  0.00000000000E+00 0. -1.
         -2    1    5    5    0  503 -0.11425232339E+02 -0.28910940301E+02  0.34137263890E+01  0.31273502057E+02  0.00000000000E+00 0.  1.
         -3    1    6    6    0  502 -0.74531357908E+02  0.75204673847E+02  0.61143600476E+02  0.12226694631E+03  0.00000000000E+00 0.  1.
<mgrwt>
<rscale>  0 0.18002149E+04</rscale>
<asrwt>0</asrwt>
<pdfrwt beam="1">  1        1 0.17946886E+00 0.18002149E+04</pdfrwt>
<pdfrwt beam="2">  1       -1 0.10684960E+00 0.18002149E+04</pdfrwt>
<totfact> 0.87220591E+00</totfact>
</mgrwt>
</event>
<event>
12    1  0.1496989E-007  0.1840375E+04  0.7818608E-02  0.8685118E-01
         -2   -1    0    0    0  501 -0.00000000000E+00  0.00000000000E+00  0.42965351913E+03  0.42965351913E+03  0.00000000000E+00 0.  1.
          2   -1    0    0  501    0  0.00000000000E+00 -0.00000000000E+00 -0.19707623137E+04  0.19707623137E+04  0.00000000000E+00 0. -1.
         23    2    1    2    0    0  0.33417484709E+03  0.52518758917E+03 -0.10065719490E+04  0.11870873323E+04  0.92165143178E+02 0.  0.
        254    2    1    2    0    0 -0.33417484709E+03 -0.52518758917E+03 -0.53453684555E+03  0.12133285006E+04  0.89383531972E+03 0.  0.
        -24    2    4    4    0    0 -0.88498956841E+02 -0.39134181847E+03  0.17696805396E+03  0.44553877631E+03  0.78782135179E+02 0.  0.
         24    2    4    4    0    0 -0.24567589025E+03 -0.13384577070E+03 -0.71150489951E+03  0.76778972426E+03  0.70643508310E+02 0.  0.
         11    1    3    3    0    0  0.46703469344E+01  0.18056909024E+02 -0.94861480365E+01  0.20924892080E+02  0.00000000000E+00 0.  1.
        -11    1    3    3    0    0  0.32950450016E+03  0.50713068015E+03 -0.99708580100E+03  0.11661624402E+04  0.00000000000E+00 0. -1.
          4    1    6    6  502    0 -0.56523859714E+02 -0.13835927190E+02 -0.22135133439E+03  0.22887287483E+03  0.00000000000E+00 0. -1.
          3    1    5    5  503    0 -0.45720269451E+01 -0.12450815393E+03  0.24552395000E+02  0.12698820388E+03  0.00000000000E+00 0. -1.
         -2    1    5    5    0  503 -0.83926929895E+02 -0.26683366454E+03  0.15241565896E+03  0.31855057242E+03  0.00000000000E+00 0.  1.
         -3    1    6    6    0  502 -0.18915203054E+03 -0.12000984351E+03 -0.49015356512E+03  0.53891684942E+03  0.00000000000E+00 0.  1.
<mgrwt>
<rscale>  0 0.18403749E+04</rscale>
<asrwt>0</asrwt>
<pdfrwt beam="1">  1        2 0.30319419E+00 0.18403749E+04</pdfrwt>
<pdfrwt beam="2">  1       -2 0.66100544E-01 0.18403749E+04</pdfrwt>
<totfact> 0.13742261E+01</totfact>
</mgrwt>
</event>
<event>
12    1  0.1496989E-007  0.1928281E+04  0.7818608E-02  0.8640906E-01
         -1   -1    0    0    0  501 -0.00000000000E+00  0.00000000000E+00  0.47429518437E+03  0.47429518437E+03  0.00000000000E+00 0.  1.
          1   -1    0    0  501    0  0.00000000000E+00 -0.00000000000E+00 -0.19598917546E+04  0.19598917546E+04  0.00000000000E+00 0. -1.
         23    2    1    2    0    0  0.46058730321E+03  0.27961114366E+03  0.71765603932E+02  0.55176619054E+03  0.94723659038E+02 0.  0.
        254    2    1    2    0    0 -0.46058730321E+03 -0.27961114366E+03 -0.15573621742E+04  0.18824207484E+04  0.90983947875E+03 0.  0.
        -24    2    4    4    0    0 -0.14912871707E+03 -0.33944407798E+03 -0.15038525501E+04  0.15510197271E+04  0.81412806634E+02 0.  0.
         24    2    4    4    0    0 -0.31145858613E+03  0.59832934324E+02 -0.53509624124E+02  0.33140102139E+03  0.79855658529E+02 0.  0.
         11    1    3    3    0    0  0.37018398387E+02  0.37689266086E+02 -0.17954108651E+02  0.55795991027E+02  0.00000000000E+00 0. -1.
        -11    1    3    3    0    0  0.42356890482E+03  0.24192187757E+03  0.89719712583E+02  0.49597019951E+03  0.00000000000E+00 0.  1.
          2    1    6    6  502    0 -0.75281242766E+02  0.40429374899E+02 -0.39153209197E+02  0.93993476675E+02  0.00000000000E+00 0. -1.
          3    1    5    5  503    0 -0.12508755085E+02 -0.23193931072E+02 -0.45969847804E+02  0.52987303191E+02  0.00000000000E+00 0. -1.
         -4    1    5    5    0  503 -0.13661996199E+03 -0.31625014691E+03 -0.14578827023E+04  0.14980324239E+04  0.00000000000E+00 0.  1.
         -3    1    6    6    0  502 -0.23617734337E+03  0.19403559425E+02 -0.14356414928E+02  0.23740754472E+03  0.00000000000E+00 0.  1.
<mgrwt>
<rscale>  0 0.19282813E+04</rscale>
<asrwt>0</asrwt>
<pdfrwt beam="1">  1        1 0.30152181E+00 0.19282813E+04</pdfrwt>
<pdfrwt beam="2">  1       -1 0.72968490E-01 0.19282813E+04</pdfrwt>
<totfact> 0.56067576E+00</totfact>
</mgrwt>
</event>
<event>
12    1  0.1496989E-007  0.2052530E+04  0.7818608E-02  0.8582447E-01
         -2   -1    0    0    0  501 -0.00000000000E+00  0.00000000000E+00  0.74140497381E+03  0.74140497381E+03  0.00000000000E+00 0.  1.
          2   -1    0    0  501    0  0.00000000000E+00 -0.00000000000E+00 -0.14205734878E+04  0.14205734878E+04  0.00000000000E+00 0. -1.
         23    2    1    2    0    0 -0.47744573932E+03  0.48125237053E+03  0.22444621644E+03  0.71943614729E+03  0.87487072334E+02 0.  0.
        254    2    1    2    0    0  0.47744573932E+03 -0.48125237053E+03 -0.90361473042E+03  0.14425423143E+04  0.89713458824E+03 0.  0.
        -24    2    4    4    0    0  0.60665593270E+03 -0.38599154723E+03 -0.10038806237E+04  0.12373509871E+04  0.78995338470E+02 0.  0.
         24    2    4    4    0    0 -0.12921019338E+03 -0.95260823297E+02  0.10026589324E+03  0.20519132721E+03  0.79248551311E+02 0.  0.
         13    1    3    3    0    0 -0.33225079814E+03  0.36936877330E+03  0.13153184523E+03  0.51393045236E+03  0.00000000000E+00 0.  1.
        -13    1    3    3    0    0 -0.14519494118E+03  0.11188359723E+03  0.92914371212E+02  0.20550569493E+03  0.00000000000E+00 0. -1.
          4    1    6    6  502    0 -0.13109612590E+03 -0.65550659575E+02  0.68935600249E+02  0.16197283778E+03  0.00000000000E+00 0. -1.
          1    1    5    5  503    0  0.49884183948E+03 -0.29881560160E+03 -0.76170656765E+03  0.95829579973E+03  0.00000000000E+00 0. -1.
         -2    1    5    5    0  503  0.10781409322E+03 -0.87175945631E+02 -0.24217405602E+03  0.27905518738E+03  0.00000000000E+00 0.  1.
         -3    1    6    6    0  502  0.18859325121E+01 -0.29710163722E+02  0.31330292994E+02  0.43218489434E+02  0.00000000000E+00 0.  1.
<mgrwt>
<rscale>  0 0.20525304E+04</rscale>
<asrwt>0</asrwt>
<pdfrwt beam="1">  1        2 0.21854977E+00 0.20525304E+04</pdfrwt>
<pdfrwt beam="2">  1       -2 0.11406230E+00 0.20525304E+04</pdfrwt>
<totfact> 0.78390261E+00</totfact>
</mgrwt>
</event>
<event>
12    1  0.1496989E-007  0.2777084E+04  0.7818608E-02  0.8310418E-01
         -1   -1    0    0    0  501 -0.00000000000E+00  0.00000000000E+00  0.11416668100E+04  0.11416668100E+04  0.00000000000E+00 0.  1.
          1   -1    0    0  501    0  0.00000000000E+00 -0.00000000000E+00 -0.16888013347E+04  0.16888013347E+04  0.00000000000E+00 0. -1.
         23    2    1    2    0    0  0.12003590376E+03  0.11525049296E+04  0.21315365155E+03  0.11814263004E+04  0.87506532200E+02 0.  0.
        254    2    1    2    0    0 -0.12003590376E+03 -0.11525049296E+04 -0.76028817625E+03  0.16490418442E+04  0.89365802292E+03 0.  0.
        -24    2    4    4    0    0  0.84053955323E+02 -0.56294243190E+03  0.99881765855E+02  0.58330182265E+03  0.79343557523E+02 0.  0.
         24    2    4    4    0    0 -0.20408985909E+03 -0.58956249773E+03 -0.86016994210E+03  0.10657400215E+04  0.81687544354E+02 0.  0.
         13    1    3    3    0    0  0.16537440327E+02  0.16706439767E+03  0.62703651465E+02  0.17920867113E+03  0.00000000000E+00 0. -1.
        -13    1    3    3    0    0  0.10349846344E+03  0.98544053196E+03  0.15045000008E+03  0.10022176293E+04  0.00000000000E+00 0.  1.
          4    1    6    6  502    0 -0.10137057973E+03 -0.33808328275E+03 -0.54910448048E+03  0.65275725273E+03  0.00000000000E+00 0. -1.
          3    1    5    5  503    0  0.75700385292E+02 -0.30500705213E+03  0.81054560794E+02  0.32454536202E+03  0.00000000000E+00 0. -1.
         -4    1    5    5    0  503  0.83535700310E+01 -0.25793537977E+03  0.18827205062E+02  0.25875646063E+03  0.00000000000E+00 0.  1.
         -3    1    6    6    0  502 -0.10271927936E+03 -0.25147921498E+03 -0.31106546162E+03  0.41298276881E+03  0.00000000000E+00 0.  1.
<mgrwt>
<rscale>  0 0.27770837E+04</rscale>
<asrwt>0</asrwt>
<pdfrwt beam="1">  1        1 0.25981559E+00 0.27770837E+04</pdfrwt>
<pdfrwt beam="2">  1       -1 0.17564105E+00 0.27770837E+04</pdfrwt>
<totfact> 0.94157574E-01</totfact>
</mgrwt>
</event>
<event>
12    1  0.1496989E-007  0.1743002E+04  0.7818608E-02  0.8737212E-01
          1   -1    0    0  501    0  0.00000000000E+00  0.00000000000E+00  0.14858486872E+04  0.14858486872E+04  0.00000000000E+00 0. -1.
         -1   -1    0    0    0  501 -0.00000000000E+00 -0.00000000000E+00 -0.51116504861E+03  0.51116504861E+03  0.00000000000E+00 0.  1.
         23    2    1    2    0    0 -0.38344846131E+03  0.15276860147E+02 -0.21992098275E+03  0.45156059217E+03  0.90970461185E+02 0.  0.
        254    2    1    2    0    0  0.38344846131E+03 -0.15276860147E+02  0.11946046213E+04  0.15454531436E+04  0.90226332791E+03 0.  0.
        -24    2    4    4    0    0 -0.73551435990E+01  0.24392415153E+03  0.99997774414E+03  0.10326623830E+04  0.82963959892E+02 0.  0.
         24    2    4    4    0    0  0.39080360491E+03 -0.25920101167E+03  0.19462687716E+03  0.51279076061E+03  0.71847900363E+02 0.  0.
         11    1    3    3    0    0 -0.15905580903E+02 -0.75077993022E+01  0.70889174884E+01  0.18963314725E+02  0.00000000000E+00 0. -1.
        -11    1    3    3    0    0 -0.36754288041E+03  0.22784659449E+02 -0.22700990024E+03  0.43259727745E+03  0.00000000000E+00 0.  1.
          4    1    6    6  502    0  0.35623154012E+03 -0.23754927461E+03  0.15347361603E+03  0.45484581878E+03  0.00000000000E+00 0. -1.
          3    1    5    5  503    0  0.15203443987E+02  0.14346083329E+03  0.43269066196E+03  0.45610674666E+03  0.00000000000E+00 0. -1.
         -4    1    5    5    0  503 -0.22558587586E+02  0.10046331823E+03  0.56728708218E+03  0.57655563633E+03  0.00000000000E+00 0.  1.
         -3    1    6    6    0  502  0.34572064792E+02 -0.21651737066E+02  0.41153261130E+02  0.57944941829E+02  0.00000000000E+00 0.  1.
<mgrwt>
<rscale>  0 0.17430019E+04</rscale>
<asrwt>0</asrwt>
<pdfrwt beam="1">  1        1 0.22859210E+00 0.17430019E+04</pdfrwt>
<pdfrwt beam="2">  1       -1 0.78640777E-01 0.17430019E+04</pdfrwt>
<totfact> 0.10264143E+01</totfact>
</mgrwt>
</event>
<event>
12    1  0.1496989E-007  0.3105034E+04  0.7818608E-02  0.8214358E-01
         -1   -1    0    0    0  501 -0.00000000000E+00  0.00000000000E+00  0.13718078630E+04  0.13718078630E+04  0.00000000000E+00 0.  1.
          1   -1    0    0  501    0  0.00000000000E+00 -0.00000000000E+00 -0.17570307341E+04  0.17570307341E+04  0.00000000000E+00 0. -1.
         23    2    1    2    0    0  0.12988972897E+03  0.54567664956E+03 -0.14904751167E+04  0.15950832688E+04  0.90223132133E+02 0.  0.
        254    2    1    2    0    0 -0.12988972897E+03 -0.54567664956E+03  0.11052522456E+04  0.15337553283E+04  0.90343153210E+03 0.  0.
        -24    2    4    4    0    0 -0.39192276980E+02 -0.53330770486E+03  0.13670046438E+03  0.55758339242E+03  0.79114347048E+02 0.  0.
         24    2    4    4    0    0 -0.90697451989E+02 -0.12368944703E+02  0.96855178120E+03  0.97617193588E+03  0.80250090081E+02 0.  0.
         13    1    3    3    0    0  0.45087950536E+02  0.66037725946E+02 -0.24672367547E+03  0.25935781571E+03  0.00000000000E+00 0.  1.
        -13    1    3    3    0    0  0.84801778433E+02  0.47963892361E+03 -0.12437514412E+04  0.13357254531E+04  0.00000000000E+00 0. -1.
          2    1    6    6  502    0 -0.28824350966E+02  0.21644556836E+02  0.13819516907E+03  0.14281888812E+03  0.00000000000E+00 0. -1.
          1    1    5    5  503    0  0.13419393807E+01 -0.13830409395E+03  0.69742995955E+02  0.15489967298E+03  0.00000000000E+00 0. -1.
         -2    1    5    5    0  503 -0.40534216361E+02 -0.39500361091E+03  0.66957468424E+02  0.40268371944E+03  0.00000000000E+00 0.  1.
         -1    1    6    6    0  502 -0.61873101024E+02 -0.34013501539E+02  0.83035661212E+03  0.83335304776E+03  0.00000000000E+00 0.  1.
<mgrwt>
<rscale>  0 0.31050337E+04</rscale>
<asrwt>0</asrwt>
<pdfrwt beam="1">  1        1 0.27031242E+00 0.31050337E+04</pdfrwt>
<pdfrwt beam="2">  1       -1 0.21104736E+00 0.31050337E+04</pdfrwt>
<totfact> 0.46488880E-01</totfact>
</mgrwt>
</event>
<event>
12    1  0.1496989E-007  0.2737987E+04  0.7818608E-02  0.8322784E-01
         -2   -1    0    0    0  501 -0.00000000000E+00  0.00000000000E+00  0.95989034653E+03  0.95989034653E+03  0.00000000000E+00 0.  1.
          2   -1    0    0  501    0  0.00000000000E+00 -0.00000000000E+00 -0.19524550029E+04  0.19524550029E+04  0.00000000000E+00 0. -1.
         23    2    1    2    0    0  0.45520302770E+02  0.76842505363E+03 -0.13486788669E+04  0.15544696691E+04  0.69943584616E+02 0.  0.
        254    2    1    2    0    0 -0.45520302770E+02 -0.76842505363E+03  0.35611421057E+03  0.13578756803E+04  0.10604055221E+04 0.  0.
        -24    2    4    4    0    0 -0.46876152862E+02 -0.97712586453E+03  0.49064778597E+03  0.10972579466E+04  0.79167055862E+02 0.  0.
         24    2    4    4    0    0  0.13558500919E+01  0.20870081090E+03 -0.13453357540E+03  0.26061773369E+03  0.79148300071E+02 0.  0.
         11    1    3    3    0    0  0.56947204973E+01  0.59343124036E+03 -0.10397683090E+04  0.11972097575E+04  0.00000000000E+00 0. -1.
        -11    1    3    3    0    0  0.39825582273E+02  0.17499381327E+03 -0.30891055789E+03  0.35725991164E+03  0.00000000000E+00 0.  1.
          2    1    6    6  502    0  0.51868262683E+00  0.13791150467E+02 -0.43233005730E+02  0.45382349513E+02  0.00000000000E+00 0. -1.
          1    1    5    5  503    0 -0.16479369779E+02 -0.28857326639E+03  0.18591970311E+03  0.34367460731E+03  0.00000000000E+00 0. -1.
         -2    1    5    5    0  503 -0.30396783083E+02 -0.68855259814E+03  0.30472808286E+03  0.75358333933E+03  0.00000000000E+00 0.  1.
         -1    1    6    6    0  502  0.83716746510E+00  0.19490966044E+03 -0.91300569667E+02  0.21523538418E+03  0.00000000000E+00 0.  1.
<mgrwt>
<rscale>  0 0.27379866E+04</rscale>
<asrwt>0</asrwt>
<pdfrwt beam="1">  1        2 0.30037769E+00 0.27379866E+04</pdfrwt>
<pdfrwt beam="2">  1       -2 0.14767544E+00 0.27379866E+04</pdfrwt>
<totfact> 0.19393837E+00</totfact>
</mgrwt>
</event>
<event>
12    1  0.1496989E-007  0.1306470E+04  0.7818608E-02  0.9024450E-01
         -2   -1    0    0    0  501 -0.00000000000E+00  0.00000000000E+00  0.98684278535E+03  0.98684278535E+03  0.00000000000E+00 0.  1.
          2   -1    0    0  501    0  0.00000000000E+00 -0.00000000000E+00 -0.43240502459E+03  0.43240502459E+03  0.00000000000E+00 0. -1.
         23    2    1    2    0    0  0.17752544456E+03 -0.22595757884E+03  0.34411636145E+03  0.45724206553E+03  0.89900641673E+02 0.  0.
        254    2    1    2    0    0 -0.17752544456E+03  0.22595757884E+03  0.21032139931E+03  0.96200574442E+03  0.89367099672E+03 0.  0.
        -24    2    4    4    0    0 -0.49378700637E+03  0.47024457224E+02  0.29154462277E+03  0.58074457973E+03  0.78924600591E+02 0.  0.
         24    2    4    4    0    0  0.31626156181E+03  0.17893312161E+03 -0.81223223463E+02  0.38126116469E+03  0.82002598649E+02 0.  0.
         13    1    3    3    0    0  0.86283577149E+01 -0.67351322353E+02  0.97999448660E+02  0.11922475044E+03  0.00000000000E+00 0. -1.
        -13    1    3    3    0    0  0.16889708685E+03 -0.15860625648E+03  0.24611691279E+03  0.33801731509E+03  0.00000000000E+00 0.  1.
          4    1    6    6  502    0  0.31610303010E+03  0.16710374885E+03 -0.87161013930E+02  0.36802422593E+03  0.00000000000E+00 0. -1.
          1    1    5    5  503    0 -0.28324282441E+03  0.62278124080E+02  0.18806878730E+03  0.34565145895E+03  0.00000000000E+00 0. -1.
         -2    1    5    5    0  503 -0.21054418196E+03 -0.15253666856E+02  0.10347583547E+03  0.23509312077E+03  0.00000000000E+00 0.  1.
         -3    1    6    6    0  502  0.15853170494E+00  0.11829372759E+02  0.59377904677E+01  0.13236938763E+02  0.00000000000E+00 0.  1.
<mgrwt>
<rscale>  0 0.13064697E+04</rscale>
<asrwt>0</asrwt>
<pdfrwt beam="1">  1        2 0.66523850E-01 0.13064697E+04</pdfrwt>
<pdfrwt beam="2">  1       -2 0.15182197E+00 0.13064697E+04</pdfrwt>
<totfact> 0.20671598E+01</totfact>
</mgrwt>
</event>
<event>
12    1  0.1496989E-007  0.2035907E+04  0.7818608E-02  0.8590015E-01
         -2   -1    0    0    0  501 -0.00000000000E+00  0.00000000000E+00  0.30458174974E+03  0.30458174974E+03  0.00000000000E+00 0.  1.
          2   -1    0    0  501    0  0.00000000000E+00 -0.00000000000E+00 -0.34021377135E+04  0.34021377135E+04  0.00000000000E+00 0. -1.
         23    2    1    2    0    0 -0.16889245489E+03 -0.22532641204E+03 -0.26476177989E+04  0.26641021844E+04  0.90905370958E+02 0.  0.
        254    2    1    2    0    0  0.16889245489E+03  0.22532641204E+03 -0.44993816488E+03  0.10426172789E+04  0.89739054192E+03 0.  0.
        -24    2    4    4    0    0  0.33879080961E+03  0.66534857991E+02 -0.63950136970E+03  0.73171238845E+03  0.85058318651E+02 0.  0.
         24    2    4    4    0    0 -0.16989835471E+03  0.15879155405E+03  0.18956320481E+03  0.31090489043E+03  0.81531795666E+02 0.  0.
         11    1    3    3    0    0 -0.52663241167E+02 -0.73806527125E+02 -0.51223960254E+03  0.52020210575E+03  0.00000000000E+00 0.  1.
        -11    1    3    3    0    0 -0.11622921373E+03 -0.15151988491E+03 -0.21353781964E+04  0.21439000786E+04  0.00000000000E+00 0. -1.
          4    1    6    6  502    0 -0.11283247328E+03  0.14726795448E+03  0.12360459542E+03  0.22292849403E+03  0.00000000000E+00 0. -1.
          1    1    5    5  503    0  0.34328085995E+03  0.61850218272E+02 -0.62333710225E+03  0.71429429604E+03  0.00000000000E+00 0. -1.
         -2    1    5    5    0  503 -0.44900503440E+01  0.46846397199E+01 -0.16164267445E+02  0.17418092416E+02  0.00000000000E+00 0.  1.
         -3    1    6    6    0  502 -0.57065881430E+02  0.11523599572E+02  0.65958609391E+02  0.87976396399E+02  0.00000000000E+00 0.  1.
<mgrwt>
<rscale>  0 0.20359067E+04</rscale>
<asrwt>0</asrwt>
<pdfrwt beam="1">  1        2 0.52340577E+00 0.20359067E+04</pdfrwt>
<pdfrwt beam="2">  1       -2 0.46858734E-01 0.20359067E+04</pdfrwt>
<totfact> 0.38173251E+00</totfact>
</mgrwt>
</event>
<event>
12    1  0.1496989E-007  0.1938609E+04  0.7818608E-02  0.8635873E-01
         -1   -1    0    0    0  501 -0.00000000000E+00  0.00000000000E+00  0.13640075731E+04  0.13640075731E+04  0.00000000000E+00 0.  1.
          1   -1    0    0  501    0  0.00000000000E+00 -0.00000000000E+00 -0.68881706431E+03  0.68881706431E+03  0.00000000000E+00 0. -1.
         23    2    1    2    0    0 -0.58492301062E+03  0.12527436325E+02 -0.24085652247E+03  0.64025354074E+03  0.98086018401E+02 0.  0.
        254    2    1    2    0    0  0.58492301062E+03 -0.12527436325E+02  0.91604703125E+03  0.14125710967E+04  0.90217685332E+03 0.  0.
        -24    2    4    4    0    0  0.35200986996E+03 -0.21761181913E+03  0.99649025671E+03  0.10820793185E+04  0.81467585291E+02 0.  0.
         24    2    4    4    0    0  0.23291314066E+03  0.20508438281E+03 -0.80443225458E+02  0.33049177816E+03  0.80284293265E+02 0.  0.
         11    1    3    3    0    0 -0.52523387203E+03 -0.54710947030E+01 -0.18603264399E+03  0.55723307317E+03  0.00000000000E+00 0. -1.
        -11    1    3    3    0    0 -0.59689138587E+02  0.17998531028E+02 -0.54823878475E+02  0.83020467569E+02  0.00000000000E+00 0.  1.
          2    1    6    6  502    0  0.10154519515E+03  0.63217860096E+02 -0.65972050094E+02  0.13660247394E+03  0.00000000000E+00 0. -1.
          1    1    5    5  503    0  0.33673830071E+03 -0.22166386737E+03  0.97752887496E+03  0.10573978696E+04  0.00000000000E+00 0. -1.
         -2    1    5    5    0  503  0.15271569248E+02  0.40520482359E+01  0.18961381749E+02  0.24681448905E+02  0.00000000000E+00 0.  1.
         -1    1    6    6    0  502  0.13136794551E+03  0.14186652271E+03 -0.14471175364E+02  0.19388930422E+03  0.00000000000E+00 0.  1.
<mgrwt>
<rscale>  0 0.19386095E+04</rscale>
<asrwt>0</asrwt>
<pdfrwt beam="1">  1        1 0.10597186E+00 0.19386095E+04</pdfrwt>
<pdfrwt beam="2">  1       -1 0.20984732E+00 0.19386095E+04</pdfrwt>
<totfact> 0.33545930E+00</totfact>
</mgrwt>
</event>
<event>
12    1  0.1496989E-007  0.1271436E+04  0.7818608E-02  0.9052529E-01
          1   -1    0    0  501    0  0.00000000000E+00  0.00000000000E+00  0.45356826051E+03  0.45356826051E+03  0.00000000000E+00 0. -1.
         -1   -1    0    0    0  501 -0.00000000000E+00 -0.00000000000E+00 -0.89101709886E+03  0.89101709886E+03  0.00000000000E+00 0.  1.
         23    2    1    2    0    0 -0.21523821693E+03  0.90055403103E+02  0.10085837268E+03  0.27052480575E+03  0.92594781342E+02 0.  0.
        254    2    1    2    0    0  0.21523821693E+03 -0.90055403103E+02 -0.53830721102E+03  0.10740605536E+04  0.89966324464E+03 0.  0.
        -24    2    4    4    0    0 -0.33782866276E+03 -0.99366278559E+02 -0.28684493078E+03  0.46094270999E+03  0.78653066574E+02 0.  0.
         24    2    4    4    0    0  0.55306687969E+03  0.93108754556E+01 -0.25146228024E+03  0.61311784363E+03  0.81917922209E+02 0.  0.
         11    1    3    3    0    0 -0.19867011295E+03  0.87925222915E+02  0.58505576352E+02  0.22499680235E+03  0.00000000000E+00 0.  1.
        -11    1    3    3    0    0 -0.16568103985E+02  0.21301801888E+01  0.42352796325E+02  0.45528003403E+02  0.00000000000E+00 0. -1.
          2    1    6    6  502    0  0.15409504918E+03 -0.24501599320E+01 -0.31233163878E+02  0.15724756911E+03  0.00000000000E+00 0. -1.
          1    1    5    5  503    0 -0.18651937113E+03 -0.17541409416E+02 -0.17015965841E+03  0.25308395089E+03  0.00000000000E+00 0. -1.
         -2    1    5    5    0  503 -0.15130929164E+03 -0.81824869143E+02 -0.11668527237E+03  0.20785875910E+03  0.00000000000E+00 0.  1.
         -1    1    6    6    0  502  0.39897183051E+03  0.11761035388E+02 -0.22022911637E+03  0.45587027452E+03  0.00000000000E+00 0.  1.
<mgrwt>
<rscale>  0 0.12714355E+04</rscale>
<asrwt>0</asrwt>
<pdfrwt beam="1">  1        1 0.69779733E-01 0.12714355E+04</pdfrwt>
<pdfrwt beam="2">  1       -1 0.13707955E+00 0.12714355E+04</pdfrwt>
<totfact> 0.22092467E+01</totfact>
</mgrwt>
</event>
<event>
12    1  0.1496989E-007  0.1328850E+04  0.7818608E-02  0.9006994E-01
         -2   -1    0    0    0  501 -0.00000000000E+00  0.00000000000E+00  0.94734356792E+03  0.94734356792E+03  0.00000000000E+00 0.  1.
          2   -1    0    0  501    0  0.00000000000E+00 -0.00000000000E+00 -0.46599853855E+03  0.46599853855E+03  0.00000000000E+00 0. -1.
         23    2    1    2    0    0  0.29610482660E+03  0.15172251031E+03 -0.14754347698E+01  0.34508752160E+03  0.91572005468E+02 0.  0.
        254    2    1    2    0    0 -0.29610482660E+03 -0.15172251031E+03  0.48282046414E+03  0.10682545849E+04  0.89294706955E+03 0.  0.
        -24    2    4    4    0    0 -0.21182459840E+03  0.20012618802E+03  0.60637581276E+03  0.67746935856E+03  0.79705419313E+02 0.  0.
         24    2    4    4    0    0 -0.84280228208E+02 -0.35184869833E+03 -0.12355534862E+03  0.39078522631E+03  0.80910478561E+02 0.  0.
         11    1    3    3    0    0 -0.41570828753E+01  0.95216064967E+01  0.73689659164E+01  0.12737503169E+02  0.00000000000E+00 0.  1.
        -11    1    3    3    0    0  0.30026190948E+03  0.14220090382E+03 -0.88444006861E+01  0.33235001843E+03  0.00000000000E+00 0. -1.
          2    1    6    6  502    0 -0.97787393970E+02 -0.32376208052E+03 -0.10336254040E+03  0.35364964861E+03  0.00000000000E+00 0. -1.
          1    1    5    5  503    0 -0.17539946243E+03  0.15951843241E+03  0.55048150128E+03  0.59936715371E+03  0.00000000000E+00 0. -1.
         -2    1    5    5    0  503 -0.36425135961E+02  0.40607755614E+02  0.55894311483E+02  0.78102204847E+02  0.00000000000E+00 0.  1.
         -1    1    6    6    0  502  0.13507165762E+02 -0.28086617812E+02 -0.20192808224E+02  0.37135577699E+02  0.00000000000E+00 0.  1.
<mgrwt>
<rscale>  0 0.13288502E+04</rscale>
<asrwt>0</asrwt>
<pdfrwt beam="1">  1        2 0.71692083E-01 0.13288502E+04</pdfrwt>
<pdfrwt beam="2">  1       -2 0.14574516E+00 0.13288502E+04</pdfrwt>
<totfact> 0.21110871E+01</totfact>
</mgrwt>
</event>
<event>
12    1  0.1575083E-007  0.1343252E+04  0.7818608E-02  0.8995952E-01
          1   -1    0    0  501    0  0.00000000000E+00  0.00000000000E+00  0.71859069684E+03  0.71859069684E+03  0.00000000000E+00 0. -1.
         -1   -1    0    0    0  501 -0.00000000000E+00 -0.00000000000E+00 -0.62773050416E+03  0.62773050416E+03  0.00000000000E+00 0.  1.
         23    2    1    2    0    0 -0.31617045433E+03 -0.13543345628E+03 -0.57052362205E+02  0.36040225064E+03  0.91262440043E+02 0.  0.
        254    2    1    2    0    0  0.31617045433E+03  0.13543345628E+03  0.14791255489E+03  0.98591895036E+03  0.91205925000E+03 0.  0.
        -24    2    4    4    0    0  0.61870283563E+03  0.95672421160E+02 -0.14892953102E+02  0.63054807746E+03  0.73638759892E+02 0.  0.
         24    2    4    4    0    0 -0.30253238129E+03  0.39761035115E+02  0.16280550799E+03  0.35537087290E+03  0.81707051272E+02 0.  0.
         13    1    3    3    0    0 -0.17737689038E+02 -0.93389057445E+01  0.18997373755E+02  0.27617765704E+02  0.00000000000E+00 0. -1.
        -13    1    3    3    0    0 -0.29843276529E+03 -0.12609455053E+03 -0.76049735961E+02  0.33278448494E+03  0.00000000000E+00 0.  1.
          2    1    6    6  502    0 -0.14969223136E+03  0.38562243247E+02  0.40991652867E+02  0.15992225092E+03  0.00000000000E+00 0. -1.
          3    1    5    5  503    0  0.18354069417E+03 -0.54401547168E-01  0.13797632649E+02  0.18405858861E+03  0.00000000000E+00 0. -1.
         -4    1    5    5    0  503  0.43516214146E+03  0.95726822707E+02 -0.28690585751E+02  0.44648948885E+03  0.00000000000E+00 0.  1.
         -1    1    6    6    0  502 -0.15284014993E+03  0.11987918682E+01  0.12181385513E+03  0.19544862198E+03  0.00000000000E+00 0.  1.
<mgrwt>
<rscale>  0 0.13432517E+04</rscale>
<asrwt>0</asrwt>
<pdfrwt beam="1">  1        1 0.11055241E+00 0.13432517E+04</pdfrwt>
<pdfrwt beam="2">  1       -1 0.96573924E-01 0.13432517E+04</pdfrwt>
<totfact> 0.26459358E+01</totfact>
</mgrwt>
</event>
<event>
12    1  0.1496989E-007  0.1567442E+04  0.7818608E-02  0.8840803E-01
          1   -1    0    0  501    0  0.00000000000E+00  0.00000000000E+00  0.13450568498E+04  0.13450568498E+04  0.00000000000E+00 0. -1.
         -1   -1    0    0    0  501 -0.00000000000E+00 -0.00000000000E+00 -0.45664864996E+03  0.45664864996E+03  0.00000000000E+00 0.  1.
         23    2    1    2    0    0  0.39413121433E+03 -0.32077907039E+03  0.43449950641E+03  0.67440858499E+03  0.88309072758E+02 0.  0.
        254    2    1    2    0    0 -0.39413121433E+03  0.32077907039E+03  0.45390869347E+03  0.11272969148E+04  0.89806826356E+03 0.  0.
        -24    2    4    4    0    0 -0.58336236707E+03 -0.64392727130E+02  0.30128195496E+03  0.66484592447E+03  0.82408811888E+02 0.  0.
         24    2    4    4    0    0  0.18923115274E+03  0.38517179752E+03  0.15262673851E+03  0.46245099034E+03  0.80001589889E+02 0.  0.
         11    1    3    3    0    0  0.30849946967E+03 -0.29238707744E+03  0.34652823192E+03  0.54840125944E+03  0.00000000000E+00 0. -1.
        -11    1    3    3    0    0  0.85631744660E+02 -0.28391992954E+02  0.87971274486E+02  0.12600732555E+03  0.00000000000E+00 0.  1.
          4    1    6    6  502    0  0.16419146677E+03  0.25161758536E+03  0.11166863056E+03  0.32053101265E+03  0.00000000000E+00 0. -1.
          3    1    5    5  503    0 -0.40049805339E+03 -0.76575626773E+02  0.18466869588E+03  0.44762154174E+03  0.00000000000E+00 0. -1.
         -4    1    5    5    0  503 -0.18286431367E+03  0.12182899643E+02  0.11661325909E+03  0.21722438273E+03  0.00000000000E+00 0.  1.
         -3    1    6    6    0  502  0.25039685976E+02  0.13355421216E+03  0.40958107949E+02  0.14191997769E+03  0.00000000000E+00 0.  1.
<mgrwt>
<rscale>  0 0.15674417E+04</rscale>
<asrwt>0</asrwt>
<pdfrwt beam="1">  1        1 0.20693182E+00 0.15674417E+04</pdfrwt>
<pdfrwt beam="2">  1       -1 0.70253639E-01 0.15674417E+04</pdfrwt>
<totfact> 0.16552171E+01</totfact>
</mgrwt>
</event>
<event>
12    1  0.1496989E-007  0.1276280E+04  0.7818608E-02  0.9048590E-01
          2   -1    0    0  501    0  0.00000000000E+00  0.00000000000E+00  0.12532979410E+04  0.12532979410E+04  0.00000000000E+00 0. -1.
         -2   -1    0    0    0  501 -0.00000000000E+00 -0.00000000000E+00 -0.32492073851E+03  0.32492073851E+03  0.00000000000E+00 0.  1.
         23    2    1    2    0    0  0.28020222329E+03 -0.38950406139E+01  0.39434841010E+03  0.49266157712E+03  0.93146678669E+02 0.  0.
        254    2    1    2    0    0 -0.28020222329E+03  0.38950406139E+01  0.53402879236E+03  0.10855571024E+04  0.90261786716E+03 0.  0.
        -24    2    4    4    0    0  0.94641518108E+02 -0.33815219621E+03  0.43125113300E+03  0.56179038494E+03  0.79542266418E+02 0.  0.
         24    2    4    4    0    0 -0.37484374140E+03  0.34204723683E+03  0.10277765936E+03  0.52376671742E+03  0.79146600192E+02 0.  0.
         13    1    3    3    0    0  0.59009781702E+02  0.31032317836E+02  0.56794300618E+02  0.87582827481E+02  0.00000000000E+00 0.  1.
        -13    1    3    3    0    0  0.22119244159E+03 -0.34927358450E+02  0.33755410948E+03  0.40507874964E+03  0.00000000000E+00 0. -1.
          2    1    6    6  502    0 -0.27224508456E+03  0.23096506833E+03  0.10631253146E+03  0.37251121218E+03  0.00000000000E+00 0. -1.
          1    1    5    5  503    0  0.96806081929E+02 -0.29810985428E+03  0.34175714614E+03  0.46372281554E+03  0.00000000000E+00 0. -1.
         -2    1    5    5    0  503 -0.21645638215E+01 -0.40042341934E+02  0.89493986858E+02  0.98067569399E+02  0.00000000000E+00 0.  1.
         -1    1    6    6    0  502 -0.10259865684E+03  0.11108216849E+03 -0.35348720956E+01  0.15125550523E+03  0.00000000000E+00 0.  1.
<mgrwt>
<rscale>  0 0.12762797E+04</rscale>
<asrwt>0</asrwt>
<pdfrwt beam="1">  1        2 0.19281507E+00 0.12762797E+04</pdfrwt>
<pdfrwt beam="2">  1       -2 0.49987807E-01 0.12762797E+04</pdfrwt>
<totfact> 0.65434818E+01</totfact>
</mgrwt>
</event>
<event>
12    1  0.1496989E-007  0.2225995E+04  0.7818608E-02  0.8507686E-01
         -2   -1    0    0    0  501 -0.00000000000E+00  0.00000000000E+00  0.58205477205E+03  0.58205477205E+03  0.00000000000E+00 0.  1.
          2   -1    0    0  501    0  0.00000000000E+00 -0.00000000000E+00 -0.21282592855E+04  0.21282592855E+04  0.00000000000E+00 0. -1.
         23    2    1    2    0    0  0.71755812245E+03  0.46751104725E+03 -0.10568109165E+04  0.13633885712E+04  0.92319253627E+02 0.  0.
        254    2    1    2    0    0 -0.71755812245E+03 -0.46751104725E+03 -0.48939359696E+03  0.13469254863E+04  0.91719460012E+03 0.  0.
        -24    2    4    4    0    0 -0.88271108889E+03 -0.33387698372E+03 -0.18132793186E+03  0.96444045947E+03  0.81319581234E+02 0.  0.
         24    2    4    4    0    0  0.16515296644E+03 -0.13363406353E+03 -0.30806566510E+03  0.38248502683E+03  0.79099788080E+02 0.  0.
         11    1    3    3    0    0  0.26881936768E+03  0.15849020985E+03 -0.31956415287E+03  0.44665898273E+03  0.00000000000E+00 0. -1.
        -11    1    3    3    0    0  0.44873875477E+03  0.30902083740E+03 -0.73724676360E+03  0.91672958850E+03  0.00000000000E+00 0.  1.
          2    1    6    6  502    0  0.12512796265E+03 -0.91828935213E+02 -0.15725235084E+03  0.22094764589E+03  0.00000000000E+00 0. -1.
          3    1    5    5  503    0 -0.85198440279E+03 -0.32075165041E+03 -0.18987393519E+03  0.92995223270E+03  0.00000000000E+00 0. -1.
         -4    1    5    5    0  503 -0.30726686092E+02 -0.13125333304E+02  0.85460033303E+01  0.34488226766E+02  0.00000000000E+00 0.  1.
         -1    1    6    6    0  502  0.40025003785E+02 -0.41805128318E+02 -0.15081331426E+03  0.16153738094E+03  0.00000000000E+00 0.  1.
<mgrwt>
<rscale>  0 0.22259950E+04</rscale>
<asrwt>0</asrwt>
<pdfrwt beam="1">  1        2 0.32742451E+00 0.22259950E+04</pdfrwt>
<pdfrwt beam="2">  1       -2 0.89546886E-01 0.22259950E+04</pdfrwt>
<totfact> 0.55245643E+00</totfact>
</mgrwt>
</event>
<event>
12    1  0.1496989E-007  0.1536381E+04  0.7818608E-02  0.8860614E-01
          2   -1    0    0  501    0  0.00000000000E+00  0.00000000000E+00  0.23475403945E+04  0.23475403945E+04  0.00000000000E+00 0. -1.
         -2   -1    0    0    0  501 -0.00000000000E+00 -0.00000000000E+00 -0.25137663288E+03  0.25137663288E+03  0.00000000000E+00 0.  1.
         23    2    1    2    0    0  0.27401702568E+03 -0.41756015249E+03  0.70675950876E+03  0.87041314958E+03  0.93103364267E+02 0.  0.
        254    2    1    2    0    0 -0.27401702568E+03  0.41756015249E+03  0.13894042529E+04  0.17285038778E+04  0.89879901335E+03 0.  0.
        -24    2    4    4    0    0 -0.21704751095E+03  0.66084343857E+03  0.12462090062E+04  0.14294281024E+04  0.80025872839E+02 0.  0.
         24    2    4    4    0    0 -0.56969514736E+02 -0.24328328608E+03  0.14319524664E+03  0.29907577544E+03  0.80679352385E+02 0.  0.
         11    1    3    3    0    0  0.67392356373E+02 -0.13339420073E+03  0.14773412135E+03  0.21014545700E+03  0.00000000000E+00 0. -1.
        -11    1    3    3    0    0  0.20662466931E+03 -0.28416595176E+03  0.55902538740E+03  0.66026769258E+03  0.00000000000E+00 0.  1.
          4    1    6    6  502    0 -0.10960128329E+02 -0.15672506776E+03  0.52829602171E+02  0.16575233978E+03  0.00000000000E+00 0. -1.
          1    1    5    5  503    0 -0.10447996971E+03  0.23903935711E+03  0.52829443661E+03  0.58919512055E+03  0.00000000000E+00 0. -1.
         -2    1    5    5    0  503 -0.11256754124E+03  0.42180408146E+03  0.71791456962E+03  0.84023298182E+03  0.00000000000E+00 0.  1.
         -3    1    6    6    0  502 -0.46009386406E+02 -0.86558218321E+02  0.90365644471E+02  0.13332343566E+03  0.00000000000E+00 0.  1.
<mgrwt>
<rscale>  0 0.15363812E+04</rscale>
<asrwt>0</asrwt>
<pdfrwt beam="1">  1        2 0.36116005E+00 0.15363812E+04</pdfrwt>
<pdfrwt beam="2">  1       -2 0.38673330E-01 0.15363812E+04</pdfrwt>
<totfact> 0.25972457E+01</totfact>
</mgrwt>
</event>
<event>
12    1  0.1496989E-007  0.1829880E+04  0.7818608E-02  0.8690569E-01
          2   -1    0    0  501    0  0.00000000000E+00  0.00000000000E+00  0.56823802571E+03  0.56823802571E+03  0.00000000000E+00 0.  1.
         -2   -1    0    0    0  501 -0.00000000000E+00 -0.00000000000E+00 -0.14731764210E+04  0.14731764210E+04  0.00000000000E+00 0. -1.
         23    2    1    2    0    0 -0.77856580136E+02  0.27915612183E+03  0.35541674831E+03  0.46779264435E+03  0.92299001606E+02 0.  0.
        254    2    1    2    0    0  0.77856580136E+02 -0.27915612183E+03 -0.12603551436E+04  0.15736218024E+04  0.89654933019E+03 0.  0.
        -24    2    4    4    0    0  0.32695472589E+03 -0.18488920486E+03 -0.12398573573E+03  0.40371273181E+03  0.80796635482E+02 0.  0.
         24    2    4    4    0    0 -0.24909814575E+03 -0.94266916972E+02 -0.11363694079E+04  0.11699090706E+04  0.80097842417E+02 0.  0.
         11    1    3    3    0    0 -0.63763819625E+02  0.27688116402E+03  0.31151588671E+03  0.42162916331E+03  0.00000000000E+00 0. -1.
        -11    1    3    3    0    0 -0.14092760511E+02  0.22749578118E+01  0.43900861601E+02  0.46163481034E+02  0.00000000000E+00 0.  1.
          2    1    6    6  502    0 -0.19842450645E+02 -0.33857460883E+02 -0.21329207926E+03  0.21687222409E+03  0.00000000000E+00 0. -1.
          1    1    5    5  503    0  0.14725393453E+03 -0.40946129555E+02 -0.64614650380E+02  0.16593781909E+03  0.00000000000E+00 0. -1.
         -2    1    5    5    0  503  0.17970079136E+03 -0.14394307530E+03 -0.59371085346E+02  0.23777491272E+03  0.00000000000E+00 0.  1.
         -3    1    6    6    0  502 -0.22925569511E+03 -0.60409456089E+02 -0.92307732864E+03  0.95303684649E+03  0.00000000000E+00 0.  1.
<mgrwt>
<rscale>  0 0.18298796E+04</rscale>
<asrwt>0</asrwt>
<pdfrwt beam="1">  1        2 0.87421237E-01 0.18298796E+04</pdfrwt>
<pdfrwt beam="2">  1       -2 0.22664252E+00 0.18298796E+04</pdfrwt>
<totfact> 0.44731588E+00</totfact>
</mgrwt>
</event>
<event>
12    1  0.1496989E-007  0.1226843E+04  0.7818608E-02  0.9089680E-01
          2   -1    0    0  501    0  0.00000000000E+00  0.00000000000E+00  0.38251920477E+03  0.38251920477E+03  0.00000000000E+00 0. -1.
         -2   -1    0    0    0  501 -0.00000000000E+00 -0.00000000000E+00 -0.98370526738E+03  0.98370526738E+03  0.00000000000E+00 0.  1.
         23    2    1    2    0    0  0.15414922474E+03  0.19829627242E+03 -0.32735829129E+02  0.26770085230E+03  0.86652851491E+02 0.  0.
        254    2    1    2    0    0 -0.15414922474E+03 -0.19829627242E+03 -0.56845023348E+03  0.10985236198E+04  0.90583391429E+03 0.  0.
        -24    2    4    4    0    0  0.59290874137E+02  0.17139735191E+03  0.15673380823E+03  0.25294863580E+03  0.80777878855E+02 0.  0.
         24    2    4    4    0    0 -0.21344009887E+03 -0.36969362433E+03 -0.72518404171E+03  0.84557498405E+03  0.82916268794E+02 0.  0.
         11    1    3    3    0    0  0.45802032382E+02  0.22938970956E+02  0.19904030036E+02  0.54956282357E+02  0.00000000000E+00 0.  1.
        -11    1    3    3    0    0  0.10834719236E+03  0.17535730147E+03 -0.52639859165E+02  0.21274456995E+03  0.00000000000E+00 0. -1.
          2    1    6    6  502    0  0.39425116371E+00 -0.18737658511E+02 -0.11404763975E+02  0.21939095738E+02  0.00000000000E+00 0. -1.
          3    1    5    5  503    0  0.24389190899E+02  0.12754516069E+03  0.64428934033E+02  0.14496098850E+03  0.00000000000E+00 0. -1.
         -4    1    5    5    0  503  0.34901683238E+02  0.43852191222E+02  0.92304874193E+02  0.10798764729E+03  0.00000000000E+00 0.  1.
         -1    1    6    6    0  502 -0.21383435004E+03 -0.35095596582E+03 -0.71377927773E+03  0.82363588832E+03  0.00000000000E+00 0.  1.
<mgrwt>
<rscale>  0 0.12268434E+04</rscale>
<asrwt>0</asrwt>
<pdfrwt beam="1">  1        2 0.58849109E-01 0.12268434E+04</pdfrwt>
<pdfrwt beam="2">  1       -2 0.15133927E+00 0.12268434E+04</pdfrwt>
<totfact> 0.24079470E+01</totfact>
</mgrwt>
</event>
<event>
12    1  0.1496989E-007  0.1133497E+04  0.7818608E-02  0.9173145E-01
         -2   -1    0    0    0  501 -0.00000000000E+00  0.00000000000E+00  0.15692816689E+03  0.15692816689E+03  0.00000000000E+00 0.  1.
          2   -1    0    0  501    0  0.00000000000E+00 -0.00000000000E+00 -0.20468197335E+04  0.20468197335E+04  0.00000000000E+00 0. -1.
         23    2    1    2    0    0  0.15046950456E+03 -0.94068188090E+02 -0.21053396445E+03  0.29023977894E+03  0.91786073459E+02 0.  0.
        254    2    1    2    0    0 -0.15046950456E+03  0.94068188090E+02 -0.16793576022E+04  0.19135081215E+04  0.89987859133E+03 0.  0.
        -24    2    4    4    0    0 -0.27055866090E+03 -0.18434611531E+03 -0.15271543105E+04  0.15643380823E+04  0.88135511226E+02 0.  0.
         24    2    4    4    0    0  0.12008915634E+03  0.27841430340E+03 -0.15220329168E+03  0.34917003920E+03  0.82570845135E+02 0.  0.
         13    1    3    3    0    0  0.74806008988E+02 -0.66618040658E+02 -0.52980801607E+02  0.11331755231E+03  0.00000000000E+00 0.  1.
        -13    1    3    3    0    0  0.75663495569E+02 -0.27450147431E+02 -0.15755316284E+03  0.17692222663E+03  0.00000000000E+00 0. -1.
          4    1    6    6  502    0 -0.83799683632E+00  0.14644574772E+02 -0.31786047321E+02  0.35007407976E+02  0.00000000000E+00 0. -1.
          3    1    5    5  503    0 -0.12592611419E+03 -0.34018957973E+02 -0.58886746100E+03  0.60314141158E+03  0.00000000000E+00 0. -1.
         -4    1    5    5    0  503 -0.14463254672E+03 -0.15032715734E+03 -0.93828684949E+03  0.96119667068E+03  0.00000000000E+00 0.  1.
         -1    1    6    6    0  502  0.12092715318E+03  0.26376972863E+03 -0.12041724436E+03  0.31416263122E+03  0.00000000000E+00 0.  1.
<mgrwt>
<rscale>  0 0.11334967E+04</rscale>
<asrwt>0</asrwt>
<pdfrwt beam="1">  1        2 0.31489532E+00 0.11334967E+04</pdfrwt>
<pdfrwt beam="2">  1       -2 0.24142797E-01 0.11334967E+04</pdfrwt>
<totfact> 0.95488907E+01</totfact>
</mgrwt>
</event>
<event>
12    1  0.1496989E-007  0.1846959E+04  0.7818608E-02  0.8681718E-01
          2   -1    0    0  501    0  0.00000000000E+00  0.00000000000E+00  0.21328114860E+04  0.21328114860E+04  0.00000000000E+00 0.  1.
         -2   -1    0    0    0  501 -0.00000000000E+00 -0.00000000000E+00 -0.39985472893E+03  0.39985472893E+03  0.00000000000E+00 0. -1.
         23    2    1    2    0    0 -0.21018053256E+03 -0.11139266375E+03  0.15607586874E+04  0.15814801630E+04  0.92345242580E+02 0.  0.
        254    2    1    2    0    0  0.21018053256E+03  0.11139266375E+03  0.17219806970E+03  0.95118605198E+03  0.90472014925E+03 0.  0.
        -24    2    4    4    0    0  0.50207948935E+03 -0.13491537893E+03  0.19077712472E+03  0.56056865126E+03  0.86921391889E+02 0.  0.
         24    2    4    4    0    0 -0.29189895679E+03  0.24630804268E+03 -0.18579055018E+02  0.39061740071E+03  0.79775432246E+02 0.  0.
         11    1    3    3    0    0 -0.16458809554E+03 -0.40328422673E+02  0.11137179180E+04  0.11265359399E+04  0.00000000000E+00 0.  1.
        -11    1    3    3    0    0 -0.45592437021E+02 -0.71064241081E+02  0.44704076935E+03  0.45494422311E+03  0.00000000000E+00 0. -1.
          2    1    6    6  502    0 -0.32037829657E+02  0.15056798918E+02  0.19947292905E+02  0.40632797308E+02  0.00000000000E+00 0. -1.
          3    1    5    5  503    0  0.19344131765E+01  0.41672345065E+01  0.97651934920E+01  0.10791978582E+02  0.00000000000E+00 0. -1.
         -4    1    5    5    0  503  0.50014507617E+03 -0.13908261343E+03  0.18101193122E+03  0.54977667268E+03  0.00000000000E+00 0.  1.
         -3    1    6    6    0  502 -0.25986112713E+03  0.23125124376E+03 -0.38526347923E+02  0.34998460341E+03  0.00000000000E+00 0.  1.
<mgrwt>
<rscale>  0 0.18469594E+04</rscale>
<asrwt>0</asrwt>
<pdfrwt beam="1">  1        2 0.32812484E+00 0.18469594E+04</pdfrwt>
<pdfrwt beam="2">  1       -2 0.61516114E-01 0.18469594E+04</pdfrwt>
<totfact> 0.13013919E+01</totfact>
</mgrwt>
</event>
<event>
12    1  0.1496989E-007  0.2337434E+04  0.7818608E-02  0.8463306E-01
         -1   -1    0    0    0  501 -0.00000000000E+00  0.00000000000E+00  0.65366408170E+03  0.65366408170E+03  0.00000000000E+00 0.  1.
          1   -1    0    0  501    0  0.00000000000E+00 -0.00000000000E+00 -0.20896036520E+04  0.20896036520E+04  0.00000000000E+00 0. -1.
         23    2    1    2    0    0  0.25098750225E+02 -0.88536319989E+03 -0.11462474659E+04  0.14510438613E+04  0.84540471915E+02 0.  0.
        254    2    1    2    0    0 -0.25098750225E+02  0.88536319989E+03 -0.28969210446E+03  0.12922238724E+04  0.89522236240E+03 0.  0.
        -24    2    4    4    0    0  0.11099829042E+03 -0.79899556515E+02 -0.27051864034E+03  0.31338481159E+03  0.79530784931E+02 0.  0.
         24    2    4    4    0    0 -0.13609704065E+03  0.96526275641E+03 -0.19173464116E+02  0.97883906085E+03  0.86623853215E+02 0.  0.
         13    1    3    3    0    0 -0.11223217407E+02 -0.22093718829E+03 -0.23552931748E+03  0.32313040892E+03  0.00000000000E+00 0.  1.
        -13    1    3    3    0    0  0.36321967633E+02 -0.66442601160E+03 -0.91071814837E+03  0.11279134524E+04  0.00000000000E+00 0. -1.
          2    1    6    6  502    0 -0.43345711380E+02  0.55417036059E+03  0.14669264656E+02  0.55605649585E+03  0.00000000000E+00 0. -1.
          1    1    5    5  503    0  0.15444888788E+02 -0.45979308380E+02 -0.13964171859E+03  0.14782574525E+03  0.00000000000E+00 0. -1.
         -2    1    5    5    0  503  0.95553401636E+02 -0.33920248135E+02 -0.13087692175E+03  0.16555906634E+03  0.00000000000E+00 0.  1.
         -1    1    6    6    0  502 -0.92751329270E+02  0.41109239581E+03 -0.33842728771E+02  0.42278256500E+03  0.00000000000E+00 0.  1.
<mgrwt>
<rscale>  0 0.23374335E+04</rscale>
<asrwt>0</asrwt>
<pdfrwt beam="1">  1        1 0.32147748E+00 0.23374335E+04</pdfrwt>
<pdfrwt beam="2">  1       -1 0.10056371E+00 0.23374335E+04</pdfrwt>
<totfact> 0.21953805E+00</totfact>
</mgrwt>
</event>
<event>
12    1  0.1496989E-007  0.1382389E+04  0.7818608E-02  0.8966666E-01
         -1   -1    0    0    0  501 -0.00000000000E+00  0.00000000000E+00  0.10631519157E+04  0.10631519157E+04  0.00000000000E+00 0.  1.
          1   -1    0    0  501    0  0.00000000000E+00 -0.00000000000E+00 -0.44937095328E+03  0.44937095328E+03  0.00000000000E+00 0. -1.
         23    2    1    2    0    0 -0.28754403501E+03 -0.53809468177E+01 -0.99472984430E+02  0.31722362402E+03  0.89584743931E+02 0.  0.
        254    2    1    2    0    0  0.28754403501E+03  0.53809468177E+01  0.71325394684E+03  0.11952992449E+04  0.91504019891E+03 0.  0.
        -24    2    4    4    0    0  0.56400521295E+03 -0.17644503987E+03  0.32470391989E+03  0.67891321748E+03  0.79093545539E+02 0.  0.
         24    2    4    4    0    0 -0.27646117793E+03  0.18182598669E+03  0.38855002695E+03  0.51638602747E+03  0.78688840230E+02 0.  0.
         11    1    3    3    0    0 -0.92739994639E+02  0.14925502241E+02  0.71817061441E+01  0.94207505678E+02  0.00000000000E+00 0.  1.
        -11    1    3    3    0    0 -0.19480404037E+03 -0.20306449059E+02 -0.10665469057E+03  0.22301611834E+03  0.00000000000E+00 0. -1.
          4    1    6    6  502    0 -0.17164419945E+03  0.67511065626E+02  0.19594490754E+03  0.26909827569E+03  0.00000000000E+00 0. -1.
          1    1    5    5  503    0  0.24083958625E+03 -0.35074827274E+02  0.12601012501E+03  0.27406660033E+03  0.00000000000E+00 0. -1.
         -4    1    5    5    0  503  0.32316562670E+03 -0.14137021260E+03  0.19869379488E+03  0.40484661714E+03  0.00000000000E+00 0.  1.
         -3    1    6    6    0  502 -0.10481697849E+03  0.11431492106E+03  0.19260511941E+03  0.24728775178E+03  0.00000000000E+00 0.  1.
<mgrwt>
<rscale>  0 0.13823886E+04</rscale>
<asrwt>0</asrwt>
<pdfrwt beam="1">  1        1 0.69133993E-01 0.13823886E+04</pdfrwt>
<pdfrwt beam="2">  1       -1 0.16356183E+00 0.13823886E+04</pdfrwt>
<totfact> 0.13759766E+01</totfact>
</mgrwt>
</event>
<event>
12    1  0.1496989E-007  0.1476828E+04  0.7818608E-02  0.8900010E-01
          2   -1    0    0  501    0  0.00000000000E+00  0.00000000000E+00  0.21583707229E+04  0.21583707229E+04  0.00000000000E+00 0. -1.
         -2   -1    0    0    0  501 -0.00000000000E+00 -0.00000000000E+00 -0.25262345131E+03  0.25262345131E+03  0.00000000000E+00 0.  1.
         23    2    1    2    0    0 -0.44702306917E+02  0.87657412517E+02 -0.12695566567E+03  0.18444564252E+03  0.90666067439E+02 0.  0.
        254    2    1    2    0    0  0.44702306917E+02 -0.87657412517E+02  0.20327029373E+04  0.22265485317E+04  0.90330228306E+03 0.  0.
        -24    2    4    4    0    0  0.25197106596E+03 -0.39329687596E+03  0.72740294704E+03  0.86768328184E+03  0.74748775942E+02 0.  0.
         24    2    4    4    0    0 -0.20726875904E+03  0.30563946344E+03  0.13052999902E+04  0.13588652499E+04  0.79566844030E+02 0.  0.
         11    1    3    3    0    0  0.23834331912E+01  0.78292814164E+02 -0.10664014523E+03  0.13231615955E+03  0.00000000000E+00 0.  1.
        -11    1    3    3    0    0 -0.47085740108E+02  0.93645983523E+01 -0.20315520447E+02  0.52129482971E+02  0.00000000000E+00 0. -1.
          4    1    6    6  502    0 -0.78657316711E+02  0.61765069786E+02  0.28822085085E+03  0.30507893435E+03  0.00000000000E+00 0. -1.
          1    1    5    5  503    0  0.25002256795E+03 -0.36713641231E+03  0.70460758516E+03  0.83292993631E+03  0.00000000000E+00 0. -1.
         -2    1    5    5    0  503  0.19484980119E+01 -0.26160463645E+02  0.22795361877E+02  0.34753345533E+02  0.00000000000E+00 0.  1.
         -3    1    6    6    0  502 -0.12861144233E+03  0.24387439366E+03  0.10170791394E+04  0.10537863155E+04  0.00000000000E+00 0.  1.
<mgrwt>
<rscale>  0 0.14768278E+04</rscale>
<asrwt>0</asrwt>
<pdfrwt beam="1">  1        2 0.33205702E+00 0.14768278E+04</pdfrwt>
<pdfrwt beam="2">  1       -2 0.38865148E-01 0.14768278E+04</pdfrwt>
<totfact> 0.33034085E+01</totfact>
</mgrwt>
</event>
<event>
12    1  0.1496989E-007  0.1396476E+04  0.7818608E-02  0.8956373E-01
          2   -1    0    0  501    0  0.00000000000E+00  0.00000000000E+00  0.12405469401E+04  0.12405469401E+04  0.00000000000E+00 0.  1.
         -2   -1    0    0    0  501 -0.00000000000E+00 -0.00000000000E+00 -0.39300111039E+03  0.39300111039E+03  0.00000000000E+00 0. -1.
         23    2    1    2    0    0 -0.21552203735E+03 -0.28711225870E+03  0.31298073065E+02  0.37162201896E+03  0.90775315602E+02 0.  0.
        254    2    1    2    0    0  0.21552203735E+03  0.28711225870E+03  0.81624775668E+03  0.12619260316E+04  0.89292424717E+03 0.  0.
        -24    2    4    4    0    0 -0.11794199899E+03  0.18162160340E+02 -0.14667159608E+03  0.20498155529E+03  0.79149868696E+02 0.  0.
         24    2    4    4    0    0  0.33346403634E+03  0.26895009836E+03  0.96291935276E+03  0.10569444763E+04  0.79909493028E+02 0.  0.
         11    1    3    3    0    0 -0.10976524551E+03 -0.92182000097E+02 -0.17922780331E+02  0.14445468604E+03  0.00000000000E+00 0.  1.
        -11    1    3    3    0    0 -0.10575679184E+03 -0.19493025860E+03  0.49220853396E+02  0.22716733292E+03  0.00000000000E+00 0. -1.
          4    1    6    6  502    0  0.30796243148E+03  0.24038849974E+03  0.80983387947E+03  0.89914314897E+03  0.00000000000E+00 0. -1.
          1    1    5    5  503    0 -0.82622563487E+02 -0.24432560759E+02 -0.10432366119E+03  0.13530286141E+03  0.00000000000E+00 0. -1.
         -2    1    5    5    0  503 -0.35319435507E+02  0.42594721099E+02 -0.42347934893E+02  0.69678693872E+02  0.00000000000E+00 0.  1.
         -3    1    6    6    0  502  0.25501604860E+02  0.28561598613E+02  0.15308547330E+03  0.15780132731E+03  0.00000000000E+00 0.  1.
<mgrwt>
<rscale>  0 0.13964760E+04</rscale>
<asrwt>0</asrwt>
<pdfrwt beam="1">  1        2 0.19085337E+00 0.13964760E+04</pdfrwt>
<pdfrwt beam="2">  1       -2 0.60461710E-01 0.13964760E+04</pdfrwt>
<totfact> 0.44447310E+01</totfact>
</mgrwt>
</event>
<event>
12    1  0.1496989E-007  0.4222661E+04  0.7818608E-02  0.7961076E-01
         -2   -1    0    0    0  501 -0.00000000000E+00  0.00000000000E+00  0.18852661623E+04  0.18852661623E+04  0.00000000000E+00 0.  1.
          2   -1    0    0  501    0  0.00000000000E+00 -0.00000000000E+00 -0.23645019751E+04  0.23645019751E+04  0.00000000000E+00 0. -1.
         23    2    1    2    0    0 -0.19934042924E+03  0.16547841728E+04  0.91031111668E+03  0.19015354961E+04  0.95517791439E+02 0.  0.
        254    2    1    2    0    0  0.19934042924E+03 -0.16547841728E+04 -0.13895469295E+04  0.23482326414E+04  0.89738988380E+03 0.  0.
        -24    2    4    4    0    0  0.24063199841E+03 -0.84763383978E+03 -0.12386331278E+04  0.15221337127E+04  0.79322942339E+02 0.  0.
         24    2    4    4    0    0 -0.41291569176E+02 -0.80715033301E+03 -0.15091380171E+03  0.82609892866E+03  0.80422699647E+02 0.  0.
         13    1    3    3    0    0 -0.11772696152E+02  0.10460595453E+03  0.32206125549E+02  0.11008286252E+03  0.00000000000E+00 0. -1.
        -13    1    3    3    0    0 -0.18756773309E+03  0.15501782183E+04  0.87810499113E+03  0.17914526336E+04  0.00000000000E+00 0.  1.
          4    1    6    6  502    0  0.17801014040E+02 -0.15187743311E+03 -0.99847702881E+01  0.15324270432E+03  0.00000000000E+00 0. -1.
          3    1    5    5  503    0  0.24368856774E+03 -0.84582284601E+03 -0.12370274355E+04  0.15182349229E+04  0.00000000000E+00 0. -1.
         -4    1    5    5    0  503 -0.30565693228E+01 -0.18109937695E+01 -0.16056922517E+01  0.38987898206E+01  0.00000000000E+00 0.  1.
         -3    1    6    6    0  502 -0.59092583216E+02 -0.65527289990E+03 -0.14092903142E+03  0.67285622434E+03  0.00000000000E+00 0.  1.
<mgrwt>
<rscale>  0 0.42226606E+04</rscale>
<asrwt>0</asrwt>
<pdfrwt beam="1">  1        2 0.36376953E+00 0.42226606E+04</pdfrwt>
<pdfrwt beam="2">  1       -2 0.29004095E+00 0.42226606E+04</pdfrwt>
<totfact> 0.11804696E-01</totfact>
</mgrwt>
</event>
<event>
12    1  0.1496989E-007  0.1660730E+04  0.7818608E-02  0.8784084E-01
         -2   -1    0    0    0  501 -0.00000000000E+00  0.00000000000E+00  0.76615244338E+03  0.76615244338E+03  0.00000000000E+00 0.  1.
          2   -1    0    0  501    0  0.00000000000E+00 -0.00000000000E+00 -0.89995901607E+03  0.89995901607E+03  0.00000000000E+00 0. -1.
         23    2    1    2    0    0  0.35996891791E+02  0.56456927656E+03 -0.16200101881E+03  0.59565151431E+03  0.92315503267E+02 0.  0.
        254    2    1    2    0    0 -0.35996891791E+02 -0.56456927656E+03  0.28194446130E+02  0.10704599451E+04  0.90832556008E+03 0.  0.
        -24    2    4    4    0    0  0.24829321456E+03 -0.46138650954E+03 -0.30680841882E+03  0.61246292261E+03  0.80326795814E+02 0.  0.
         24    2    4    4    0    0 -0.28429010635E+03 -0.10318276702E+03  0.33500286495E+03  0.45799702253E+03  0.77889698588E+02 0.  0.
         13    1    3    3    0    0 -0.15876719226E+02  0.10550781986E+03 -0.60481271001E+02  0.12264564569E+03  0.00000000000E+00 0. -1.
        -13    1    3    3    0    0  0.51873611017E+02  0.45906145671E+03 -0.10151974781E+03  0.47300586862E+03  0.00000000000E+00 0.  1.
          4    1    6    6  502    0 -0.23633126981E+03 -0.11457953239E+03  0.27367397774E+03  0.37931304278E+03  0.00000000000E+00 0. -1.
          1    1    5    5  503    0  0.22376882810E+03 -0.37630556383E+03 -0.22653327871E+03  0.49294593229E+03  0.00000000000E+00 0. -1.
         -2    1    5    5    0  503  0.24524386457E+02 -0.85080945717E+02 -0.80275140111E+02  0.11951699032E+03  0.00000000000E+00 0.  1.
         -3    1    6    6    0  502 -0.47958836539E+02  0.11396765368E+02  0.61328887212E+02  0.78683979753E+02  0.00000000000E+00 0.  1.
<mgrwt>
<rscale>  0 0.16607297E+04</rscale>
<asrwt>0</asrwt>
<pdfrwt beam="1">  1        2 0.13845523E+00 0.16607297E+04</pdfrwt>
<pdfrwt beam="2">  1       -2 0.11786961E+00 0.16607297E+04</pdfrwt>
<totfact> 0.15536514E+01</totfact>
</mgrwt>
</event>
<event>
12    1  0.1496989E-007  0.1454045E+04  0.7818608E-02  0.8915601E-01
          2   -1    0    0  501    0  0.00000000000E+00  0.00000000000E+00  0.11315254706E+04  0.11315254706E+04  0.00000000000E+00 0. -1.
         -2   -1    0    0    0  501 -0.00000000000E+00 -0.00000000000E+00 -0.46712300817E+03  0.46712300817E+03  0.00000000000E+00 0.  1.
         23    2    1    2    0    0  0.41193225328E+03  0.10879241124E+03  0.78308573826E+02  0.44297681415E+03  0.92586473647E+02 0.  0.
        254    2    1    2    0    0 -0.41193225328E+03 -0.10879241124E+03  0.58609388859E+03  0.11556716646E+04  0.90030382655E+03 0.  0.
        -24    2    4    4    0    0  0.27059365381E+03 -0.12016168272E+03  0.14832023858E+03  0.34094241819E+03  0.81136205698E+02 0.  0.
         24    2    4    4    0    0 -0.68252590709E+03  0.11369271478E+02  0.43777365001E+03  0.81472924642E+03  0.78530899271E+02 0.  0.
         13    1    3    3    0    0  0.37902753005E+03  0.91004997453E+02  0.44096795414E+02  0.39228599957E+03  0.00000000000E+00 0.  1.
        -13    1    3    3    0    0  0.32904723236E+02  0.17787413789E+02  0.34211778412E+02  0.50690814579E+02  0.00000000000E+00 0. -1.
          4    1    6    6  502    0 -0.37880118895E+03  0.45291738230E+02  0.24082236081E+03  0.45115085257E+03  0.00000000000E+00 0. -1.
          1    1    5    5  503    0  0.14904853488E+03 -0.10888829904E+03  0.81430823211E+02  0.20175010877E+03  0.00000000000E+00 0. -1.
         -2    1    5    5    0  503  0.12154511893E+03 -0.11273383675E+02  0.66889415366E+02  0.13919230943E+03  0.00000000000E+00 0.  1.
         -3    1    6    6    0  502 -0.30372471813E+03 -0.33922466753E+02  0.19695128920E+03  0.36357839385E+03  0.00000000000E+00 0.  1.
<mgrwt>
<rscale>  0 0.14540448E+04</rscale>
<asrwt>0</asrwt>
<pdfrwt beam="1">  1        2 0.17408084E+00 0.14540448E+04</pdfrwt>
<pdfrwt beam="2">  1       -2 0.71865078E-01 0.14540448E+04</pdfrwt>
<totfact> 0.35451196E+01</totfact>
</mgrwt>
</event>
<event>
12    1  0.1496989E-007  0.2146651E+04  0.7818608E-02  0.8540967E-01
          2   -1    0    0  501    0  0.00000000000E+00  0.00000000000E+00  0.30291733054E+04  0.30291733054E+04  0.00000000000E+00 0. -1.
         -2   -1    0    0    0  501 -0.00000000000E+00 -0.00000000000E+00 -0.38031086868E+03  0.38031086868E+03  0.00000000000E+00 0.  1.
         23    2    1    2    0    0  0.48869932505E+03 -0.56807753132E+03  0.36803575704E+03  0.84002339707E+03  0.93004716409E+02 0.  0.
        254    2    1    2    0    0 -0.48869932505E+03  0.56807753132E+03  0.22808266796E+04  0.25694607770E+04  0.91565235210E+03 0.  0.
        -24    2    4    4    0    0 -0.49223942680E+03 -0.99706090018E+02  0.90295110517E+03  0.10362074985E+04  0.78513208900E+02 0.  0.
         24    2    4    4    0    0  0.35401017423E+01  0.66778362133E+03  0.13778755745E+04  0.15332532784E+04  0.79856245308E+02 0.  0.
         11    1    3    3    0    0  0.15137454665E+03 -0.13722150622E+03  0.64369936060E+02  0.21421364058E+03  0.00000000000E+00 0. -1.
        -11    1    3    3    0    0  0.33732477840E+03 -0.43085602510E+03  0.30366582098E+03  0.62580975649E+03  0.00000000000E+00 0.  1.
          2    1    6    6  502    0  0.12825653489E+02  0.18038836507E+03  0.30045463979E+03  0.35068140842E+03  0.00000000000E+00 0. -1.
          3    1    5    5  503    0 -0.73049163266E+02  0.12909571328E+02  0.12463276478E+03  0.14503848917E+03  0.00000000000E+00 0. -1.
         -4    1    5    5    0  503 -0.41919026353E+03 -0.11261566135E+03  0.77831834039E+03  0.89116900934E+03  0.00000000000E+00 0.  1.
         -1    1    6    6    0  502 -0.92855517469E+01  0.48739525626E+03  0.10774209347E+04  0.11825718700E+04  0.00000000000E+00 0.  1.
<mgrwt>
<rscale>  0 0.21466509E+04</rscale>
<asrwt>0</asrwt>
<pdfrwt beam="1">  1        2 0.46602665E+00 0.21466509E+04</pdfrwt>
<pdfrwt beam="2">  1       -2 0.58509366E-01 0.21466509E+04</pdfrwt>
<totfact> 0.41919998E+00</totfact>
</mgrwt>
</event>
<event>
12    1  0.1496989E-007  0.1363677E+04  0.7818608E-02  0.8980539E-01
          2   -1    0    0  501    0  0.00000000000E+00  0.00000000000E+00  0.66509475247E+03  0.66509475247E+03  0.00000000000E+00 0.  1.
         -2   -1    0    0    0  501 -0.00000000000E+00 -0.00000000000E+00 -0.69900345913E+03  0.69900345913E+03  0.00000000000E+00 0. -1.
         23    2    1    2    0    0  0.22789015464E+03 -0.35705392783E+03 -0.12106656970E+03  0.44994597404E+03  0.91503198290E+02 0.  0.
        254    2    1    2    0    0 -0.22789015464E+03  0.35705392783E+03  0.87157863040E+02  0.91415223755E+03  0.80539207245E+03 0.  0.
        -24    2    4    4    0    0 -0.23359623995E+03  0.56447745488E+03 -0.98986685044E+02  0.62433775955E+03  0.82445580867E+02 0.  0.
         24    2    4    4    0    0  0.57060853027E+01 -0.20742352705E+03  0.18614454808E+03  0.28981447800E+03  0.79281523017E+02 0.  0.
         11    1    3    3    0    0  0.99365120673E+02 -0.10005859598E+03 -0.72390927864E+02  0.15851055572E+03  0.00000000000E+00 0. -1.
        -11    1    3    3    0    0  0.12852503397E+03 -0.25699533184E+03 -0.48675641836E+02  0.29143541832E+03  0.00000000000E+00 0.  1.
          4    1    6    6  502    0  0.23106473681E+02 -0.34749841250E+02  0.68293071327E+02  0.80033769023E+02  0.00000000000E+00 0. -1.
          3    1    5    5  503    0 -0.50798941374E+02  0.17497585304E+03  0.27045782310E+01  0.18222073520E+03  0.00000000000E+00 0. -1.
         -4    1    5    5    0  503 -0.18279729857E+03  0.38950160184E+03 -0.10169126327E+03  0.44211702436E+03  0.00000000000E+00 0.  1.
         -3    1    6    6    0  502 -0.17400388378E+02 -0.17267368580E+03  0.11785147676E+03  0.20978070898E+03  0.00000000000E+00 0.  1.
<mgrwt>
<rscale>  0 0.13636767E+04</rscale>
<asrwt>0</asrwt>
<pdfrwt beam="1">  1        2 0.10232227E+00 0.13636767E+04</pdfrwt>
<pdfrwt beam="2">  1       -2 0.10753899E+00 0.13636767E+04</pdfrwt>
<totfact> 0.29594808E+01</totfact>
</mgrwt>
</event>
<event>
12    1  0.1496989E-007  0.4132699E+04  0.7818608E-02  0.7978299E-01
         -2   -1    0    0    0  501 -0.00000000000E+00  0.00000000000E+00  0.19320464153E+04  0.19320464153E+04  0.00000000000E+00 0.  1.
          2   -1    0    0  501    0  0.00000000000E+00 -0.00000000000E+00 -0.22099889666E+04  0.22099889666E+04  0.00000000000E+00 0. -1.
         23    2    1    2    0    0 -0.11614294921E+03  0.10530344523E+04 -0.17934863113E+04  0.20850419380E+04  0.91847656115E+02 0.  0.
        254    2    1    2    0    0  0.11614294921E+03 -0.10530344523E+04  0.15155437600E+04  0.20569934439E+04  0.90109843949E+03 0.  0.
        -24    2    4    4    0    0 -0.32564403356E+03 -0.55720252202E+03  0.42255905535E+03  0.77559437610E+03  0.80447460068E+02 0.  0.
         24    2    4    4    0    0  0.44178698277E+03 -0.49583193024E+03  0.10929847046E+04  0.12813990678E+04  0.79642735376E+02 0.  0.
         13    1    3    3    0    0 -0.10691541754E+03  0.10280821169E+04 -0.17692385390E+04  0.20490458154E+04  0.00000000000E+00 0. -1.
        -13    1    3    3    0    0 -0.92275316622E+01  0.24952335359E+02 -0.24247772331E+02  0.35996122617E+02  0.00000000000E+00 0.  1.
          4    1    6    6  502    0  0.19534268841E+03 -0.21062210804E+03  0.39893755446E+03  0.49160106862E+03  0.00000000000E+00 0. -1.
          3    1    5    5  503    0 -0.31197079651E+03 -0.50327262310E+03  0.36520762765E+03  0.69569082381E+03  0.00000000000E+00 0. -1.
         -2    1    5    5    0  503 -0.13673237053E+02 -0.53929898923E+02  0.57351427695E+02  0.79903552286E+02  0.00000000000E+00 0.  1.
         -3    1    6    6    0  502  0.24644429436E+03 -0.28520982220E+03  0.69404715016E+03  0.78979799921E+03  0.00000000000E+00 0.  1.
<mgrwt>
<rscale>  0 0.41326995E+04</rscale>
<asrwt>0</asrwt>
<pdfrwt beam="1">  1        2 0.33999830E+00 0.41326995E+04</pdfrwt>
<pdfrwt beam="2">  1       -2 0.29723791E+00 0.41326995E+04</pdfrwt>
<totfact> 0.13147338E-01</totfact>
</mgrwt>
</event>
<event>
12    1  0.1496989E-007  0.2759915E+04  0.7818608E-02  0.8315822E-01
          2   -1    0    0  501    0  0.00000000000E+00  0.00000000000E+00  0.22733790439E+04  0.22733790439E+04  0.00000000000E+00 0. -1.
         -2   -1    0    0    0  501 -0.00000000000E+00 -0.00000000000E+00 -0.83764445340E+03  0.83764445340E+03  0.00000000000E+00 0.  1.
         23    2    1    2    0    0 -0.85784270555E+02 -0.67739811662E+03 -0.50927527065E+03  0.85672143540E+03  0.91559636885E+02 0.  0.
        254    2    1    2    0    0  0.85784270555E+02  0.67739811662E+03  0.19450098612E+04  0.22543020619E+04  0.91246220571E+03 0.  0.
        -24    2    4    4    0    0 -0.33997592215E+03  0.98974577569E+02  0.10028402708E+04  0.10669047820E+04  0.84956521398E+02 0.  0.
         24    2    4    4    0    0  0.42576019270E+03  0.57842353905E+03  0.94216959039E+03  0.11873972799E+04  0.79895125410E+02 0.  0.
         11    1    3    3    0    0  0.17650674991E+02 -0.52371253356E+02 -0.36482340545E+02  0.66221263030E+02  0.00000000000E+00 0. -1.
        -11    1    3    3    0    0 -0.10343494555E+03 -0.62502686326E+03 -0.47279293010E+03  0.79050017237E+03  0.00000000000E+00 0.  1.
          2    1    6    6  502    0  0.37148233140E+03  0.45452867681E+03  0.75062871761E+03  0.95291075778E+03  0.00000000000E+00 0. -1.
          1    1    5    5  503    0 -0.18040051436E+03  0.37063247734E+02  0.40236146447E+03  0.44250737622E+03  0.00000000000E+00 0. -1.
         -2    1    5    5    0  503 -0.15957540778E+03  0.61911329835E+02  0.60047880632E+03  0.62439740580E+03  0.00000000000E+00 0.  1.
         -1    1    6    6    0  502  0.54277861301E+02  0.12389486224E+03  0.19154087277E+03  0.23448652213E+03  0.00000000000E+00 0.  1.
<mgrwt>
<rscale>  0 0.27599155E+04</rscale>
<asrwt>0</asrwt>
<pdfrwt beam="1">  1        2 0.34975062E+00 0.27599155E+04</pdfrwt>
<pdfrwt beam="2">  1       -2 0.12886838E+00 0.27599155E+04</pdfrwt>
<totfact> 0.18193640E+00</totfact>
</mgrwt>
</event>
<event>
12    1  0.1496989E-007  0.1950135E+04  0.7818608E-02  0.8630296E-01
          1   -1    0    0  501    0  0.00000000000E+00  0.00000000000E+00  0.13047013521E+04  0.13047013521E+04  0.00000000000E+00 0. -1.
         -1   -1    0    0    0  501 -0.00000000000E+00 -0.00000000000E+00 -0.72871588749E+03  0.72871588749E+03  0.00000000000E+00 0.  1.
         23    2    1    2    0    0 -0.21104231593E+03  0.72925392435E+03  0.10382186924E+03  0.77165805457E+03  0.91252547176E+02 0.  0.
        254    2    1    2    0    0  0.21104231593E+03 -0.72925392435E+03  0.47216359540E+03  0.12617591851E+04  0.89036376552E+03 0.  0.
        -24    2    4    4    0    0  0.11172595926E+03 -0.92199565936E+03  0.32512228495E+03  0.98726917754E+03  0.80232430390E+02 0.  0.
         24    2    4    4    0    0  0.99316356666E+02  0.19274173501E+03  0.14704131045E+03  0.27449000751E+03  0.81917654560E+02 0.  0.
         13    1    3    3    0    0 -0.10019313543E+03  0.30429289405E+03 -0.39930656389E-01  0.32036359242E+03  0.00000000000E+00 0. -1.
        -13    1    3    3    0    0 -0.11084918050E+03  0.42496103030E+03  0.10386179989E+03  0.45129446215E+03  0.00000000000E+00 0.  1.
          2    1    6    6  502    0  0.28057912063E+02  0.74904649934E+02  0.10689236089E+02  0.80698282381E+02  0.00000000000E+00 0. -1.
          3    1    5    5  503    0  0.10873461796E+03 -0.75050643153E+03  0.29180762175E+03  0.81254834258E+03  0.00000000000E+00 0. -1.
         -4    1    5    5    0  503  0.29913412976E+01 -0.17148922783E+03  0.33314663203E+02  0.17472083496E+03  0.00000000000E+00 0.  1.
         -1    1    6    6    0  502  0.71258444604E+02  0.11783708508E+03  0.13635207436E+03  0.19379172513E+03  0.00000000000E+00 0.  1.
<mgrwt>
<rscale>  0 0.19501350E+04</rscale>
<asrwt>0</asrwt>
<pdfrwt beam="1">  1        1 0.20072328E+00 0.19501350E+04</pdfrwt>
<pdfrwt beam="2">  1       -1 0.11211014E+00 0.19501350E+04</pdfrwt>
<totfact> 0.61005036E+00</totfact>
</mgrwt>
</event>
<event>
12    1  0.1496989E-007  0.1831583E+04  0.7818608E-02  0.8689682E-01
          1   -1    0    0  501    0  0.00000000000E+00  0.00000000000E+00  0.20795864867E+04  0.20795864867E+04  0.00000000000E+00 0. -1.
         -1   -1    0    0    0  501 -0.00000000000E+00 -0.00000000000E+00 -0.40328870442E+03  0.40328870442E+03  0.00000000000E+00 0.  1.
         23    2    1    2    0    0  0.72615450047E+02 -0.60059239380E+03  0.10757523819E+04  0.12374655685E+04  0.89964542313E+02 0.  0.
        254    2    1    2    0    0 -0.72615450047E+02  0.60059239380E+03  0.60054540033E+03  0.12454096226E+04  0.90796812894E+03 0.  0.
        -24    2    4    4    0    0 -0.22691520388E+03  0.23827647140E+03 -0.16832897936E+03  0.37800235013E+03  0.79277643966E+02 0.  0.
         24    2    4    4    0    0  0.15429975384E+03  0.36231592240E+03  0.76887437969E+03  0.86740727249E+03  0.78398488219E+02 0.  0.
         13    1    3    3    0    0  0.23508821636E+02 -0.29163099162E+03  0.60808233593E+03  0.67480769649E+03  0.00000000000E+00 0. -1.
        -13    1    3    3    0    0  0.49106628411E+02 -0.30896140218E+03  0.46767004598E+03  0.56265787198E+03  0.00000000000E+00 0.  1.
          2    1    6    6  502    0  0.35693631764E+02  0.13636772090E+03  0.34439989129E+03  0.37213099276E+03  0.00000000000E+00 0. -1.
          1    1    5    5  503    0 -0.14972923836E+03  0.20522616794E+03 -0.11798597106E+03  0.28010232808E+03  0.00000000000E+00 0. -1.
         -2    1    5    5    0  503 -0.77185965522E+02  0.33050303458E+02 -0.50343008303E+02  0.97900022049E+02  0.00000000000E+00 0.  1.
         -1    1    6    6    0  502  0.11860612207E+03  0.22594820151E+03  0.42447448841E+03  0.49527627973E+03  0.00000000000E+00 0.  1.
<mgrwt>
<rscale>  0 0.18315826E+04</rscale>
<asrwt>0</asrwt>
<pdfrwt beam="1">  1        1 0.31993638E+00 0.18315826E+04</pdfrwt>
<pdfrwt beam="2">  1       -1 0.62044417E-01 0.18315826E+04</pdfrwt>
<totfact> 0.65252674E+00</totfact>
</mgrwt>
</event>
<event>
12    1  0.1496989E-007  0.1143190E+04  0.7818608E-02  0.9164089E-01
         -1   -1    0    0    0  501 -0.00000000000E+00  0.00000000000E+00  0.69188826578E+03  0.69188826578E+03  0.00000000000E+00 0.  1.
          1   -1    0    0  501    0  0.00000000000E+00 -0.00000000000E+00 -0.47221609944E+03  0.47221609944E+03  0.00000000000E+00 0. -1.
         23    2    1    2    0    0 -0.17750542329E+03 -0.64814719878E+02 -0.27947516393E+02  0.21202461083E+03  0.92001351696E+02 0.  0.
        254    2    1    2    0    0  0.17750542329E+03  0.64814719878E+02  0.24761968272E+03  0.95207975439E+03  0.89968396020E+03 0.  0.
        -24    2    4    4    0    0  0.27299139830E+03 -0.19777928916E+03 -0.21424864132E+03  0.40740660201E+03  0.80229098754E+02 0.  0.
         24    2    4    4    0    0 -0.95485975014E+02  0.26259400904E+03  0.46186832404E+03  0.54467315238E+03  0.72617554118E+02 0.  0.
         13    1    3    3    0    0  0.65499665126E+01 -0.17771475808E+02 -0.94133753108E+01  0.21150391213E+02  0.00000000000E+00 0.  1.
        -13    1    3    3    0    0 -0.18405538980E+03 -0.47043244070E+02 -0.18534141082E+02  0.19087421961E+03  0.00000000000E+00 0. -1.
          2    1    6    6  502    0 -0.55406943521E+02  0.20787132908E+03  0.39288885776E+03  0.44793088016E+03  0.00000000000E+00 0. -1.
          1    1    5    5  503    0  0.84187640662E+02 -0.48115744665E+02 -0.10481738181E+03  0.14279134166E+03  0.00000000000E+00 0. -1.
         -2    1    5    5    0  503  0.18880375764E+03 -0.14966354449E+03 -0.10943125951E+03  0.26461526035E+03  0.00000000000E+00 0.  1.
         -3    1    6    6    0  502 -0.40079031493E+02  0.54722679959E+02  0.68979466278E+02  0.96742272226E+02  0.00000000000E+00 0.  1.
<mgrwt>
<rscale>  0 0.11431899E+04</rscale>
<asrwt>0</asrwt>
<pdfrwt beam="1">  1        1 0.72648630E-01 0.11431899E+04</pdfrwt>
<pdfrwt beam="2">  1       -1 0.10644435E+00 0.11431899E+04</pdfrwt>
<totfact> 0.39308141E+01</totfact>
</mgrwt>
</event>
<event>
12    1  0.1496989E-007  0.2761251E+04  0.7818608E-02  0.8315400E-01
         -1   -1    0    0    0  501 -0.00000000000E+00  0.00000000000E+00  0.92478119144E+03  0.92478119144E+03  0.00000000000E+00 0.  1.
          1   -1    0    0  501    0  0.00000000000E+00 -0.00000000000E+00 -0.20611659027E+04  0.20611659027E+04  0.00000000000E+00 0. -1.
         23    2    1    2    0    0  0.82000499982E+03 -0.35747392580E+03  0.40387614537E+03  0.98578310976E+03  0.91959726654E+02 0.  0.
        254    2    1    2    0    0 -0.82000499982E+03  0.35747392580E+03 -0.15402608566E+04  0.20001639844E+04  0.90997618134E+03 0.  0.
        -24    2    4    4    0    0 -0.51259343540E+03  0.60784174726E+03 -0.68024552232E+03  0.10499912350E+04  0.86741011951E+02 0.  0.
         24    2    4    4    0    0 -0.30741156442E+03 -0.25036782145E+03 -0.86001533429E+03  0.95017274940E+03  0.77562636204E+02 0.  0.
         13    1    3    3    0    0  0.33847880610E+03 -0.18067396252E+03  0.13583861288E+03  0.40701733583E+03  0.00000000000E+00 0. -1.
        -13    1    3    3    0    0  0.48152619371E+03 -0.17679996329E+03  0.26803753249E+03  0.57876577393E+03  0.00000000000E+00 0.  1.
          2    1    6    6  502    0 -0.37312956096E+02 -0.28287758581E+02 -0.53378380279E+02  0.71004967851E+02  0.00000000000E+00 0. -1.
          3    1    5    5  503    0 -0.24531116108E+03  0.29188187614E+03 -0.26947295430E+03  0.46689213794E+03  0.00000000000E+00 0. -1.
         -4    1    5    5    0  503 -0.26728227432E+03  0.31595987112E+03 -0.41077256802E+03  0.58309909703E+03  0.00000000000E+00 0.  1.
         -1    1    6    6    0  502 -0.27009860832E+03 -0.22208006287E+03 -0.80663695401E+03  0.87916778155E+03  0.00000000000E+00 0.  1.
<mgrwt>
<rscale>  0 0.27612515E+04</rscale>
<asrwt>0</asrwt>
<pdfrwt beam="1">  1        1 0.31710244E+00 0.27612515E+04</pdfrwt>
<pdfrwt beam="2">  1       -1 0.14227403E+00 0.27612515E+04</pdfrwt>
<totfact> 0.94496428E-01</totfact>
</mgrwt>
</event>
<event>
12    1  0.1496989E-007  0.1494634E+04  0.7818608E-02  0.8888029E-01
          1   -1    0    0  501    0  0.00000000000E+00  0.00000000000E+00  0.21182495276E+04  0.21182495276E+04  0.00000000000E+00 0. -1.
         -1   -1    0    0    0  501 -0.00000000000E+00 -0.00000000000E+00 -0.26365281114E+03  0.26365281114E+03  0.00000000000E+00 0.  1.
         23    2    1    2    0    0  0.18987758689E+03  0.20168964091E+03 -0.80599580771E+00  0.29230248977E+03  0.93316057776E+02 0.  0.
        254    2    1    2    0    0 -0.18987758689E+03 -0.20168964091E+03  0.18554027123E+04  0.20895998490E+04  0.92042169405E+03 0.  0.
        -24    2    4    4    0    0 -0.38924165727E+03 -0.12211577800E+03  0.28943869223E+03  0.50663741302E+03  0.80531861522E+02 0.  0.
         24    2    4    4    0    0  0.19936407038E+03 -0.79573862913E+02  0.15659640201E+04  0.15829624360E+04  0.86306021551E+02 0.  0.
         11    1    3    3    0    0  0.89933472247E+02  0.71399093798E+02  0.42561719708E+02  0.12246370895E+03  0.00000000000E+00 0. -1.
        -11    1    3    3    0    0  0.99944114643E+02  0.13029054712E+03 -0.43367715516E+02  0.16983878081E+03  0.00000000000E+00 0.  1.
          4    1    6    6  502    0  0.12089522312E+03 -0.64382393952E+02  0.12309132330E+04  0.12385104500E+04  0.00000000000E+00 0. -1.
          3    1    5    5  503    0 -0.21783938578E+03 -0.99967011421E+02  0.13631162346E+03  0.27573222529E+03  0.00000000000E+00 0. -1.
         -4    1    5    5    0  503 -0.17140227149E+03 -0.22148766580E+02  0.15312706877E+03  0.23090518773E+03  0.00000000000E+00 0.  1.
         -3    1    6    6    0  502  0.78468847255E+02 -0.15191468961E+02  0.33505078707E+03  0.34445198597E+03  0.00000000000E+00 0.  1.
<mgrwt>
<rscale>  0 0.14946337E+04</rscale>
<asrwt>0</asrwt>
<pdfrwt beam="1">  1        1 0.32588453E+00 0.14946337E+04</pdfrwt>
<pdfrwt beam="2">  1       -1 0.40561972E-01 0.14946337E+04</pdfrwt>
<totfact> 0.14243920E+01</totfact>
</mgrwt>
</event>
<event>
12    1  0.1496989E-007  0.1565170E+04  0.7818608E-02  0.8842236E-01
         -2   -1    0    0    0  501 -0.00000000000E+00  0.00000000000E+00  0.71121046793E+03  0.71121046793E+03  0.00000000000E+00 0.  1.
          2   -1    0    0  501    0  0.00000000000E+00 -0.00000000000E+00 -0.86112191942E+03  0.86112191942E+03  0.00000000000E+00 0. -1.
         23    2    1    2    0    0 -0.38384736192E+03  0.34507292186E+03 -0.23223424434E+02  0.52410142261E+03  0.87913907219E+02 0.  0.
        254    2    1    2    0    0  0.38384736192E+03 -0.34507292186E+03 -0.12668802706E+03  0.10482309648E+04  0.90350660242E+03 0.  0.
        -24    2    4    4    0    0  0.87083922824E+02 -0.59695339552E+03  0.57758002598E+02  0.61120189420E+03  0.79339791874E+02 0.  0.
         24    2    4    4    0    0  0.29676343910E+03  0.25188047366E+03 -0.18444602965E+03  0.43702907055E+03  0.73903713396E+02 0.  0.
         11    1    3    3    0    0 -0.59255947262E+02  0.16062353767E+02 -0.40142464346E+01  0.61525447328E+02  0.00000000000E+00 0. -1.
        -11    1    3    3    0    0 -0.32459141466E+03  0.32901056809E+03 -0.19209177999E+02  0.46257597528E+03  0.00000000000E+00 0.  1.
          4    1    6    6  502    0  0.89514045632E+02  0.40715183550E+02 -0.27539818336E+02  0.10212214320E+03  0.00000000000E+00 0. -1.
          3    1    5    5  503    0  0.39319612860E+02 -0.80557392303E+02  0.14425598612E+02  0.90794401289E+02  0.00000000000E+00 0. -1.
         -4    1    5    5    0  503  0.47764309964E+02 -0.51639600321E+03  0.43332403986E+02  0.52040749291E+03  0.00000000000E+00 0.  1.
         -3    1    6    6    0  502  0.20724939347E+03  0.21116529011E+03 -0.15690621132E+03  0.33490692735E+03  0.00000000000E+00 0.  1.
<mgrwt>
<rscale>  0 0.15651695E+04</rscale>
<asrwt>0</asrwt>
<pdfrwt beam="1">  1        2 0.13248030E+00 0.15651695E+04</pdfrwt>
<pdfrwt beam="2">  1       -2 0.10941699E+00 0.15651695E+04</pdfrwt>
<totfact> 0.19952582E+01</totfact>
</mgrwt>
</event>
<event>
12    1  0.1496989E-007  0.3718824E+04  0.7818608E-02  0.8063803E-01
          1   -1    0    0  501    0  0.00000000000E+00  0.00000000000E+00  0.13740408142E+04  0.13740408142E+04  0.00000000000E+00 0. -1.
         -1   -1    0    0    0  501 -0.00000000000E+00 -0.00000000000E+00 -0.25162376574E+04  0.25162376574E+04  0.00000000000E+00 0.  1.
         23    2    1    2    0    0  0.10867498096E+04  0.59849286487E+03 -0.18272020116E+04  0.22104312206E+04  0.90111774076E+02 0.  0.
        254    2    1    2    0    0 -0.10867498096E+04 -0.59849286487E+03  0.68500516837E+03  0.16798472511E+04  0.90190678471E+03 0.  0.
        -24    2    4    4    0    0 -0.57123295812E+03  0.13096634171E+03  0.47541661552E+03  0.75890749469E+03  0.80376315473E+02 0.  0.
         24    2    4    4    0    0 -0.51551685144E+03 -0.72945920658E+03  0.20958855286E+03  0.92093975636E+03  0.79588411110E+02 0.  0.
         13    1    3    3    0    0  0.10850966984E+04  0.60007249928E+03 -0.18271220951E+04  0.22081433377E+04  0.00000000000E+00 0.  1.
        -13    1    3    3    0    0  0.16531111486E+01 -0.15796344102E+01 -0.79916442761E-01  0.22878828592E+01  0.00000000000E+00 0. -1.
          2    1    6    6  502    0 -0.10302875022E+03 -0.19921900694E+03  0.36772936285E+02  0.22727821044E+03  0.00000000000E+00 0. -1.
          1    1    5    5  503    0 -0.56836907161E+03  0.12172457941E+03  0.46273362451E+03  0.74295537016E+03  0.00000000000E+00 0. -1.
         -2    1    5    5    0  503 -0.28638865091E+01  0.92417622968E+01  0.12682991001E+02  0.15952124530E+02  0.00000000000E+00 0.  1.
         -1    1    6    6    0  502 -0.41248810122E+03 -0.53024019964E+03  0.17281561657E+03  0.69366154592E+03  0.00000000000E+00 0.  1.
<mgrwt>
<rscale>  0 0.37188241E+04</rscale>
<asrwt>0</asrwt>
<pdfrwt beam="1">  1        1 0.21139090E+00 0.37188241E+04</pdfrwt>
<pdfrwt beam="2">  1       -1 0.38711348E+00 0.37188241E+04</pdfrwt>
<totfact> 0.56168344E-02</totfact>
</mgrwt>
</event>
<event>
12    1  0.1496989E-007  0.1529630E+04  0.7818608E-02  0.8864985E-01
          4   -1    0    0  501    0  0.00000000000E+00  0.00000000000E+00  0.19752799905E+04  0.19752799905E+04  0.00000000000E+00 0.  1.
         -4   -1    0    0    0  501 -0.00000000000E+00 -0.00000000000E+00 -0.29613126420E+03  0.29613126420E+03  0.00000000000E+00 0. -1.
         23    2    1    2    0    0 -0.37123175571E+03  0.18231372997E+03  0.97695802827E+03  0.10650257117E+04  0.93709471351E+02 0.  0.
        254    2    1    2    0    0  0.37123175571E+03 -0.18231372997E+03  0.70219069805E+03  0.12063855430E+04  0.88951840306E+03 0.  0.
        -24    2    4    4    0    0 -0.26668267099E+03  0.11123676080E+02  0.35393254913E+03  0.44999551494E+03  0.77358457519E+02 0.  0.
         24    2    4    4    0    0  0.63791442669E+03 -0.19343740605E+03  0.34825814892E+03  0.75639002808E+03  0.80556132255E+02 0.  0.
         11    1    3    3    0    0 -0.10726760789E+02  0.27673760566E+01  0.36174030836E+01  0.11653642020E+02  0.00000000000E+00 0. -1.
        -11    1    3    3    0    0 -0.36050499492E+03  0.17954635391E+03  0.97334062519E+03  0.10533720697E+04  0.00000000000E+00 0.  1.
          4    1    6    6  502    0  0.55142209931E+03 -0.13737898403E+03  0.29946331568E+03  0.64235316945E+03  0.00000000000E+00 0. -1.
          1    1    5    5  503    0 -0.23756695444E+03  0.14694157105E+02  0.26427711083E+03  0.35566327812E+03  0.00000000000E+00 0. -1.
         -2    1    5    5    0  503 -0.29115716551E+02 -0.35704810250E+01  0.89655438308E+02  0.94332236818E+02  0.00000000000E+00 0.  1.
         -3    1    6    6    0  502  0.86492327381E+02 -0.56058422018E+02  0.48794833238E+02  0.11403685863E+03  0.00000000000E+00 0.  1.
<mgrwt>
<rscale>  0 0.15296302E+04</rscale>
<asrwt>0</asrwt>
<pdfrwt beam="1">  1        4 0.30388922E+00 0.15296302E+04</pdfrwt>
<pdfrwt beam="2">  1       -4 0.45558657E-01 0.15296302E+04</pdfrwt>
<totfact> 0.26520488E-01</totfact>
</mgrwt>
</event>
<event>
12    1  0.1496989E-007  0.1856163E+04  0.7818608E-02  0.8676990E-01
          2   -1    0    0  501    0  0.00000000000E+00  0.00000000000E+00  0.27017675339E+04  0.27017675339E+04  0.00000000000E+00 0. -1.
         -2   -1    0    0    0  501 -0.00000000000E+00 -0.00000000000E+00 -0.31880433773E+03  0.31880433773E+03  0.00000000000E+00 0.  1.
         23    2    1    2    0    0  0.38352373064E+02 -0.37795783659E+03  0.18793159280E+04  0.19195779752E+04  0.92888185293E+02 0.  0.
        254    2    1    2    0    0 -0.38352373064E+02  0.37795783659E+03  0.50364726816E+03  0.11009938964E+04  0.90233250989E+03 0.  0.
        -24    2    4    4    0    0 -0.19415716141E+03 -0.20548018479E+03  0.37852548734E+03  0.47906827000E+03  0.79408772105E+02 0.  0.
         24    2    4    4    0    0  0.15580478834E+03  0.58343802138E+03  0.12512178082E+03  0.62192562639E+03  0.80380145896E+02 0.  0.
         13    1    3    3    0    0  0.68890871637E+02 -0.27967072816E+03  0.13618743582E+04  0.13919997974E+04  0.00000000000E+00 0. -1.
        -13    1    3    3    0    0 -0.30538498573E+02 -0.98287108429E+02  0.51744156977E+03  0.52757817781E+03  0.00000000000E+00 0.  1.
          2    1    6    6  502    0  0.15476522723E+03  0.48327157332E+03  0.12096922061E+03  0.52166775008E+03  0.00000000000E+00 0. -1.
          3    1    5    5  503    0 -0.57493929926E+02 -0.59055817290E+02  0.56822948161E+02  0.10010988449E+03  0.00000000000E+00 0. -1.
         -4    1    5    5    0  503 -0.13666323148E+03 -0.14642436750E+03  0.32170253918E+03  0.37895838552E+03  0.00000000000E+00 0.  1.
         -1    1    6    6    0  502  0.10395611091E+01  0.10016644806E+03  0.41525602109E+01  0.10025787631E+03  0.00000000000E+00 0.  1.
<mgrwt>
<rscale>  0 0.18561629E+04</rscale>
<asrwt>0</asrwt>
<pdfrwt beam="1">  1        2 0.41565653E+00 0.18561629E+04</pdfrwt>
<pdfrwt beam="2">  1       -2 0.49046823E-01 0.18561629E+04</pdfrwt>
<totfact> 0.98161901E+00</totfact>
</mgrwt>
</event>
<event>
12    1  0.1496989E-007  0.1764337E+04  0.7818608E-02  0.8725498E-01
         -2   -1    0    0    0  501 -0.00000000000E+00  0.00000000000E+00  0.18241802566E+04  0.18241802566E+04  0.00000000000E+00 0.  1.
          2   -1    0    0  501    0  0.00000000000E+00 -0.00000000000E+00 -0.42661440989E+03  0.42661440989E+03  0.00000000000E+00 0. -1.
         23    2    1    2    0    0 -0.61074564135E+03 -0.85294719872E+02  0.78422303160E+03  0.10018248601E+04  0.91443202359E+02 0.  0.
        254    2    1    2    0    0  0.61074564135E+03  0.85294719872E+02  0.61334281513E+03  0.12489698065E+04  0.89635413811E+03 0.  0.
        -24    2    4    4    0    0  0.82820375258E+03  0.23398817174E+02  0.38437740065E+03  0.91695544790E+03  0.81193268625E+02 0.  0.
         24    2    4    4    0    0 -0.21745811123E+03  0.61895902699E+02  0.22896541448E+03  0.33201435856E+03  0.81787776283E+02 0.  0.
         11    1    3    3    0    0 -0.50117458637E+03 -0.79616306468E+02  0.58534432772E+03  0.77468877897E+03  0.00000000000E+00 0.  1.
        -11    1    3    3    0    0 -0.10957105498E+03 -0.56784134046E+01  0.19887870389E+03  0.22713608108E+03  0.00000000000E+00 0. -1.
          2    1    6    6  502    0 -0.59667698708E+02 -0.80025915917E+01  0.25945784884E+02  0.65555011209E+02  0.00000000000E+00 0. -1.
          3    1    5    5  503    0  0.20390010625E+03 -0.25309732220E+02  0.77418713332E+02  0.21956660276E+03  0.00000000000E+00 0. -1.
         -4    1    5    5    0  503  0.62430364633E+03  0.48708549393E+02  0.30695868731E+03  0.69738884514E+03  0.00000000000E+00 0.  1.
         -1    1    6    6    0  502 -0.15779041252E+03  0.69898494290E+02  0.20301962960E+03  0.26645934735E+03  0.00000000000E+00 0.  1.
<mgrwt>
<rscale>  0 0.17643374E+04</rscale>
<asrwt>0</asrwt>
<pdfrwt beam="1">  1        2 0.65632987E-01 0.17643374E+04</pdfrwt>
<pdfrwt beam="2">  1       -2 0.28064311E+00 0.17643374E+04</pdfrwt>
<totfact> 0.29236988E+00</totfact>
</mgrwt>
</event>
<event>
12    1  0.1496989E-007  0.2400242E+04  0.7818608E-02  0.8439413E-01
          1   -1    0    0  501    0  0.00000000000E+00  0.00000000000E+00  0.11569818919E+04  0.11569818919E+04  0.00000000000E+00 0. -1.
         -1   -1    0    0    0  501 -0.00000000000E+00 -0.00000000000E+00 -0.12448682524E+04  0.12448682524E+04  0.00000000000E+00 0.  1.
         23    2    1    2    0    0  0.89071863695E+03  0.75537301455E+02 -0.56402218538E+03  0.10607928544E+04  0.89860337770E+02 0.  0.
        254    2    1    2    0    0 -0.89071863695E+03 -0.75537301455E+02  0.47613582487E+03  0.13410572899E+04  0.87900156818E+03 0.  0.
        -24    2    4    4    0    0 -0.56196978831E+03 -0.39955393969E+03  0.52319354997E+03  0.86946072354E+03  0.82322933357E+02 0.  0.
         24    2    4    4    0    0 -0.32874884864E+03  0.32401663824E+03 -0.47057725109E+02  0.47159656632E+03  0.84417442126E+02 0.  0.
         11    1    3    3    0    0  0.12107973995E+03  0.52119098033E+01 -0.42431097553E+02  0.12840508350E+03  0.00000000000E+00 0. -1.
        -11    1    3    3    0    0  0.76963889700E+03  0.70325391652E+02 -0.52159108783E+03  0.93238777094E+03  0.00000000000E+00 0.  1.
          4    1    6    6  502    0 -0.13624773166E+03  0.86943188972E+02 -0.38222929742E+02  0.16608297580E+03  0.00000000000E+00 0. -1.
          3    1    5    5  503    0 -0.86324351173E+02 -0.92148640965E+02  0.71887255178E+02  0.14529639739E+03  0.00000000000E+00 0. -1.
         -4    1    5    5    0  503 -0.47564543714E+03 -0.30740529873E+03  0.45130629480E+03  0.72416432616E+03  0.00000000000E+00 0.  1.
         -3    1    6    6    0  502 -0.19250111698E+03  0.23707344927E+03 -0.88347953666E+01  0.30551359052E+03  0.00000000000E+00 0.  1.
<mgrwt>
<rscale>  0 0.24002417E+04</rscale>
<asrwt>0</asrwt>
<pdfrwt beam="1">  1        1 0.17799721E+00 0.24002417E+04</pdfrwt>
<pdfrwt beam="2">  1       -1 0.19151819E+00 0.24002417E+04</pdfrwt>
<totfact> 0.17759919E+00</totfact>
</mgrwt>
</event>
<event>
12    1  0.1496989E-007  0.1833293E+04  0.7818608E-02  0.8688792E-01
         -2   -1    0    0    0  501 -0.00000000000E+00  0.00000000000E+00  0.14558437906E+04  0.14558437906E+04  0.00000000000E+00 0. -1.
          2   -1    0    0  501    0  0.00000000000E+00 -0.00000000000E+00 -0.57715017318E+03  0.57715017318E+03  0.00000000000E+00 0.  1.
         23    2    1    2    0    0  0.69058737888E+03  0.19716398928E+01  0.41329193584E+03  0.81442270124E+03  0.12473691047E+03 0.  0.
        254    2    1    2    0    0 -0.69058737888E+03 -0.19716398928E+01  0.46540168154E+03  0.12185712625E+04  0.88960799310E+03 0.  0.
        -24    2    4    4    0    0 -0.94951087961E+02 -0.23104439649E+03 -0.17216197317E+03  0.31292969122E+03  0.76733463285E+02 0.  0.
         24    2    4    4    0    0 -0.59563629092E+03  0.22907275660E+03  0.63756365471E+03  0.90564157128E+03  0.80264082584E+02 0.  0.
         13    1    3    3    0    0  0.18859424445E+03  0.39104603935E+02  0.69070879914E+02  0.20461609306E+03  0.00000000000E+00 0. -1.
        -13    1    3    3    0    0  0.50199313443E+03 -0.37132964043E+02  0.34422105593E+03  0.60980660818E+03  0.00000000000E+00 0.  1.
          4    1    6    6  502    0 -0.57295713249E+03  0.22974769550E+03  0.59481534620E+03  0.85724510808E+03  0.00000000000E+00 0. -1.
          1    1    5    5  503    0 -0.67881070004E+02 -0.20555454629E+03 -0.11605378306E+03  0.24561960778E+03  0.00000000000E+00 0. -1.
         -2    1    5    5    0  503 -0.27070017957E+02 -0.25489850207E+02 -0.56108190108E+02  0.67310083442E+02  0.00000000000E+00 0.  1.
         -3    1    6    6    0  502 -0.22679158424E+02 -0.67493890006E+00  0.42748308514E+02  0.48396463199E+02  0.00000000000E+00 0.  1.
<mgrwt>
<rscale>  0 0.18332927E+04</rscale>
<asrwt>0</asrwt>
<pdfrwt beam="1">  1        2 0.88792335E-01 0.18332927E+04</pdfrwt>
<pdfrwt beam="2">  1       -2 0.22397597E+00 0.18332927E+04</pdfrwt>
<totfact> 0.45619795E+00</totfact>
</mgrwt>
</event>
<event>
12    1  0.1496989E-007  0.1019883E+04  0.7818608E-02  0.9287002E-01
          2   -1    0    0  501    0  0.00000000000E+00  0.00000000000E+00  0.21846867602E+04  0.21846867602E+04  0.00000000000E+00 0. -1.
         -2   -1    0    0    0  501 -0.00000000000E+00 -0.00000000000E+00 -0.11902867494E+03  0.11902867494E+03  0.00000000000E+00 0.  1.
         23    2    1    2    0    0  0.75391412148E+02  0.34724737269E+02  0.34841375449E+02  0.12983516766E+03  0.93560552126E+02 0.  0.
        254    2    1    2    0    0 -0.75391412148E+02 -0.34724737269E+02  0.20308167098E+04  0.21738802675E+04  0.77113503102E+03 0.  0.
        -24    2    4    4    0    0  0.10977005868E+03 -0.22561272457E+03  0.17812267452E+04  0.18004799741E+04  0.77516786589E+02 0.  0.
         24    2    4    4    0    0 -0.18516147083E+03  0.19088798730E+03  0.24958996461E+03  0.37340029333E+03  0.80060193918E+02 0.  0.
         11    1    3    3    0    0  0.90032471768E+02  0.13709377813E+02  0.45845362364E+02  0.10195876747E+03  0.00000000000E+00 0. -1.
        -11    1    3    3    0    0 -0.14641059620E+02  0.21015359455E+02 -0.11003986915E+02  0.27876400196E+02  0.00000000000E+00 0.  1.
          4    1    6    6  502    0 -0.18095229181E+03  0.19869725849E+03  0.23966495815E+03  0.36008835667E+03  0.00000000000E+00 0. -1.
          3    1    5    5  503    0  0.57865487104E+02 -0.13099096026E+03  0.12658668994E+04  0.12739411499E+04  0.00000000000E+00 0. -1.
         -4    1    5    5    0  503  0.51904571577E+02 -0.94621764309E+02  0.51535984579E+03  0.52653882429E+03  0.00000000000E+00 0.  1.
         -3    1    6    6    0  502 -0.42091790199E+01 -0.78092711880E+01  0.99250064621E+01  0.13311936665E+02  0.00000000000E+00 0.  1.
<mgrwt>
<rscale>  0 0.10198831E+04</rscale>
<asrwt>0</asrwt>
<pdfrwt beam="1">  1        2 0.33610563E+00 0.10198831E+04</pdfrwt>
<pdfrwt beam="2">  1       -2 0.18312105E-01 0.10198831E+04</pdfrwt>
<totfact> 0.13177952E+02</totfact>
</mgrwt>
</event>
<event>
12    1  0.1496989E-007  0.1666617E+04  0.7818608E-02  0.8780637E-01
         -2   -1    0    0    0  501 -0.00000000000E+00  0.00000000000E+00  0.93940056869E+03  0.93940056869E+03  0.00000000000E+00 0.  1.
          2   -1    0    0  501    0  0.00000000000E+00 -0.00000000000E+00 -0.73919768319E+03  0.73919768319E+03  0.00000000000E+00 0. -1.
         23    2    1    2    0    0  0.66564709320E+02 -0.37470665216E+03  0.50334754989E+03  0.63766961392E+03  0.91803294299E+02 0.  0.
        254    2    1    2    0    0 -0.66564709320E+02  0.37470665216E+03 -0.30314466439E+03  0.10409286380E+04  0.92021726025E+03 0.  0.
        -24    2    4    4    0    0 -0.42983766700E+02 -0.22097510826E+03  0.15621923728E+03  0.28494141244E+03  0.78163647277E+02 0.  0.
         24    2    4    4    0    0 -0.23580942620E+02  0.59568176042E+03 -0.45936390167E+03  0.75598722551E+03  0.71474963593E+02 0.  0.
         13    1    3    3    0    0  0.76790589185E+01 -0.23620487092E+02  0.84002898721E+02  0.87597844436E+02  0.00000000000E+00 0. -1.
        -13    1    3    3    0    0  0.58885650402E+02 -0.35108616507E+03  0.41934465117E+03  0.55007176949E+03  0.00000000000E+00 0.  1.
          2    1    6    6  502    0 -0.24587930851E+01  0.53905562038E+03 -0.42511711622E+03  0.68652135438E+03  0.00000000000E+00 0. -1.
          3    1    5    5  503    0 -0.38229323592E+02 -0.22716462204E+03  0.15274160913E+03  0.27639689913E+03  0.00000000000E+00 0. -1.
         -4    1    5    5    0  503 -0.47544431083E+01  0.61895137808E+01  0.34776281492E+01  0.85445133072E+01  0.00000000000E+00 0.  1.
         -1    1    6    6    0  502 -0.21122149535E+02  0.56626140049E+02 -0.34246785455E+02  0.69465871130E+02  0.00000000000E+00 0.  1.
<mgrwt>
<rscale>  0 0.16666166E+04</rscale>
<asrwt>0</asrwt>
<pdfrwt beam="1">  1        2 0.11372272E+00 0.16666166E+04</pdfrwt>
<pdfrwt beam="2">  1       -2 0.14452316E+00 0.16666166E+04</pdfrwt>
<totfact> 0.12044036E+01</totfact>
</mgrwt>
</event>
<event>
12    1  0.1496989E-007  0.2008721E+04  0.7818608E-02  0.8602554E-01
         -2   -1    0    0    0  501 -0.00000000000E+00  0.00000000000E+00  0.52963337741E+03  0.52963337741E+03  0.00000000000E+00 0.  1.
          2   -1    0    0  501    0  0.00000000000E+00 -0.00000000000E+00 -0.19046001773E+04  0.19046001773E+04  0.00000000000E+00 0. -1.
         23    2    1    2    0    0 -0.36965048142E+03  0.17800482610E+03 -0.13895464513E+04  0.14518089382E+04  0.92642626439E+02 0.  0.
        254    2    1    2    0    0  0.36965048142E+03 -0.17800482610E+03  0.14579651455E+02  0.98242461645E+03  0.89253479721E+03 0.  0.
        -24    2    4    4    0    0 -0.13398788270E+03 -0.63421427886E+02 -0.32014398873E+03  0.36171470841E+03  0.79814325368E+02 0.  0.
         24    2    4    4    0    0  0.50363836412E+03 -0.11458339822E+03  0.33472364019E+03  0.62070990803E+03  0.80373613019E+02 0.  0.
         13    1    3    3    0    0 -0.46182143661E+02  0.66722629318E+01 -0.85986730760E+02  0.97831627567E+02  0.00000000000E+00 0.  1.
        -13    1    3    3    0    0 -0.32346833776E+03  0.17133256317E+03 -0.13035597206E+04  0.13539773107E+04  0.00000000000E+00 0. -1.
          2    1    6    6  502    0  0.21022139972E+03 -0.10070770396E+02  0.11836168852E+03  0.24146210185E+03  0.00000000000E+00 0. -1.
          1    1    5    5  503    0 -0.73729389825E+02 -0.70909051673E+02 -0.15453483417E+03  0.18532439533E+03  0.00000000000E+00 0. -1.
         -2    1    5    5    0  503 -0.60258492880E+02  0.74876237869E+01 -0.16560915456E+03  0.17639031308E+03  0.00000000000E+00 0.  1.
         -1    1    6    6    0  502  0.29341696440E+03 -0.10451262782E+03  0.21636195166E+03  0.37924780619E+03  0.00000000000E+00 0.  1.
<mgrwt>
<rscale>  0 0.20087208E+04</rscale>
<asrwt>0</asrwt>
<pdfrwt beam="1">  1        2 0.29301541E+00 0.20087208E+04</pdfrwt>
<pdfrwt beam="2">  1       -2 0.81482059E-01 0.20087208E+04</pdfrwt>
<totfact> 0.92940732E+00</totfact>
</mgrwt>
</event>
<event>
12    1  0.1496989E-007  0.1347724E+04  0.7818608E-02  0.8992552E-01
         -2   -1    0    0    0  501 -0.00000000000E+00  0.00000000000E+00  0.33206139450E+03  0.33206139450E+03  0.00000000000E+00 0.  1.
          2   -1    0    0  501    0  0.00000000000E+00 -0.00000000000E+00 -0.13674889034E+04  0.13674889034E+04  0.00000000000E+00 0. -1.
         23    2    1    2    0    0 -0.13203304668E+03  0.10236111527E+03 -0.68664559770E+03  0.71071074401E+03  0.75611252263E+02 0.  0.
        254    2    1    2    0    0  0.13203304668E+03 -0.10236111527E+03 -0.34878191123E+03  0.98883955392E+03  0.91007929241E+03 0.  0.
        -24    2    4    4    0    0 -0.65687131294E+02  0.36997319402E+03 -0.42324166734E+02  0.38669675316E+03  0.80920209525E+02 0.  0.
         24    2    4    4    0    0  0.19772017798E+03 -0.47233430929E+03 -0.30645774449E+03  0.60214280076E+03  0.80415389314E+02 0.  0.
         13    1    3    3    0    0 -0.14154196277E+02 -0.60907547106E+01 -0.14669815887E+03  0.14750521476E+03  0.00000000000E+00 0.  1.
        -13    1    3    3    0    0 -0.11787885041E+03  0.10845186998E+03 -0.53994743884E+03  0.56320552925E+03  0.00000000000E+00 0. -1.
          4    1    6    6  502    0  0.11864163647E+03 -0.19606276050E+03 -0.11122101028E+03  0.25472839867E+03  0.00000000000E+00 0. -1.
          3    1    5    5  503    0 -0.26762163288E+02  0.31569716203E+03 -0.44089092853E+02  0.31988241528E+03  0.00000000000E+00 0. -1.
         -2    1    5    5    0  503 -0.38924968006E+02  0.54276031984E+02  0.17649261189E+01  0.66814337881E+02  0.00000000000E+00 0.  1.
         -3    1    6    6    0  502  0.79078541505E+02 -0.27627154879E+03 -0.19523673421E+03  0.34741440209E+03  0.00000000000E+00 0.  1.
<mgrwt>
<rscale>  0 0.13477244E+04</rscale>
<asrwt>0</asrwt>
<pdfrwt beam="1">  1        2 0.21038291E+00 0.13477244E+04</pdfrwt>
<pdfrwt beam="2">  1       -2 0.51086368E-01 0.13477244E+04</pdfrwt>
<totfact> 0.53431520E+01</totfact>
</mgrwt>
</event>
<event>
12    1  0.1496989E-007  0.1775313E+04  0.7818608E-02  0.8719539E-01
          1   -1    0    0  501    0  0.00000000000E+00  0.00000000000E+00  0.41471094072E+03  0.41471094072E+03  0.00000000000E+00 0. -1.
         -1   -1    0    0    0  501 -0.00000000000E+00 -0.00000000000E+00 -0.18999607205E+04  0.18999607205E+04  0.00000000000E+00 0.  1.
         23    2    1    2    0    0  0.65307021540E+03 -0.10169616163E+01 -0.43369524799E+03  0.78936659557E+03  0.92229678545E+02 0.  0.
        254    2    1    2    0    0 -0.65307021540E+03  0.10169616163E+01 -0.10515545318E+04  0.15253050657E+04  0.89122773158E+03 0.  0.
        -24    2    4    4    0    0 -0.60357046972E+03  0.25587707694E+03 -0.29991698554E+03  0.72551659766E+03  0.81570489963E+02 0.  0.
         24    2    4    4    0    0 -0.49499745680E+02 -0.25486011532E+03 -0.75163754624E+03  0.79978846800E+03  0.85432367512E+02 0.  0.
         11    1    3    3    0    0  0.20101812306E+03  0.73102832661E+01 -0.18533001151E+03  0.27351222863E+03  0.00000000000E+00 0.  1.
        -11    1    3    3    0    0  0.45205209234E+03 -0.83272448824E+01 -0.24836523648E+03  0.51585436694E+03  0.00000000000E+00 0. -1.
          4    1    6    6  502    0 -0.85746027343E+01 -0.12760260368E+03 -0.25223406223E+03  0.28280376664E+03  0.00000000000E+00 0. -1.
          1    1    5    5  503    0 -0.11135958554E+03  0.73264328226E+02 -0.85876005439E+02  0.15856641319E+03  0.00000000000E+00 0. -1.
         -2    1    5    5    0  503 -0.49221088419E+03  0.18261274871E+03 -0.21404098010E+03  0.56695018447E+03  0.00000000000E+00 0.  1.
         -3    1    6    6    0  502 -0.40925142946E+02 -0.12725751165E+03 -0.49940348401E+03  0.51698470136E+03  0.00000000000E+00 0.  1.
<mgrwt>
<rscale>  0 0.17753135E+04</rscale>
<asrwt>0</asrwt>
<pdfrwt beam="1">  1        1 0.63801682E-01 0.17753135E+04</pdfrwt>
<pdfrwt beam="2">  1       -1 0.29230165E+00 0.17753135E+04</pdfrwt>
<totfact> 0.20046358E+00</totfact>
</mgrwt>
</event>
<event>
12    1  0.1496989E-007  0.1272671E+04  0.7818608E-02  0.9051522E-01
         -1   -1    0    0    0  501 -0.00000000000E+00  0.00000000000E+00  0.38410050031E+03  0.38410050031E+03  0.00000000000E+00 0.  1.
          1   -1    0    0  501    0  0.00000000000E+00 -0.00000000000E+00 -0.10542110988E+04  0.10542110988E+04  0.00000000000E+00 0. -1.
         23    2    1    2    0    0  0.12230597928E+03 -0.24789955386E+03 -0.36319740664E+03  0.46643100788E+03  0.96086354673E+02 0.  0.
        254    2    1    2    0    0 -0.12230597928E+03  0.24789955386E+03 -0.30691319183E+03  0.97188059120E+03  0.87974043607E+03 0.  0.
        -24    2    4    4    0    0 -0.40454545143E+03  0.41008855321E+03 -0.13946342416E+03  0.59742836115E+03  0.75106299818E+02 0.  0.
         24    2    4    4    0    0  0.28223947215E+03 -0.16218899936E+03 -0.16744976767E+03  0.37445223005E+03  0.78807720098E+02 0.  0.
         11    1    3    3    0    0  0.19470569912E+01  0.88659738860E+01 -0.11154792746E+02  0.14381443776E+02  0.00000000000E+00 0.  1.
        -11    1    3    3    0    0  0.12035892229E+03 -0.25676552775E+03 -0.35204261389E+03  0.45204956411E+03  0.00000000000E+00 0. -1.
          2    1    6    6  502    0  0.25613683887E+02  0.80832516223E+01 -0.11108023106E+02  0.29065235874E+02  0.00000000000E+00 0. -1.
          3    1    5    5  503    0 -0.29269358043E+03  0.33850972536E+03 -0.11911469886E+03  0.46308387758E+03  0.00000000000E+00 0. -1.
         -2    1    5    5    0  503 -0.11185187101E+03  0.71578827852E+02 -0.20348725298E+02  0.13434448357E+03  0.00000000000E+00 0.  1.
         -1    1    6    6    0  502  0.25662578826E+03 -0.17027225098E+03 -0.15634174456E+03  0.34538699418E+03  0.00000000000E+00 0.  1.
<mgrwt>
<rscale>  0 0.12726712E+04</rscale>
<asrwt>0</asrwt>
<pdfrwt beam="1">  1        1 0.16218632E+00 0.12726712E+04</pdfrwt>
<pdfrwt beam="2">  1       -1 0.59092384E-01 0.12726712E+04</pdfrwt>
<totfact> 0.39256054E+01</totfact>
</mgrwt>
</event>
<event>
12    1  0.1496989E-007  0.1323466E+04  0.7818608E-02  0.9011161E-01
          2   -1    0    0  501    0  0.00000000000E+00  0.00000000000E+00  0.68836523503E+03  0.68836523503E+03  0.00000000000E+00 0. -1.
         -2   -1    0    0    0  501 -0.00000000000E+00 -0.00000000000E+00 -0.63613087220E+03  0.63613087220E+03  0.00000000000E+00 0.  1.
         23    2    1    2    0    0 -0.28934551574E+03 -0.19662674144E+03  0.44073362618E+02  0.36692311972E+03  0.10152443825E+03 0.  0.
        254    2    1    2    0    0  0.28934551574E+03  0.19662674144E+03  0.81610002167E+01  0.95757298752E+03  0.89134534361E+03 0.  0.
        -24    2    4    4    0    0 -0.71604830444E+02 -0.30216413886E+03  0.88086895568E+02  0.33247516485E+03  0.79686984582E+02 0.  0.
         24    2    4    4    0    0  0.36095034618E+03  0.49879088030E+03 -0.79925895351E+02  0.62509782267E+03  0.72674923291E+02 0.  0.
         11    1    3    3    0    0 -0.14326824874E+03 -0.96505407610E+02  0.72907444714E+02  0.18749554739E+03  0.00000000000E+00 0.  1.
        -11    1    3    3    0    0 -0.14607726700E+03 -0.10012133383E+03 -0.28834082096E+02  0.17942757233E+03  0.00000000000E+00 0. -1.
          4    1    6    6  502    0  0.35186487509E+03  0.45843262057E+03 -0.67080080744E+02  0.58178096836E+03  0.00000000000E+00 0. -1.
          3    1    5    5  503    0 -0.84902633054E+02 -0.28567039271E+03  0.89701016581E+02  0.31122709192E+03  0.00000000000E+00 0. -1.
         -4    1    5    5    0  503  0.13297802610E+02 -0.16493746158E+02 -0.16141210134E+01  0.21248072930E+02  0.00000000000E+00 0.  1.
         -3    1    6    6    0  502  0.90854710993E+01  0.40358259737E+02 -0.12845814607E+02  0.43316854306E+02  0.00000000000E+00 0.  1.
<mgrwt>
<rscale>  0 0.13234657E+04</rscale>
<asrwt>0</asrwt>
<pdfrwt beam="1">  1        2 0.10590234E+00 0.13234657E+04</pdfrwt>
<pdfrwt beam="2">  1       -2 0.97866288E-01 0.13234657E+04</pdfrwt>
<totfact> 0.35607472E+01</totfact>
</mgrwt>
</event>
<event>
12    1  0.1496989E-007  0.2598016E+04  0.7818608E-02  0.8368876E-01
         -2   -1    0    0    0  501 -0.00000000000E+00  0.00000000000E+00  0.58990509744E+03  0.58990509744E+03  0.00000000000E+00 0.  1.
          2   -1    0    0  501    0  0.00000000000E+00 -0.00000000000E+00 -0.28604960498E+04  0.28604960498E+04  0.00000000000E+00 0. -1.
         23    2    1    2    0    0  0.41937257105E+03  0.24054986308E+03  0.37098714557E+03  0.61700827754E+03  0.96592765742E+02 0.  0.
        254    2    1    2    0    0 -0.41937257105E+03 -0.24054986308E+03 -0.26415780979E+04  0.28333928697E+04  0.90357219778E+03 0.  0.
        -24    2    4    4    0    0 -0.43961346340E+03  0.25931770985E+03 -0.12313365638E+04  0.13352907361E+04  0.79409979642E+02 0.  0.
         24    2    4    4    0    0  0.20240892348E+02 -0.49986757294E+03 -0.14102415342E+04  0.14981021336E+04  0.72467466686E+02 0.  0.
         11    1    3    3    0    0  0.36068086047E+03  0.18838073751E+03  0.34734224288E+03  0.53499964398E+03  0.00000000000E+00 0.  1.
        -11    1    3    3    0    0  0.58691710585E+02  0.52169125579E+02  0.23644902691E+02  0.82008633560E+02  0.00000000000E+00 0. -1.
          4    1    6    6  502    0  0.40213075173E+02 -0.37658652168E+03 -0.10020277327E+04  0.10712114996E+04  0.00000000000E+00 0. -1.
          1    1    5    5  503    0 -0.26365980343E+03  0.11089499560E+03 -0.70528243671E+03  0.76107654512E+03  0.00000000000E+00 0. -1.
         -2    1    5    5    0  503 -0.17595365998E+03  0.14842271425E+03 -0.52605412706E+03  0.57421419101E+03  0.00000000000E+00 0.  1.
         -3    1    6    6    0  502 -0.19972182825E+02 -0.12328105126E+03 -0.40821380143E+03  0.42689063396E+03  0.00000000000E+00 0.  1.
<mgrwt>
<rscale>  0 0.25980156E+04</rscale>
<asrwt>0</asrwt>
<pdfrwt beam="1">  1        2 0.44007632E+00 0.25980156E+04</pdfrwt>
<pdfrwt beam="2">  1       -2 0.90754629E-01 0.25980156E+04</pdfrwt>
<totfact> 0.19479672E+00</totfact>
</mgrwt>
</event>
<event>
12    1  0.1496989E-007  0.1640247E+04  0.7818608E-02  0.8796197E-01
          2   -1    0    0  501    0  0.00000000000E+00  0.00000000000E+00  0.14390256018E+04  0.14390256018E+04  0.00000000000E+00 0.  1.
         -2   -1    0    0    0  501 -0.00000000000E+00 -0.00000000000E+00 -0.46740130186E+03  0.46740130186E+03  0.00000000000E+00 0. -1.
         23    2    1    2    0    0 -0.47495448139E+03  0.59445993676E+02 -0.16738463011E+02  0.48691189622E+03  0.87678007424E+02 0.  0.
        254    2    1    2    0    0  0.47495448139E+03 -0.59445993676E+02  0.98836276292E+03  0.14195150074E+04  0.89947002150E+03 0.  0.
        -24    2    4    4    0    0  0.54680678008E+03  0.30095630007E+03  0.50723333437E+03  0.80894677400E+03  0.86815196745E+02 0.  0.
         24    2    4    4    0    0 -0.71852298692E+02 -0.36040229375E+03  0.48112942856E+03  0.61056823341E+03  0.79091557429E+02 0.  0.
         11    1    3    3    0    0 -0.26594398729E+03 -0.10183497258E+02 -0.25350263257E+01  0.26615096158E+03  0.00000000000E+00 0. -1.
        -11    1    3    3    0    0 -0.20901049410E+03  0.69629490934E+02 -0.14203436685E+02  0.22076093464E+03  0.00000000000E+00 0.  1.
          4    1    6    6  502    0 -0.19323136416E+02 -0.23415995272E+03  0.25869159473E+03  0.34946474535E+03  0.00000000000E+00 0. -1.
          3    1    5    5  503    0  0.40255736093E+03  0.18876791611E+03  0.39322662790E+03  0.59355954704E+03  0.00000000000E+00 0. -1.
         -4    1    5    5    0  503  0.14424941915E+03  0.11218838396E+03  0.11400670647E+03  0.21538722697E+03  0.00000000000E+00 0.  1.
         -3    1    6    6    0  502 -0.52529162275E+02 -0.12624234103E+03  0.22243783383E+03  0.26110348806E+03  0.00000000000E+00 0.  1.
<mgrwt>
<rscale>  0 0.16402469E+04</rscale>
<asrwt>0</asrwt>
<pdfrwt beam="1">  1        2 0.22138855E+00 0.16402469E+04</pdfrwt>
<pdfrwt beam="2">  1       -2 0.71907893E-01 0.16402469E+04</pdfrwt>
<totfact> 0.23028882E+01</totfact>
</mgrwt>
</event>
<event>
12    1  0.1496989E-007  0.1484336E+04  0.7818608E-02  0.8894937E-01
         -2   -1    0    0    0  501 -0.00000000000E+00  0.00000000000E+00  0.20830626510E+03  0.20830626510E+03  0.00000000000E+00 0.  1.
          2   -1    0    0  501    0  0.00000000000E+00 -0.00000000000E+00 -0.26442470957E+04  0.26442470957E+04  0.00000000000E+00 0. -1.
         23    2    1    2    0    0  0.24685832711E+03 -0.39005977681E+03 -0.77855752623E+03  0.90959887787E+03  0.90181116791E+02 0.  0.
        254    2    1    2    0    0 -0.24685832711E+03  0.39005977681E+03 -0.16573833044E+04  0.19429544830E+04  0.90281063461E+03 0.  0.
        -24    2    4    4    0    0  0.39980216304E+02 -0.93082801195E+02  0.53827055621E+02  0.14017752515E+03  0.80557811946E+02 0.  0.
         24    2    4    4    0    0 -0.28683854341E+03  0.48314257801E+03 -0.17112103600E+04  0.18027769578E+04  0.77850900272E+02 0.  0.
         13    1    3    3    0    0  0.45315946900E+02 -0.21456891112E+02 -0.88789696305E+02  0.10196834504E+03  0.00000000000E+00 0. -1.
        -13    1    3    3    0    0  0.20154238021E+03 -0.36860288570E+03 -0.68976782992E+03  0.80763053283E+03  0.00000000000E+00 0.  1.
          4    1    6    6  502    0 -0.24541837738E+03  0.34814428285E+03 -0.12982298711E+04  0.13663218581E+04  0.00000000000E+00 0. -1.
          1    1    5    5  503    0  0.83797245664E+01 -0.96330021685E+02  0.47723411593E+02  0.10782957329E+03  0.00000000000E+00 0. -1.
         -2    1    5    5    0  503  0.31600491737E+02  0.32472204905E+01  0.61036440278E+01  0.32347951857E+02  0.00000000000E+00 0.  1.
         -3    1    6    6    0  502 -0.41420166034E+02  0.13499829516E+03 -0.41298048889E+03  0.43645509969E+03  0.00000000000E+00 0.  1.
<mgrwt>
<rscale>  0 0.14843359E+04</rscale>
<asrwt>0</asrwt>
<pdfrwt beam="1">  1        2 0.40680725E+00 0.14843359E+04</pdfrwt>
<pdfrwt beam="2">  1       -2 0.32047118E-01 0.14843359E+04</pdfrwt>
<totfact> 0.25214634E+01</totfact>
</mgrwt>
</event>
<event>
12    1  0.1496989E-007  0.1301025E+04  0.7818608E-02  0.9028753E-01
          2   -1    0    0  501    0  0.00000000000E+00  0.00000000000E+00  0.10505529221E+04  0.10505529221E+04  0.00000000000E+00 0. -1.
         -2   -1    0    0    0  501 -0.00000000000E+00 -0.00000000000E+00 -0.40280363667E+03  0.40280363667E+03  0.00000000000E+00 0.  1.
         23    2    1    2    0    0  0.28050784817E+03  0.23676075091E+02 -0.19529495347E+02  0.29643294367E+03  0.90806825131E+02 0.  0.
        254    2    1    2    0    0 -0.28050784817E+03 -0.23676075091E+02  0.66727878077E+03  0.11569236151E+04  0.90220068193E+03 0.  0.
        -24    2    4    4    0    0  0.18609899548E+03 -0.10781001180E+03 -0.10099547193E+03  0.25060228766E+03  0.79659189475E+02 0.  0.
         24    2    4    4    0    0 -0.46660684365E+03  0.84133936708E+02  0.76827425270E+03  0.90632132743E+03  0.79828286637E+02 0.  0.
         13    1    3    3    0    0 -0.53445838531E+01  0.72233278644E+01  0.23036751760E+01  0.92762040359E+01  0.00000000000E+00 0. -1.
        -13    1    3    3    0    0  0.28585243202E+03  0.16452747227E+02 -0.21833170523E+02  0.28715673964E+03  0.00000000000E+00 0.  1.
          2    1    6    6  502    0 -0.32551687960E+03  0.61324303578E+02  0.60157191914E+03  0.68673916665E+03  0.00000000000E+00 0. -1.
          1    1    5    5  503    0  0.73561075925E+02 -0.99000356266E+01 -0.61241486425E+02  0.96227658478E+02  0.00000000000E+00 0. -1.
         -2    1    5    5    0  503  0.11253791955E+03 -0.97909976172E+02 -0.39753985505E+02  0.15437462918E+03  0.00000000000E+00 0.  1.
         -1    1    6    6    0  502 -0.14108996405E+03  0.22809633129E+02  0.16670233357E+03  0.21958216079E+03  0.00000000000E+00 0.  1.
<mgrwt>
<rscale>  0 0.13010250E+04</rscale>
<asrwt>0</asrwt>
<pdfrwt beam="1">  1        2 0.16162353E+00 0.13010250E+04</pdfrwt>
<pdfrwt beam="2">  1       -2 0.61969791E-01 0.13010250E+04</pdfrwt>
<totfact> 0.55441675E+01</totfact>
</mgrwt>
</event>
<event>
12    1  0.1496989E-007  0.1218960E+04  0.7818608E-02  0.9096420E-01
         -2   -1    0    0    0  501 -0.00000000000E+00  0.00000000000E+00  0.33659999125E+03  0.33659999125E+03  0.00000000000E+00 0.  1.
          2   -1    0    0  501    0  0.00000000000E+00 -0.00000000000E+00 -0.11035833903E+04  0.11035833903E+04  0.00000000000E+00 0. -1.
         23    2    1    2    0    0 -0.83702334226E+02 -0.23451217515E+03 -0.66707793689E+02  0.27331139380E+03  0.90813805077E+02 0.  0.
        254    2    1    2    0    0  0.83702334226E+02  0.23451217515E+03 -0.70027560534E+03  0.11668719877E+04  0.89955670818E+03 0.  0.
        -24    2    4    4    0    0  0.32786713271E+03 -0.14487224911E+03 -0.48906916853E+02  0.37051563275E+03  0.80032008116E+02 0.  0.
         24    2    4    4    0    0 -0.24416479848E+03  0.37938442426E+03 -0.65136868848E+03  0.79635635497E+03  0.79707500091E+02 0.  0.
         13    1    3    3    0    0 -0.26065116942E+01 -0.63334738763E+02  0.17887059506E+02  0.65863722452E+02  0.00000000000E+00 0.  1.
        -13    1    3    3    0    0 -0.81095822532E+02 -0.17117743639E+03 -0.84594853195E+02  0.20744767135E+03  0.00000000000E+00 0. -1.
          4    1    6    6  502    0 -0.81864897637E+02  0.66103510425E+02 -0.14258725524E+03  0.17720795951E+03  0.00000000000E+00 0. -1.
          1    1    5    5  503    0  0.55538962153E+02 -0.16989077839E+01 -0.27774900496E+02  0.62120107069E+02  0.00000000000E+00 0. -1.
         -2    1    5    5    0  503  0.27232817056E+03 -0.14317334133E+03 -0.21132016357E+02  0.30839552568E+03  0.00000000000E+00 0.  1.
         -3    1    6    6    0  502 -0.16229990084E+03  0.31328091384E+03 -0.50878143324E+03  0.61914839546E+03  0.00000000000E+00 0.  1.
<mgrwt>
<rscale>  0 0.12189605E+04</rscale>
<asrwt>0</asrwt>
<pdfrwt beam="1">  1        2 0.16978206E+00 0.12189605E+04</pdfrwt>
<pdfrwt beam="2">  1       -2 0.51784615E-01 0.12189605E+04</pdfrwt>
<totfact> 0.75217035E+01</totfact>
</mgrwt>
</event>
<event>
12    1  0.1496989E-007  0.2553162E+04  0.7818608E-02  0.8384287E-01
         -1   -1    0    0    0  501 -0.00000000000E+00  0.00000000000E+00  0.10806144049E+04  0.10806144049E+04  0.00000000000E+00 0.  1.
          1   -1    0    0  501    0  0.00000000000E+00 -0.00000000000E+00 -0.15080854329E+04  0.15080854329E+04  0.00000000000E+00 0. -1.
         23    2    1    2    0    0  0.10793269987E+04 -0.14335292698E+03  0.47940219156E+02  0.10938246724E+04  0.93044706340E+02 0.  0.
        254    2    1    2    0    0 -0.10793269987E+04  0.14335292698E+03 -0.47541124720E+03  0.14948751655E+04  0.90727012211E+03 0.  0.
        -24    2    4    4    0    0 -0.72428927142E+03 -0.31129932497E+03 -0.93196986054E+02  0.79794994063E+03  0.80846837392E+02 0.  0.
         24    2    4    4    0    0 -0.35503772732E+03  0.45465225195E+03 -0.38221426114E+03  0.69692522484E+03  0.82804405497E+02 0.  0.
         11    1    3    3    0    0  0.32856237288E+03 -0.62597191049E+02 -0.23867157174E+02  0.33532265416E+03  0.00000000000E+00 0. -1.
        -11    1    3    3    0    0  0.75076462586E+03 -0.80755735930E+02  0.71807376330E+02  0.75850201821E+03  0.00000000000E+00 0.  1.
          2    1    6    6  502    0 -0.18399528987E+03  0.16909888625E+03 -0.16577840188E+03  0.29988527565E+03  0.00000000000E+00 0. -1.
          3    1    5    5  503    0 -0.55897234715E+02 -0.47827692327E+02 -0.66480667533E+00  0.73569225700E+02  0.00000000000E+00 0. -1.
         -4    1    5    5    0  503 -0.66839203671E+03 -0.26347163264E+03 -0.92532179379E+02  0.72438071493E+03  0.00000000000E+00 0.  1.
         -1    1    6    6    0  502 -0.17104243746E+03  0.28555336570E+03 -0.21643585927E+03  0.39703994919E+03  0.00000000000E+00 0.  1.
<mgrwt>
<rscale>  0 0.25531618E+04</rscale>
<asrwt>0</asrwt>
<pdfrwt beam="1">  1        1 0.23201314E+00 0.25531618E+04</pdfrwt>
<pdfrwt beam="2">  1       -1 0.16624837E+00 0.25531618E+04</pdfrwt>
<totfact> 0.14980283E+00</totfact>
</mgrwt>
</event>
<event>
12    1  0.1496989E-007  0.1143855E+04  0.7818608E-02  0.9163471E-01
         -2   -1    0    0    0  501 -0.00000000000E+00  0.00000000000E+00  0.10720012088E+03  0.10720012088E+03  0.00000000000E+00 0.  1.
          2   -1    0    0  501    0  0.00000000000E+00 -0.00000000000E+00 -0.30513128974E+04  0.30513128974E+04  0.00000000000E+00 0. -1.
         23    2    1    2    0    0  0.19355600280E+03 -0.51255201292E+02 -0.65119059511E+03  0.68773371912E+03  0.94007741020E+02 0.  0.
        254    2    1    2    0    0 -0.19355600280E+03  0.51255201292E+02 -0.22929221814E+04  0.24707792992E+04  0.89842484009E+03 0.  0.
        -24    2    4    4    0    0  0.31055794181E+03  0.14779376055E+03 -0.13373050903E+04  0.13831243106E+04  0.79741603715E+02 0.  0.
         24    2    4    4    0    0 -0.50411394461E+03 -0.96538559255E+02 -0.95561709116E+03  0.10876549885E+04  0.79616496987E+02 0.  0.
         11    1    3    3    0    0  0.78856524569E+02 -0.59262645437E+02 -0.39135588032E+03  0.40359613189E+03  0.00000000000E+00 0. -1.
        -11    1    3    3    0    0  0.11469947823E+03  0.80074441441E+01 -0.25983471479E+03  0.28413758723E+03  0.00000000000E+00 0.  1.
          2    1    6    6  502    0 -0.41635819524E+03 -0.80957973890E+02 -0.71871531826E+03  0.83454181979E+03  0.00000000000E+00 0. -1.
          1    1    5    5  503    0  0.14034541377E+03  0.52137736669E+02 -0.73034893564E+03  0.74553654943E+03  0.00000000000E+00 0. -1.
         -2    1    5    5    0  503  0.17021252804E+03  0.95656023879E+02 -0.60695615463E+03  0.63758776122E+03  0.00000000000E+00 0.  1.
         -1    1    6    6    0  502 -0.87755749372E+02 -0.15580585366E+02 -0.23690177290E+03  0.25311316874E+03  0.00000000000E+00 0.  1.
<mgrwt>
<rscale>  0 0.11438551E+04</rscale>
<asrwt>0</asrwt>
<pdfrwt beam="1">  1        2 0.46943280E+00 0.11438551E+04</pdfrwt>
<pdfrwt beam="2">  1       -2 0.16492325E-01 0.11438551E+04</pdfrwt>
<totfact> 0.48673601E+01</totfact>
</mgrwt>
</event>
<event>
12    1  0.1496989E-007  0.3293932E+04  0.7818608E-02  0.8164441E-01
          2   -1    0    0  501    0  0.00000000000E+00  0.00000000000E+00  0.24743135678E+04  0.24743135678E+04  0.00000000000E+00 0. -1.
         -2   -1    0    0    0  501 -0.00000000000E+00 -0.00000000000E+00 -0.10962624164E+04  0.10962624164E+04  0.00000000000E+00 0.  1.
         23    2    1    2    0    0  0.56002910274E+03 -0.12179220304E+04  0.14182486218E+04  0.19537696973E+04  0.93915965771E+02 0.  0.
        254    2    1    2    0    0 -0.56002910274E+03  0.12179220304E+04 -0.40197470381E+02  0.16168062869E+04  0.90303934838E+03 0.  0.
        -24    2    4    4    0    0 -0.49648635231E+02  0.68702432902E+02  0.28995701161E+03  0.31404161249E+03  0.85802415603E+02 0.  0.
         24    2    4    4    0    0 -0.51038046751E+03  0.11492195975E+04 -0.33015448199E+03  0.13027646744E+04  0.83665465156E+02 0.  0.
         13    1    3    3    0    0  0.63101540611E+02 -0.78847681078E+02  0.11137849859E+03  0.15034603815E+03  0.00000000000E+00 0.  1.
        -13    1    3    3    0    0  0.49692756213E+03 -0.11390743493E+04  0.13068701232E+04  0.18034236591E+04  0.00000000000E+00 0. -1.
          4    1    6    6  502    0 -0.39239712979E+03  0.95989571323E+03 -0.27947953233E+03  0.10740037694E+04  0.00000000000E+00 0. -1.
          1    1    5    5  503    0 -0.52580119151E+02  0.36919254204E+01  0.96853378809E+02  0.11026729447E+03  0.00000000000E+00 0. -1.
         -2    1    5    5    0  503  0.29314839201E+01  0.65010507481E+02  0.19310363280E+03  0.20377431801E+03  0.00000000000E+00 0.  1.
         -3    1    6    6    0  502 -0.11798333772E+03  0.18932388428E+03 -0.50674949664E+02  0.22876090502E+03  0.00000000000E+00 0.  1.
<mgrwt>
<rscale>  0 0.32939320E+04</rscale>
<asrwt>0</asrwt>
<pdfrwt beam="1">  1        2 0.38066363E+00 0.32939320E+04</pdfrwt>
<pdfrwt beam="2">  1       -2 0.16865576E+00 0.32939320E+04</pdfrwt>
<totfact> 0.65582387E-01</totfact>
</mgrwt>
</event>
<event>
12    1  0.1496989E-007  0.1557449E+04  0.7818608E-02  0.8847124E-01
         -2   -1    0    0    0  501 -0.00000000000E+00  0.00000000000E+00  0.14721258171E+03  0.14721258171E+03  0.00000000000E+00 0.  1.
          2   -1    0    0  501    0  0.00000000000E+00 -0.00000000000E+00 -0.41192939964E+04  0.41192939964E+04  0.00000000000E+00 0. -1.
         23    2    1    2    0    0  0.44241399634E+03  0.25361301111E+03 -0.15928561751E+04  0.16747805993E+04  0.87461748490E+02 0.  0.
        254    2    1    2    0    0 -0.44241399634E+03 -0.25361301111E+03 -0.23792252396E+04  0.25917259788E+04  0.89234584400E+03 0.  0.
        -24    2    4    4    0    0 -0.76146492034E+02  0.29913606720E+03 -0.11460454833E+04  0.11895214485E+04  0.79122385009E+02 0.  0.
         24    2    4    4    0    0 -0.36626750430E+03 -0.55274907831E+03 -0.12331797563E+04  0.14022045303E+04  0.75906556202E+02 0.  0.
         13    1    3    3    0    0  0.15079829116E+03  0.62875660070E+02 -0.40026600001E+03  0.43232666354E+03  0.00000000000E+00 0.  1.
        -13    1    3    3    0    0  0.29161570518E+03  0.19073735104E+03 -0.11925901751E+04  0.12424539357E+04  0.00000000000E+00 0. -1.
          2    1    6    6  502    0 -0.29524002183E+03 -0.38524542569E+03 -0.90818293125E+03  0.10297460586E+04  0.00000000000E+00 0. -1.
          3    1    5    5  503    0 -0.58218294905E+02  0.22293580783E+03 -0.70838901520E+03  0.74491928498E+03  0.00000000000E+00 0. -1.
         -4    1    5    5    0  503 -0.17928197129E+02  0.76200259364E+02 -0.43765646808E+03  0.44460216355E+03  0.00000000000E+00 0.  1.
         -1    1    6    6    0  502 -0.71027482468E+02 -0.16750365261E+03 -0.32499682502E+03  0.37245847175E+03  0.00000000000E+00 0.  1.
<mgrwt>
<rscale>  0 0.15574491E+04</rscale>
<asrwt>0</asrwt>
<pdfrwt beam="1">  1        2 0.63373761E+00 0.15574491E+04</pdfrwt>
<pdfrwt beam="2">  1       -2 0.22648087E-01 0.15574491E+04</pdfrwt>
<totfact> 0.46055748E+00</totfact>
</mgrwt>
</event>
<event>
12    1  0.1496989E-007  0.2052390E+04  0.7818608E-02  0.8582511E-01
         -1   -1    0    0    0  501 -0.00000000000E+00  0.00000000000E+00  0.75731627851E+03  0.75731627851E+03  0.00000000000E+00 0.  1.
          1   -1    0    0  501    0  0.00000000000E+00 -0.00000000000E+00 -0.13905367954E+04  0.13905367954E+04  0.00000000000E+00 0. -1.
         23    2    1    2    0    0 -0.67342280090E+02  0.48157349728E+03  0.45448109375E+03  0.67166549893E+03  0.90185707891E+02 0.  0.
        254    2    1    2    0    0  0.67342280090E+02 -0.48157349728E+03 -0.10877016107E+04  0.14761875750E+04  0.87154285427E+03 0.  0.
        -24    2    4    4    0    0 -0.91577878987E+02 -0.49231161157E+03 -0.11713411989E+04  0.12763808484E+04  0.79690872490E+02 0.  0.
         24    2    4    4    0    0  0.15892015908E+03  0.10738114291E+02  0.83639588250E+02  0.19980672659E+03  0.86926539146E+02 0.  0.
         13    1    3    3    0    0 -0.21554423270E+02  0.80713863899E+02  0.37922771334E+02  0.91746703339E+02  0.00000000000E+00 0. -1.
        -13    1    3    3    0    0 -0.45787856820E+02  0.40085963338E+03  0.41655832241E+03  0.57991879559E+03  0.00000000000E+00 0.  1.
          2    1    6    6  502    0  0.12600180971E+03 -0.27410282198E+02  0.45981750116E+02  0.13690179313E+03  0.00000000000E+00 0. -1.
          1    1    5    5  503    0 -0.96581886992E+00 -0.22124122904E+03 -0.51207602658E+03  0.55782656017E+03  0.00000000000E+00 0. -1.
         -2    1    5    5    0  503 -0.90612060117E+02 -0.27107038253E+03 -0.65926517234E+03  0.71855428827E+03  0.00000000000E+00 0.  1.
         -1    1    6    6    0  502  0.32918349368E+02  0.38148396489E+02  0.37657838135E+02  0.62904933453E+02  0.00000000000E+00 0.  1.
<mgrwt>
<rscale>  0 0.20523900E+04</rscale>
<asrwt>0</asrwt>
<pdfrwt beam="1">  1        1 0.21392874E+00 0.20523900E+04</pdfrwt>
<pdfrwt beam="2">  1       -1 0.11651020E+00 0.20523900E+04</pdfrwt>
<totfact> 0.47923928E+00</totfact>
</mgrwt>
</event>
<event>
12    1  0.1496989E-007  0.1238897E+04  0.7818608E-02  0.9079475E-01
          2   -1    0    0  501    0  0.00000000000E+00  0.00000000000E+00  0.15039232970E+04  0.15039232970E+04  0.00000000000E+00 0. -1.
         -2   -1    0    0    0  501 -0.00000000000E+00 -0.00000000000E+00 -0.25514351717E+03  0.25514351717E+03  0.00000000000E+00 0.  1.
         23    2    1    2    0    0 -0.16464723422E+03  0.22436343856E+03  0.25638673256E+03  0.38905001079E+03  0.90432792553E+02 0.  0.
        254    2    1    2    0    0  0.16464723422E+03 -0.22436343856E+03  0.99239304723E+03  0.13700168033E+04  0.90258208321E+03 0.  0.
        -24    2    4    4    0    0 -0.79405052702E+02 -0.69632361602E+02 -0.14375131306E+03  0.19497116911E+03  0.78711426109E+02 0.  0.
         24    2    4    4    0    0  0.24405228692E+03 -0.15473107696E+03  0.11361443603E+04  0.11750456342E+04  0.80031307381E+02 0.  0.
         13    1    3    3    0    0 -0.21538806880E+02  0.53287416705E+02  0.13009856406E+02  0.58929834079E+02  0.00000000000E+00 0.  1.
        -13    1    3    3    0    0 -0.14310842734E+03  0.17107602186E+03  0.24337687615E+03  0.33012017671E+03  0.00000000000E+00 0. -1.
          2    1    6    6  502    0 -0.17604409345E+00  0.37999996797E+01  0.23744175960E+01  0.44842890193E+01  0.00000000000E+00 0. -1.
          1    1    5    5  503    0  0.59394062579E+01 -0.39542743310E+01 -0.54889389586E+02  0.55351223305E+02  0.00000000000E+00 0. -1.
         -4    1    5    5    0  503 -0.85344458960E+02 -0.65678087272E+02 -0.88861923475E+02  0.13961994580E+03  0.00000000000E+00 0.  1.
         -1    1    6    6    0  502  0.24422833101E+03 -0.15853107664E+03  0.11337699427E+04  0.11705613452E+04  0.00000000000E+00 0.  1.
<mgrwt>
<rscale>  0 0.12388967E+04</rscale>
<asrwt>0</asrwt>
<pdfrwt beam="1">  1        2 0.23137281E+00 0.12388967E+04</pdfrwt>
<pdfrwt beam="2">  1       -2 0.39252850E-01 0.12388967E+04</pdfrwt>
<totfact> 0.76240761E+01</totfact>
</mgrwt>
</event>
<event>
12    1  0.1496989E-007  0.1723554E+04  0.7818608E-02  0.8748043E-01
         -2   -1    0    0    0  501 -0.00000000000E+00  0.00000000000E+00  0.55815487098E+03  0.55815487098E+03  0.00000000000E+00 0.  1.
          2   -1    0    0  501    0  0.00000000000E+00 -0.00000000000E+00 -0.13305622607E+04  0.13305622607E+04  0.00000000000E+00 0. -1.
         23    2    1    2    0    0 -0.17777442431E+03  0.37760285860E+03 -0.78196808263E+03  0.89106065509E+03  0.91254282193E+02 0.  0.
        254    2    1    2    0    0  0.17777442431E+03 -0.37760285860E+03  0.95606928743E+01  0.99765647664E+03  0.90611223023E+03 0.  0.
        -24    2    4    4    0    0 -0.17136378751E+03  0.21246821866E+03 -0.94759492101E+02  0.29949894995E+03  0.78816039367E+02 0.  0.
         24    2    4    4    0    0  0.34913821183E+03 -0.59007107727E+03  0.10432018498E+03  0.69815752669E+03  0.80373278524E+02 0.  0.
         11    1    3    3    0    0 -0.11962688664E+02  0.11162349150E+03 -0.24071298731E+03  0.26560431479E+03  0.00000000000E+00 0.  1.
        -11    1    3    3    0    0 -0.16581173565E+03  0.26597936710E+03 -0.54125509532E+03  0.62545634029E+03  0.00000000000E+00 0. -1.
          4    1    6    6  502    0  0.21871938331E+03 -0.40972184282E+03  0.10232368685E+03  0.47558416080E+03  0.00000000000E+00 0. -1.
          3    1    5    5  503    0 -0.54608873702E+01  0.45412800928E+02 -0.32053277993E+02  0.55852989259E+02  0.00000000000E+00 0. -1.
         -4    1    5    5    0  503 -0.16590290014E+03  0.16705541774E+03 -0.62706214108E+02  0.24364596069E+03  0.00000000000E+00 0.  1.
         -3    1    6    6    0  502  0.13041882852E+03 -0.18034923445E+03  0.19964981237E+01  0.22257336589E+03  0.00000000000E+00 0.  1.
<mgrwt>
<rscale>  0 0.17235542E+04</rscale>
<asrwt>0</asrwt>
<pdfrwt beam="1">  1        2 0.20470189E+00 0.17235542E+04</pdfrwt>
<pdfrwt beam="2">  1       -2 0.85869980E-01 0.17235542E+04</pdfrwt>
<totfact> 0.17744041E+01</totfact>
</mgrwt>
</event>
<event>
12    1  0.1496989E-007  0.2284799E+04  0.7818608E-02  0.8483939E-01
         -2   -1    0    0    0  501 -0.00000000000E+00  0.00000000000E+00  0.17141399067E+04  0.17141399067E+04  0.00000000000E+00 0. -1.
          2   -1    0    0  501    0  0.00000000000E+00 -0.00000000000E+00 -0.76135967742E+03  0.76135967742E+03  0.00000000000E+00 0.  1.
         23    2    1    2    0    0 -0.22641384129E+02 -0.12800478072E+02  0.14460220907E+04  0.14491492890E+04  0.91527539935E+02 0.  0.
        254    2    1    2    0    0  0.22641384129E+02  0.12800478072E+02 -0.49324186140E+03  0.10263502951E+04  0.89968378331E+03 0.  0.
        -24    2    4    4    0    0  0.62316734120E+02  0.39034557364E+03 -0.50952218267E+01  0.40338262590E+03  0.80240509614E+02 0.  0.
         24    2    4    4    0    0 -0.39675349991E+02 -0.37754509557E+03 -0.48814663957E+03  0.62296766922E+03  0.75413146020E+02 0.  0.
         11    1    3    3    0    0  0.24670928836E+02 -0.21223092657E+01  0.13640491675E+03  0.13863426791E+03  0.00000000000E+00 0.  1.
        -11    1    3    3    0    0 -0.47312312965E+02 -0.10678168806E+02  0.13096171740E+04  0.13105150211E+04  0.00000000000E+00 0. -1.
          2    1    6    6  502    0 -0.50709407907E+02 -0.16392393893E+03 -0.18983046974E+03  0.25588690675E+03  0.00000000000E+00 0. -1.
          3    1    5    5  503    0  0.41368655513E+02  0.15088469969E+03 -0.37358949163E+02  0.16085163767E+03  0.00000000000E+00 0. -1.
         -4    1    5    5    0  503  0.20948078607E+02  0.23946087395E+03  0.32263727336E+02  0.24253098823E+03  0.00000000000E+00 0.  1.
         -1    1    6    6    0  502  0.11034057916E+02 -0.21362115664E+03 -0.29831616983E+03  0.36708076247E+03  0.00000000000E+00 0.  1.
<mgrwt>
<rscale>  0 0.22847993E+04</rscale>
<asrwt>0</asrwt>
<pdfrwt beam="1">  1        2 0.11713226E+00 0.22847993E+04</pdfrwt>
<pdfrwt beam="2">  1       -2 0.26371383E+00 0.22847993E+04</pdfrwt>
<totfact> 0.17673393E+00</totfact>
</mgrwt>
</event>
<event>
12    1  0.1496989E-007  0.1403417E+04  0.7818608E-02  0.8951349E-01
          2   -1    0    0  501    0  0.00000000000E+00  0.00000000000E+00  0.15236184360E+04  0.15236184360E+04  0.00000000000E+00 0. -1.
         -2   -1    0    0    0  501 -0.00000000000E+00 -0.00000000000E+00 -0.32317458576E+03  0.32317458576E+03  0.00000000000E+00 0.  1.
         23    2    1    2    0    0  0.18293922047E+03 -0.50060245966E+02  0.70029036958E+03  0.73134106887E+03  0.92088928126E+02 0.  0.
        254    2    1    2    0    0 -0.18293922047E+03  0.50060245966E+02  0.50015348063E+03  0.11154519529E+04  0.97882928457E+03 0.  0.
        -24    2    4    4    0    0 -0.10053893176E+02 -0.22895048650E+02  0.77201122088E+03  0.77648515800E+03  0.79388987986E+02 0.  0.
         24    2    4    4    0    0 -0.17288532729E+03  0.72955294616E+02 -0.27185774025E+03  0.33896679485E+03  0.76026611625E+02 0.  0.
         11    1    3    3    0    0  0.16738652362E+03 -0.23684874779E+02  0.47930573263E+03  0.50824522321E+03  0.00000000000E+00 0. -1.
        -11    1    3    3    0    0  0.15552696843E+02 -0.26375371187E+02  0.22098463695E+03  0.22309584566E+03  0.00000000000E+00 0.  1.
          4    1    6    6  502    0  0.19389553860E+01  0.16115398797E+02 -0.10142123583E+02  0.19139704729E+02  0.00000000000E+00 0. -1.
          1    1    5    5  503    0  0.17301281991E+02  0.25033780669E+01  0.41640678488E+02  0.45161348133E+02  0.00000000000E+00 0. -1.
         -2    1    5    5    0  503 -0.27355175167E+02 -0.25398426717E+02  0.73037054239E+03  0.73132380987E+03  0.00000000000E+00 0.  1.
         -3    1    6    6    0  502 -0.17482428268E+03  0.56839895819E+02 -0.26171561667E+03  0.31982709013E+03  0.00000000000E+00 0.  1.
<mgrwt>
<rscale>  0 0.14034169E+04</rscale>
<asrwt>0</asrwt>
<pdfrwt beam="1">  1        2 0.23440283E+00 0.14034169E+04</pdfrwt>
<pdfrwt beam="2">  1       -2 0.49719168E-01 0.14034169E+04</pdfrwt>
<totfact> 0.45843705E+01</totfact>
</mgrwt>
</event>
<event>
12    1  0.1496989E-007  0.1588743E+04  0.7818608E-02  0.8827494E-01
         -2   -1    0    0    0  501 -0.00000000000E+00  0.00000000000E+00  0.22138955022E+03  0.22138955022E+03  0.00000000000E+00 0.  1.
          2   -1    0    0  501    0  0.00000000000E+00 -0.00000000000E+00 -0.28502961158E+04  0.28502961158E+04  0.00000000000E+00 0. -1.
         23    2    1    2    0    0 -0.46545411950E+03 -0.22154708046E+01 -0.14070868495E+04  0.14848142127E+04  0.90152085123E+02 0.  0.
        254    2    1    2    0    0  0.46545411950E+03  0.22154708046E+01 -0.12218197161E+04  0.15868714533E+04  0.89925810819E+03 0.  0.
        -24    2    4    4    0    0 -0.28002506388E+02 -0.24110916174E+03 -0.91815416595E+03  0.95320813243E+03  0.81736791294E+02 0.  0.
         24    2    4    4    0    0  0.49345662589E+03  0.24332463254E+03 -0.30366555011E+03  0.63366332089E+03  0.81302641290E+02 0.  0.
         11    1    3    3    0    0 -0.40350381324E+03 -0.18123656772E+02 -0.12850404896E+04  0.13470237022E+04  0.00000000000E+00 0. -1.
        -11    1    3    3    0    0 -0.61950306260E+02  0.15908185967E+02 -0.12204635990E+03  0.13779051053E+03  0.00000000000E+00 0.  1.
          4    1    6    6  502    0  0.26590993910E+03  0.17257739575E+03 -0.15577289296E+03  0.35320850417E+03  0.00000000000E+00 0. -1.
          3    1    5    5  503    0 -0.38498822268E+02 -0.24032573405E+03 -0.84687378270E+03  0.88115482271E+03  0.00000000000E+00 0. -1.
         -4    1    5    5    0  503  0.10496315880E+02 -0.78342768991E+00 -0.71280383243E+02  0.72053309718E+02  0.00000000000E+00 0.  1.
         -3    1    6    6    0  502  0.22754668679E+03  0.70747236789E+02 -0.14789265715E+03  0.28045481672E+03  0.00000000000E+00 0.  1.
<mgrwt>
<rscale>  0 0.15887426E+04</rscale>
<asrwt>0</asrwt>
<pdfrwt beam="1">  1        2 0.43850706E+00 0.15887426E+04</pdfrwt>
<pdfrwt beam="2">  1       -2 0.34059933E-01 0.15887426E+04</pdfrwt>
<totfact> 0.16771471E+01</totfact>
</mgrwt>
</event>
<event>
12    1  0.1496989E-007  0.1958096E+04  0.7818608E-02  0.8626466E-01
         -2   -1    0    0    0  501 -0.00000000000E+00  0.00000000000E+00  0.40260706205E+03  0.40260706205E+03  0.00000000000E+00 0.  1.
          2   -1    0    0  501    0  0.00000000000E+00 -0.00000000000E+00 -0.23808209517E+04  0.23808209517E+04  0.00000000000E+00 0. -1.
         23    2    1    2    0    0 -0.41096982642E+03 -0.41260180355E+03 -0.15260313235E+04  0.16358301272E+04  0.89622309631E+02 0.  0.
        254    2    1    2    0    0  0.41096982642E+03  0.41260180355E+03 -0.45218256621E+03  0.11475978866E+04  0.87941764227E+03 0.  0.
        -24    2    4    4    0    0  0.60199635767E+03  0.47136486840E+02 -0.38941811236E+03  0.72291203682E+03  0.79585700399E+02 0.  0.
         24    2    4    4    0    0 -0.19102653125E+03  0.36546531671E+03 -0.62764453849E+02  0.42468584974E+03  0.79766289535E+02 0.  0.
         11    1    3    3    0    0 -0.28818549874E+03 -0.33727586957E+03 -0.10991750880E+04  0.11853234866E+04  0.00000000000E+00 0. -1.
        -11    1    3    3    0    0 -0.12278432769E+03 -0.75325933976E+02 -0.42685623547E+03  0.45050664059E+03  0.00000000000E+00 0.  1.
          2    1    6    6  502    0 -0.54247153666E+02  0.18822702441E+03 -0.36668730868E+02  0.19929064760E+03  0.00000000000E+00 0. -1.
          3    1    5    5  503    0  0.19801679583E+03 -0.10186874003E+02 -0.16020533217E+03  0.25491208737E+03  0.00000000000E+00 0. -1.
         -4    1    5    5    0  503  0.40397956184E+03  0.57323360842E+02 -0.22921278019E+03  0.46799994945E+03  0.00000000000E+00 0.  1.
         -1    1    6    6    0  502 -0.13677937758E+03  0.17723829230E+03 -0.26095722981E+02  0.22539520214E+03  0.00000000000E+00 0.  1.
<mgrwt>
<rscale>  0 0.19580963E+04</rscale>
<asrwt>0</asrwt>
<pdfrwt beam="1">  1        2 0.36628014E+00 0.19580963E+04</pdfrwt>
<pdfrwt beam="2">  1       -2 0.61939549E-01 0.19580963E+04</pdfrwt>
<totfact> 0.92044003E+00</totfact>
</mgrwt>
</event>
<event>
12    1  0.1496989E-007  0.2644741E+04  0.7818608E-02  0.8353161E-01
          2   -1    0    0  501    0  0.00000000000E+00  0.00000000000E+00  0.18992568519E+04  0.18992568519E+04  0.00000000000E+00 0. -1.
         -2   -1    0    0    0  501 -0.00000000000E+00 -0.00000000000E+00 -0.92070937191E+03  0.92070937191E+03  0.00000000000E+00 0.  1.
         23    2    1    2    0    0 -0.89464486145E+03  0.32903651938E+03 -0.28801863373E+03  0.99993246805E+03  0.90861147269E+02 0.  0.
        254    2    1    2    0    0  0.89464486145E+03 -0.32903651938E+03  0.12665661137E+04  0.18200337557E+04  0.89424755657E+03 0.  0.
        -24    2    4    4    0    0 -0.12707291816E+03  0.94767731449E+02  0.30173191371E+03  0.35005885804E+03  0.79816081665E+02 0.  0.
         24    2    4    4    0    0  0.10217177796E+04 -0.42380425083E+03  0.96483420000E+03  0.14699748977E+04  0.80024384914E+02 0.  0.
         11    1    3    3    0    0 -0.96748397679E+02  0.83506152625E+01 -0.39277768148E+02  0.10475079140E+03  0.00000000000E+00 0. -1.
        -11    1    3    3    0    0 -0.79789646377E+03  0.32068590411E+03 -0.24874086558E+03  0.89518167665E+03  0.00000000000E+00 0.  1.
          2    1    6    6  502    0  0.86092491969E+03 -0.38727527326E+03  0.81399993389E+03  0.12465030072E+04  0.00000000000E+00 0. -1.
          1    1    5    5  503    0 -0.77294419761E+02  0.83019088650E+02  0.26131123797E+03  0.28486867061E+03  0.00000000000E+00 0. -1.
         -2    1    5    5    0  503 -0.49778498397E+02  0.11748642799E+02  0.40420675733E+02  0.65190187429E+02  0.00000000000E+00 0.  1.
         -1    1    6    6    0  502  0.16079285992E+03 -0.36528977571E+02  0.15083426611E+03  0.22347189048E+03  0.00000000000E+00 0.  1.
<mgrwt>
<rscale>  0 0.26447409E+04</rscale>
<asrwt>0</asrwt>
<pdfrwt beam="1">  1        2 0.29219336E+00 0.26447409E+04</pdfrwt>
<pdfrwt beam="2">  1       -2 0.14164760E+00 0.26447409E+04</pdfrwt>
<totfact> 0.23338203E+00</totfact>
</mgrwt>
</event>
<event>
12    1  0.1496989E-007  0.1144583E+04  0.7818608E-02  0.9162796E-01
          2   -1    0    0  501    0  0.00000000000E+00  0.00000000000E+00  0.17622841403E+04  0.17622841403E+04  0.00000000000E+00 0. -1.
         -2   -1    0    0    0  501 -0.00000000000E+00 -0.00000000000E+00 -0.18584833882E+03  0.18584833882E+03  0.00000000000E+00 0.  1.
         23    2    1    2    0    0 -0.54356337626E+02  0.24834601241E+02 -0.22303523989E+02  0.11212477582E+03  0.92212522531E+02 0.  0.
        254    2    1    2    0    0  0.54356337626E+02 -0.24834601241E+02  0.15987393255E+04  0.18360077033E+04  0.90076938608E+03 0.  0.
        -24    2    4    4    0    0 -0.95670329723E+02 -0.43790323046E+03  0.85447675409E+03  0.96816902380E+03  0.79427225361E+02 0.  0.
         24    2    4    4    0    0  0.15002666735E+03  0.41306862922E+03  0.74426257142E+03  0.86783867953E+03  0.77996827568E+02 0.  0.
         13    1    3    3    0    0  0.58504918724E+01  0.23346424145E+02 -0.42298848569E+02  0.48666994624E+02  0.00000000000E+00 0.  1.
        -13    1    3    3    0    0 -0.60206829498E+02  0.14881770952E+01  0.19995324580E+02  0.63457781196E+02  0.00000000000E+00 0. -1.
          4    1    6    6  502    0  0.13158090784E+03  0.38595332061E+03  0.71845984254E+03  0.82611019019E+03  0.00000000000E+00 0. -1.
          3    1    5    5  503    0 -0.74282334040E+02 -0.42014391048E+03  0.81439589109E+03  0.91939079726E+03  0.00000000000E+00 0. -1.
         -4    1    5    5    0  503 -0.21387995683E+02 -0.17759319980E+02  0.40080863006E+02  0.48778226544E+02  0.00000000000E+00 0.  1.
         -3    1    6    6    0  502  0.18445759504E+02  0.27115308615E+02  0.25802728885E+02  0.41728489343E+02  0.00000000000E+00 0.  1.
<mgrwt>
<rscale>  0 0.11445830E+04</rscale>
<asrwt>0</asrwt>
<pdfrwt beam="1">  1        2 0.27112063E+00 0.11445830E+04</pdfrwt>
<pdfrwt beam="2">  1       -2 0.28592053E-01 0.11445830E+04</pdfrwt>
<totfact> 0.10056941E+02</totfact>
</mgrwt>
</event>
<event>
12    1  0.1496989E-007  0.1527020E+04  0.7818608E-02  0.8866681E-01
          2   -1    0    0  501    0  0.00000000000E+00  0.00000000000E+00  0.31609073789E+04  0.31609073789E+04  0.00000000000E+00 0. -1.
         -2   -1    0    0    0  501 -0.00000000000E+00 -0.00000000000E+00 -0.18442414147E+03  0.18442414147E+03  0.00000000000E+00 0.  1.
         23    2    1    2    0    0 -0.23622179027E+03  0.21144363394E+03  0.30744845472E+03  0.45154679521E+03  0.94131883170E+02 0.  0.
        254    2    1    2    0    0  0.23622179027E+03 -0.21144363394E+03  0.26690347827E+04  0.28937847251E+04  0.10722566016E+04 0.  0.
        -24    2    4    4    0    0  0.45138925058E+03 -0.89563897364E+02  0.41586295394E+03  0.62558746817E+03  0.81509119844E+02 0.  0.
         24    2    4    4    0    0 -0.21516746031E+03 -0.12187973657E+03  0.22531718287E+04  0.22681972569E+04  0.82363829966E+02 0.  0.
         11    1    3    3    0    0 -0.48567475294E+02  0.75966616608E+02  0.42305532327E+02  0.99596609183E+02  0.00000000000E+00 0. -1.
        -11    1    3    3    0    0 -0.18765431497E+03  0.13547701733E+03  0.26514292239E+03  0.35195018603E+03  0.00000000000E+00 0.  1.
          2    1    6    6  502    0 -0.30436164238E+02  0.11401326979E+02  0.24468932146E+03  0.24683843783E+03  0.00000000000E+00 0. -1.
          3    1    5    5  503    0  0.15971027332E+03 -0.24359908702E+02  0.19898634923E+03  0.25631298004E+03  0.00000000000E+00 0. -1.
         -4    1    5    5    0  503  0.29167897726E+03 -0.65203988662E+02  0.21687660471E+03  0.36927448813E+03  0.00000000000E+00 0.  1.
         -1    1    6    6    0  502 -0.18473129607E+03 -0.13328106355E+03  0.20084825073E+04  0.20213588191E+04  0.00000000000E+00 0.  1.
<mgrwt>
<rscale>  0 0.15270201E+04</rscale>
<asrwt>0</asrwt>
<pdfrwt beam="1">  1        2 0.48629340E+00 0.15270201E+04</pdfrwt>
<pdfrwt beam="2">  1       -2 0.28372947E-01 0.15270201E+04</pdfrwt>
<totfact> 0.15213792E+01</totfact>
</mgrwt>
</event>
<event>
12    1  0.1496989E-007  0.1226252E+04  0.7818608E-02  0.9090184E-01
         -2   -1    0    0    0  501 -0.00000000000E+00  0.00000000000E+00  0.46520098220E+03  0.46520098220E+03  0.00000000000E+00 0.  1.
          2   -1    0    0  501    0  0.00000000000E+00 -0.00000000000E+00 -0.80808811608E+03  0.80808811608E+03  0.00000000000E+00 0. -1.
         23    2    1    2    0    0  0.21306491719E+03 -0.13579182277E+03 -0.25992238547E+03  0.37425118696E+03  0.93103310383E+02 0.  0.
        254    2    1    2    0    0 -0.21306491719E+03  0.13579182277E+03 -0.82964748405E+02  0.89903791132E+03  0.85880727666E+03 0.  0.
        -24    2    4    4    0    0  0.17696238855E+03  0.12964429486E+03  0.27717345960E+03  0.36239138273E+03  0.79869001592E+02 0.  0.
         24    2    4    4    0    0 -0.39002730574E+03  0.61475279095E+01 -0.36013820800E+03  0.53664652859E+03  0.78299913557E+02 0.  0.
         13    1    3    3    0    0  0.10374589355E+02  0.10181333704E+01  0.67586828635E+01  0.12423706930E+02  0.00000000000E+00 0.  1.
        -13    1    3    3    0    0  0.20269032783E+03 -0.13680995614E+03 -0.26668106834E+03  0.36182748003E+03  0.00000000000E+00 0. -1.
          2    1    6    6  502    0 -0.39364774290E+03  0.73622032194E+01 -0.35853942308E+03  0.53250658722E+03  0.00000000000E+00 0. -1.
          3    1    5    5  503    0  0.37032108510E+02  0.32729856932E+02  0.12368427057E+03  0.13319316567E+03  0.00000000000E+00 0. -1.
         -4    1    5    5    0  503  0.13993028004E+03  0.96914437932E+02  0.15348918903E+03  0.22919821706E+03  0.00000000000E+00 0.  1.
         -1    1    6    6    0  502  0.36204371608E+01 -0.12146753099E+01 -0.15987849207E+01  0.41399413723E+01  0.00000000000E+00 0.  1.
<mgrwt>
<rscale>  0 0.12262518E+04</rscale>
<asrwt>0</asrwt>
<pdfrwt beam="1">  1        2 0.12432125E+00 0.12262518E+04</pdfrwt>
<pdfrwt beam="2">  1       -2 0.71569383E-01 0.12262518E+04</pdfrwt>
<totfact> 0.59307352E+01</totfact>
</mgrwt>
</event>
<event>
12    1  0.1496989E-007  0.2814848E+04  0.7818608E-02  0.8298673E-01
          2   -1    0    0  501    0  0.00000000000E+00  0.00000000000E+00  0.31352488168E+04  0.31352488168E+04  0.00000000000E+00 0. -1.
         -2   -1    0    0    0  501 -0.00000000000E+00 -0.00000000000E+00 -0.63179751229E+03  0.63179751229E+03  0.00000000000E+00 0.  1.
         23    2    1    2    0    0 -0.68757499851E+03 -0.12021380170E+03  0.25324784151E+04  0.26284718706E+04  0.90590918560E+02 0.  0.
        254    2    1    2    0    0  0.68757499851E+03  0.12021380170E+03 -0.29027110583E+02  0.11385744586E+04  0.89905421854E+03 0.  0.
        -24    2    4    4    0    0  0.48804407016E+03 -0.21391194913E+02 -0.43458205690E+03  0.65827186761E+03  0.76260670521E+02 0.  0.
         24    2    4    4    0    0  0.19953092835E+03  0.14160499661E+03  0.40555494632E+03  0.48030259096E+03  0.79694403665E+02 0.  0.
         11    1    3    3    0    0 -0.38300715664E+03 -0.91831465747E+02  0.12828885744E+04  0.13419875538E+04  0.00000000000E+00 0.  1.
        -11    1    3    3    0    0 -0.30456784187E+03 -0.28382335948E+02  0.12495898408E+04  0.12864843168E+04  0.00000000000E+00 0. -1.
          4    1    6    6  502    0  0.12872650554E+03  0.99025274878E+02  0.33237637547E+03  0.36993320109E+03  0.00000000000E+00 0. -1.
          3    1    5    5  503    0  0.29714381355E+03  0.14541620483E+02 -0.22896896966E+03  0.37541003413E+03  0.00000000000E+00 0. -1.
         -4    1    5    5    0  503  0.19090025661E+03 -0.35932815396E+02 -0.20561308723E+03  0.28286183348E+03  0.00000000000E+00 0.  1.
         -3    1    6    6    0  502  0.70804422806E+02  0.42579721731E+02  0.73178570840E+02  0.11036938988E+03  0.00000000000E+00 0.  1.
<mgrwt>
<rscale>  0 0.28148481E+04</rscale>
<asrwt>0</asrwt>
<pdfrwt beam="1">  1        2 0.48234596E+00 0.28148481E+04</pdfrwt>
<pdfrwt beam="2">  1       -2 0.97199619E-01 0.28148481E+04</pdfrwt>
<totfact> 0.10961083E+00</totfact>
</mgrwt>
</event>
<event>
12    1  0.1496989E-007  0.2139860E+04  0.7818608E-02  0.8543885E-01
          1   -1    0    0  501    0  0.00000000000E+00  0.00000000000E+00  0.83694441271E+03  0.83694441271E+03  0.00000000000E+00 0. -1.
         -1   -1    0    0    0  501 -0.00000000000E+00 -0.00000000000E+00 -0.13677727081E+04  0.13677727081E+04  0.00000000000E+00 0.  1.
         23    2    1    2    0    0 -0.40963167981E+03 -0.52173472192E+03 -0.81760954460E+03  0.10590857433E+04  0.11476938169E+03 0.  0.
        254    2    1    2    0    0  0.40963167981E+03  0.52173472192E+03  0.28678124918E+03  0.11456313776E+04  0.88894461881E+03 0.  0.
        -24    2    4    4    0    0  0.67495936831E+03  0.28761625768E+03  0.25660187330E+03  0.78129935342E+03  0.79315179736E+02 0.  0.
         24    2    4    4    0    0 -0.26532768850E+03  0.23411846425E+03  0.30179375883E+02  0.36433202418E+03  0.81343663094E+02 0.  0.
         11    1    3    3    0    0 -0.35440257389E+03 -0.49319281536E+03 -0.70554275598E+03  0.93093013595E+03  0.00000000000E+00 0. -1.
        -11    1    3    3    0    0 -0.55229105917E+02 -0.28541906559E+02 -0.11206678863E+03  0.12815560731E+03  0.00000000000E+00 0.  1.
          4    1    6    6  502    0 -0.20648516119E+03  0.21719066972E+03  0.99395104696E+01  0.29984446414E+03  0.00000000000E+00 0. -1.
          3    1    5    5  503    0  0.15059472754E+03  0.46955672863E+02  0.85926591444E+02  0.17963013749E+03  0.00000000000E+00 0. -1.
         -4    1    5    5    0  503  0.52436464077E+03  0.24066058481E+03  0.17067528185E+03  0.60166921593E+03  0.00000000000E+00 0.  1.
         -3    1    6    6    0  502 -0.58842527309E+02  0.16927794524E+02  0.20239865413E+02  0.64487560037E+02  0.00000000000E+00 0.  1.
<mgrwt>
<rscale>  0 0.21398596E+04</rscale>
<asrwt>0</asrwt>
<pdfrwt beam="1">  1        1 0.12876068E+00 0.21398596E+04</pdfrwt>
<pdfrwt beam="2">  1       -1 0.21042657E+00 0.21398596E+04</pdfrwt>
<totfact> 0.24044385E+00</totfact>
</mgrwt>
</event>
<event>
12    1  0.1496989E-007  0.2223329E+04  0.7818608E-02  0.8508781E-01
         -2   -1    0    0    0  501 -0.00000000000E+00  0.00000000000E+00  0.13484907265E+04  0.13484907265E+04  0.00000000000E+00 0.  1.
          2   -1    0    0  501    0  0.00000000000E+00 -0.00000000000E+00 -0.91643009256E+03  0.91643009256E+03  0.00000000000E+00 0. -1.
         23    2    1    2    0    0  0.61346102959E+03 -0.42215499840E+03 -0.38200920935E+03  0.84194764304E+03  0.91627070786E+02 0.  0.
        254    2    1    2    0    0 -0.61346102959E+03  0.42215499840E+03  0.81406984326E+03  0.14229731760E+04  0.89866215698E+03 0.  0.
        -24    2    4    4    0    0 -0.45919973592E+03 -0.19911643009E+03  0.47396218369E+03  0.69391707447E+03  0.79806042855E+02 0.  0.
         24    2    4    4    0    0 -0.15426129367E+03  0.62127142848E+03  0.34010765957E+03  0.72905610152E+03  0.77941288746E+02 0.  0.
         13    1    3    3    0    0  0.55500419735E+03 -0.38741051715E+03 -0.37447264610E+03  0.77352849369E+03  0.00000000000E+00 0. -1.
        -13    1    3    3    0    0  0.58456832236E+02 -0.34744481247E+02 -0.75365632519E+01  0.68419149351E+02  0.00000000000E+00 0.  1.
          4    1    6    6  502    0 -0.12412457948E+03  0.48909012477E+03  0.23064753144E+03  0.55481018838E+03  0.00000000000E+00 0. -1.
          1    1    5    5  503    0 -0.16260263859E+03 -0.10778609652E+03  0.20843015274E+03  0.28548308050E+03  0.00000000000E+00 0. -1.
         -2    1    5    5    0  503 -0.29659709733E+03 -0.91330333572E+02  0.26553203095E+03  0.40843399397E+03  0.00000000000E+00 0.  1.
         -3    1    6    6    0  502 -0.30136714188E+02  0.13218130372E+03  0.10946012813E+03  0.17424591313E+03  0.00000000000E+00 0.  1.
<mgrwt>
<rscale>  0 0.22233286E+04</rscale>
<asrwt>0</asrwt>
<pdfrwt beam="1">  1        2 0.14098925E+00 0.22233286E+04</pdfrwt>
<pdfrwt beam="2">  1       -2 0.20746011E+00 0.22233286E+04</pdfrwt>
<totfact> 0.30997291E+00</totfact>
</mgrwt>
</event>
<event>
12    1  0.1496989E-007  0.1665862E+04  0.7818608E-02  0.8781078E-01
          2   -1    0    0  501    0  0.00000000000E+00  0.00000000000E+00  0.79106987023E+03  0.79106987023E+03  0.00000000000E+00 0. -1.
         -2   -1    0    0    0  501 -0.00000000000E+00 -0.00000000000E+00 -0.87700726986E+03  0.87700726986E+03  0.00000000000E+00 0.  1.
         23    2    1    2    0    0 -0.17337258668E+03 -0.51528573242E+03 -0.13052344307E+03  0.56647338609E+03  0.90985098276E+02 0.  0.
        254    2    1    2    0    0  0.17337258668E+03  0.51528573242E+03  0.44586043444E+02  0.11016037540E+04  0.95706085268E+03 0.  0.
        -24    2    4    4    0    0  0.48278927089E+03  0.34778196971E+03 -0.23488442767E+03  0.64492892652E+03  0.82005166618E+02 0.  0.
         24    2    4    4    0    0 -0.30941668421E+03  0.16750376271E+03  0.27947047111E+03  0.45667482749E+03  0.81559541750E+02 0.  0.
         13    1    3    3    0    0 -0.16055481860E+03 -0.51289667763E+03 -0.12269976529E+03  0.55126770639E+03  0.00000000000E+00 0.  1.
        -13    1    3    3    0    0 -0.12817768076E+02 -0.23890547886E+01 -0.78236777776E+01  0.15205679702E+02  0.00000000000E+00 0. -1.
          2    1    6    6  502    0 -0.24995328959E+03  0.15222552065E+03  0.26210382777E+03  0.39287106364E+03  0.00000000000E+00 0. -1.
          3    1    5    5  503    0  0.32137258667E+03  0.19194035660E+03 -0.17172645202E+03  0.41183906356E+03  0.00000000000E+00 0. -1.
         -4    1    5    5    0  503  0.16141668422E+03  0.15584161312E+03 -0.63157975650E+02  0.23308986295E+03  0.00000000000E+00 0.  1.
         -1    1    6    6    0  502 -0.59463394623E+02  0.15278242053E+02  0.17366643340E+02  0.63803763848E+02  0.00000000000E+00 0.  1.
<mgrwt>
<rscale>  0 0.16658620E+04</rscale>
<asrwt>0</asrwt>
<pdfrwt beam="1">  1        2 0.12170306E+00 0.16658620E+04</pdfrwt>
<pdfrwt beam="2">  1       -2 0.13492420E+00 0.16658620E+04</pdfrwt>
<totfact> 0.13176056E+01</totfact>
</mgrwt>
</event>
<event>
12    1  0.1496989E-007  0.1320962E+04  0.7818608E-02  0.9013105E-01
          2   -1    0    0  501    0  0.00000000000E+00  0.00000000000E+00  0.21872913435E+04  0.21872913435E+04  0.00000000000E+00 0. -1.
         -2   -1    0    0    0  501 -0.00000000000E+00 -0.00000000000E+00 -0.19944092650E+03  0.19944092650E+03  0.00000000000E+00 0.  1.
         23    2    1    2    0    0  0.20257234247E+03 -0.89204847417E+02  0.93492965918E+02  0.25775068215E+03  0.93281406158E+02 0.  0.
        254    2    1    2    0    0 -0.20257234247E+03  0.89204847417E+02  0.18943574511E+04  0.21289815878E+04  0.94603350373E+03 0.  0.
        -24    2    4    4    0    0 -0.46993363414E+03 -0.66867534838E+02  0.48246422400E+03  0.68130923550E+03  0.78113118159E+02 0.  0.
         24    2    4    4    0    0  0.26736129167E+03  0.15607238225E+03  0.14118932271E+04  0.14476723523E+04  0.80449401943E+02 0.  0.
         13    1    3    3    0    0  0.12860210709E+03 -0.94803567212E+02  0.35688891659E+02  0.16370679672E+03  0.00000000000E+00 0.  1.
        -13    1    3    3    0    0  0.73970235380E+02  0.55987197952E+01  0.57804074260E+02  0.94043885429E+02  0.00000000000E+00 0. -1.
          4    1    6    6  502    0  0.12293519824E+03  0.81327253020E+02  0.85135187840E+03  0.86401805879E+03  0.00000000000E+00 0. -1.
          1    1    5    5  503    0 -0.10382906392E+03  0.13826666667E+02  0.12775390797E+03  0.16520506114E+03  0.00000000000E+00 0. -1.
         -2    1    5    5    0  503 -0.36610457022E+03 -0.80694201505E+02  0.35471031603E+03  0.51610417436E+03  0.00000000000E+00 0.  1.
         -3    1    6    6    0  502  0.14442609343E+03  0.74745129235E+02  0.56054134868E+03  0.58365429356E+03  0.00000000000E+00 0.  1.
<mgrwt>
<rscale>  0 0.13209624E+04</rscale>
<asrwt>0</asrwt>
<pdfrwt beam="1">  1        2 0.33650634E+00 0.13209624E+04</pdfrwt>
<pdfrwt beam="2">  1       -2 0.30683221E-01 0.13209624E+04</pdfrwt>
<totfact> 0.50609330E+01</totfact>
</mgrwt>
</event>
<event>
12    1  0.1496989E-007  0.1400371E+04  0.7818608E-02  0.8953550E-01
         -2   -1    0    0    0  501 -0.00000000000E+00  0.00000000000E+00  0.22762403845E+03  0.22762403845E+03  0.00000000000E+00 0. -1.
          2   -1    0    0  501    0  0.00000000000E+00 -0.00000000000E+00 -0.21538147538E+04  0.21538147538E+04  0.00000000000E+00 0.  1.
         23    2    1    2    0    0 -0.11327732230E+03  0.41316440677E+03 -0.89594574358E+03  0.99783390162E+03  0.97041954923E+02 0.  0.
        254    2    1    2    0    0  0.11327732230E+03 -0.41316440677E+03 -0.10302449718E+04  0.13836048906E+04  0.81818165022E+03 0.  0.
        -24    2    4    4    0    0  0.18292182474E+03 -0.46533603282E+03 -0.11241183906E+04  0.12329818676E+04  0.81265689585E+02 0.  0.
         24    2    4    4    0    0 -0.69644502443E+02  0.52171626056E+02  0.93873418855E+02  0.15062302302E+03  0.79390433995E+02 0.  0.
         11    1    3    3    0    0 -0.12431313536E+03  0.40758149862E+03 -0.85919850707E+03  0.95906126404E+03  0.00000000000E+00 0.  1.
        -11    1    3    3    0    0  0.11035813060E+02  0.55829081439E+01 -0.36747236517E+02  0.38772637580E+02  0.00000000000E+00 0. -1.
          2    1    6    6  502    0 -0.29643447475E+02  0.68413698887E+02  0.61751758681E+02  0.96811403635E+02  0.00000000000E+00 0. -1.
          1    1    5    5  503    0  0.11495215963E+03 -0.37939250882E+03 -0.85606703824E+03  0.94339994102E+03  0.00000000000E+00 0. -1.
         -2    1    5    5    0  503  0.67969665107E+02 -0.85943524005E+02 -0.26805135240E+03  0.28958192660E+03  0.00000000000E+00 0.  1.
         -1    1    6    6    0  502 -0.40001054968E+02 -0.16242072831E+02  0.32121660174E+02  0.53811619384E+02  0.00000000000E+00 0.  1.
<mgrwt>
<rscale>  0 0.14003714E+04</rscale>
<asrwt>0</asrwt>
<pdfrwt beam="1">  1        2 0.33135611E+00 0.14003714E+04</pdfrwt>
<pdfrwt beam="2">  1       -2 0.35019084E-01 0.14003714E+04</pdfrwt>
<totfact> 0.40883598E+01</totfact>
</mgrwt>
</event>
<event>
12    1  0.1496989E-007  0.1805578E+04  0.7818608E-02  0.8703339E-01
          2   -1    0    0  501    0  0.00000000000E+00  0.00000000000E+00  0.24161409740E+04  0.24161409740E+04  0.00000000000E+00 0. -1.
         -2   -1    0    0    0  501 -0.00000000000E+00 -0.00000000000E+00 -0.33732634552E+03  0.33732634552E+03  0.00000000000E+00 0.  1.
         23    2    1    2    0    0 -0.26651439534E+03 -0.72814769830E+02 -0.15492105880E+03  0.32944605135E+03  0.90566288764E+02 0.  0.
        254    2    1    2    0    0  0.26651439534E+03  0.72814769830E+02  0.22337356872E+04  0.24240212681E+04  0.89998448556E+03 0.  0.
        -24    2    4    4    0    0 -0.23012183215E+02 -0.12029002428E+03 -0.14883511700E+02  0.14700893430E+03  0.79942837864E+02 0.  0.
         24    2    4    4    0    0  0.28952657855E+03  0.19310479411E+03  0.22486191989E+04  0.22770123338E+04  0.85917200645E+02 0.  0.
         13    1    3    3    0    0  0.40892625974E+01  0.15951710298E+01  0.48217721843E+01  0.65204391111E+01  0.00000000000E+00 0. -1.
        -13    1    3    3    0    0 -0.27060365793E+03 -0.74409940860E+02 -0.15974283099E+03  0.32292561224E+03  0.00000000000E+00 0.  1.
          2    1    6    6  502    0  0.69179636945E+02  0.76163128677E+02  0.86359304718E+03  0.86970086551E+03  0.00000000000E+00 0. -1.
          3    1    5    5  503    0  0.45319006083E+01 -0.84138468392E+01 -0.29369144951E+02  0.30884909210E+02  0.00000000000E+00 0. -1.
         -4    1    5    5    0  503 -0.27544083823E+02 -0.11187617744E+03  0.14485633251E+02  0.11612402509E+03  0.00000000000E+00 0.  1.
         -1    1    6    6    0  502  0.22034694161E+03  0.11694166543E+03  0.13850261518E+04  0.14073114683E+04  0.00000000000E+00 0.  1.
<mgrwt>
<rscale>  0 0.18055780E+04</rscale>
<asrwt>0</asrwt>
<pdfrwt beam="1">  1        2 0.37171398E+00 0.18055780E+04</pdfrwt>
<pdfrwt beam="2">  1       -2 0.51896362E-01 0.18055780E+04</pdfrwt>
<totfact> 0.12886616E+01</totfact>
</mgrwt>
</event>
<event>
12    1  0.1496989E-007  0.2294181E+04  0.7818608E-02  0.8480219E-01
         -1   -1    0    0    0  501 -0.00000000000E+00  0.00000000000E+00  0.17175262093E+04  0.17175262093E+04  0.00000000000E+00 0.  1.
          1   -1    0    0  501    0  0.00000000000E+00 -0.00000000000E+00 -0.76611121308E+03  0.76611121308E+03  0.00000000000E+00 0. -1.
         23    2    1    2    0    0  0.10438130905E+03 -0.63146863901E+03  0.11867617397E+04  0.13513822423E+04  0.90456831620E+02 0.  0.
        254    2    1    2    0    0 -0.10438130905E+03  0.63146863901E+03 -0.23534674348E+03  0.11322551800E+04  0.90386149564E+03 0.  0.
        -24    2    4    4    0    0  0.32401177798E+03  0.69015566164E+02  0.86666383196E+02  0.35135287141E+03  0.78682892834E+02 0.  0.
         24    2    4    4    0    0 -0.42839308703E+03  0.56245307285E+03 -0.32201312668E+03  0.78090230862E+03  0.79005478866E+02 0.  0.
         11    1    3    3    0    0 -0.91154217041E+01 -0.95124725715E+02  0.13617223998E+03  0.16635709572E+03  0.00000000000E+00 0. -1.
        -11    1    3    3    0    0  0.11349673075E+03 -0.53634391330E+03  0.10505894997E+04  0.11850251466E+04  0.00000000000E+00 0.  1.
          2    1    6    6  502    0 -0.41921592456E+03  0.52323987617E+03 -0.29556479666E+03  0.73272130339E+03  0.00000000000E+00 0. -1.
          3    1    5    5  503    0  0.25302557610E+03  0.32490187814E+02  0.38164339302E+02  0.25794199205E+03  0.00000000000E+00 0. -1.
         -4    1    5    5    0  503  0.70986201880E+02  0.36525378350E+02  0.48502043894E+02  0.93410879360E+02  0.00000000000E+00 0.  1.
         -1    1    6    6    0  502 -0.91771624739E+01  0.39213196683E+02 -0.26448330011E+02  0.48181005236E+02  0.00000000000E+00 0.  1.
<mgrwt>
<rscale>  0 0.22941805E+04</rscale>
<asrwt>0</asrwt>
<pdfrwt beam="1">  1        1 0.11786326E+00 0.22941805E+04</pdfrwt>
<pdfrwt beam="2">  1       -1 0.26423480E+00 0.22941805E+04</pdfrwt>
<totfact> 0.12064933E+00</totfact>
</mgrwt>
</event>
<event>
12    1  0.1496989E-007  0.1331271E+04  0.7818608E-02  0.9005128E-01
          2   -1    0    0  501    0  0.00000000000E+00  0.00000000000E+00  0.47627166226E+03  0.47627166226E+03  0.00000000000E+00 0. -1.
         -2   -1    0    0    0  501 -0.00000000000E+00 -0.00000000000E+00 -0.93029018725E+03  0.93029018725E+03  0.00000000000E+00 0.  1.
         23    2    1    2    0    0  0.14082767213E+03 -0.14140565104E+03 -0.42122180426E+03  0.47526361289E+03  0.92842350054E+02 0.  0.
        254    2    1    2    0    0 -0.14082767213E+03  0.14140565104E+03 -0.32796720718E+02  0.93129823662E+03  0.90907248845E+03 0.  0.
        -24    2    4    4    0    0 -0.46795775262E+03  0.44622799118E+02  0.19328752092E+03  0.51441933891E+03  0.79319216253E+02 0.  0.
         24    2    4    4    0    0  0.32713008048E+03  0.96782851921E+02 -0.22608424163E+03  0.41687889771E+03  0.79327933652E+02 0.  0.
         13    1    3    3    0    0  0.80758598955E+02 -0.12396302254E+03 -0.35276468047E+03  0.38253326920E+03  0.00000000000E+00 0.  1.
        -13    1    3    3    0    0  0.60069073178E+02 -0.17442628504E+02 -0.68457123798E+02  0.92730343686E+02  0.00000000000E+00 0. -1.
          2    1    6    6  502    0  0.15397853033E+03  0.85613862607E+02 -0.12566004754E+03  0.21640140670E+03  0.00000000000E+00 0. -1.
          1    1    5    5  503    0 -0.16495648765E+03 -0.16348031972E+02  0.89506283714E+02  0.18838597557E+03  0.00000000000E+00 0. -1.
         -2    1    5    5    0  503 -0.30300126497E+03  0.60970831090E+02  0.10378123720E+03  0.32603336334E+03  0.00000000000E+00 0.  1.
         -1    1    6    6    0  502  0.17315155016E+03  0.11168989314E+02 -0.10042419409E+03  0.20047749101E+03  0.00000000000E+00 0.  1.
<mgrwt>
<rscale>  0 0.13312714E+04</rscale>
<asrwt>0</asrwt>
<pdfrwt beam="1">  1        2 0.73272565E-01 0.13312714E+04</pdfrwt>
<pdfrwt beam="2">  1       -2 0.14312156E+00 0.13312714E+04</pdfrwt>
<totfact> 0.21589354E+01</totfact>
</mgrwt>
</event>
<event>
12    1  0.1496989E-007  0.1684062E+04  0.7818608E-02  0.8770507E-01
         -2   -1    0    0    0  501 -0.00000000000E+00  0.00000000000E+00  0.46497969856E+03  0.46497969856E+03  0.00000000000E+00 0. -1.
          2   -1    0    0  501    0  0.00000000000E+00 -0.00000000000E+00 -0.15248333273E+04  0.15248333273E+04  0.00000000000E+00 0.  1.
         23    2    1    2    0    0  0.29297092797E+03 -0.26682170730E+03  0.15328662507E+03  0.43346198626E+03  0.85829575214E+02 0.  0.
        254    2    1    2    0    0 -0.29297092797E+03  0.26682170730E+03 -0.12131402538E+04  0.15563510396E+04  0.89078251833E+03 0.  0.
        -24    2    4    4    0    0 -0.33242536780E+03  0.22357155938E+03 -0.76740365468E+02  0.41578235497E+03  0.80591660199E+02 0.  0.
         24    2    4    4    0    0  0.39454439828E+02  0.43250147914E+02 -0.11363998883E+04  0.11405686846E+04  0.77878045936E+02 0.  0.
         13    1    3    3    0    0  0.22855399256E+03 -0.20167149017E+03  0.15472679374E+03  0.34183138850E+03  0.00000000000E+00 0. -1.
        -13    1    3    3    0    0  0.64416935410E+02 -0.65150217127E+02 -0.14401686664E+01  0.91630597756E+02  0.00000000000E+00 0.  1.
          2    1    6    6  502    0  0.56320371190E+02  0.10708087466E+02 -0.83141898196E+03  0.83339316706E+03  0.00000000000E+00 0. -1.
          3    1    5    5  503    0 -0.11073523276E+02  0.32096425034E+02 -0.12797824354E+02  0.36284813985E+02  0.00000000000E+00 0. -1.
         -4    1    5    5    0  503 -0.32135184452E+03  0.19147513435E+03 -0.63942541114E+02  0.37949754099E+03  0.00000000000E+00 0.  1.
         -1    1    6    6    0  502 -0.16865931362E+02  0.32542060448E+02 -0.30498090637E+03  0.30717551756E+03  0.00000000000E+00 0.  1.
<mgrwt>
<rscale>  0 0.16840624E+04</rscale>
<asrwt>0</asrwt>
<pdfrwt beam="1">  1        2 0.23458974E+00 0.16840624E+04</pdfrwt>
<pdfrwt beam="2">  1       -2 0.71535339E-01 0.16840624E+04</pdfrwt>
<totfact> 0.20755188E+01</totfact>
</mgrwt>
</event>
<event>
12    1  0.1496989E-007  0.1469164E+04  0.7818608E-02  0.8905222E-01
          2   -1    0    0  501    0  0.00000000000E+00  0.00000000000E+00  0.30138339339E+04  0.30138339339E+04  0.00000000000E+00 0. -1.
         -2   -1    0    0    0  501 -0.00000000000E+00 -0.00000000000E+00 -0.17904451744E+03  0.17904451744E+03  0.00000000000E+00 0.  1.
         23    2    1    2    0    0 -0.28794664392E+03 -0.60215353438E+01  0.16931912608E+04  0.17200479146E+04  0.93373733371E+02 0.  0.
        254    2    1    2    0    0  0.28794664392E+03  0.60215353438E+01  0.11415981556E+04  0.14728305367E+04  0.88489203433E+03 0.  0.
        -24    2    4    4    0    0 -0.10330600931E+03 -0.22776892541E+03  0.92605149943E+03  0.96253676531E+03  0.79717187777E+02 0.  0.
         24    2    4    4    0    0  0.39125265323E+03  0.23379046075E+03  0.21554665617E+03  0.51029377142E+03  0.78757564517E+02 0.  0.
         13    1    3    3    0    0 -0.22291824106E+03 -0.44337546658E+02  0.12755836653E+04  0.12956743601E+04  0.00000000000E+00 0. -1.
        -13    1    3    3    0    0 -0.65028402863E+02  0.38316011314E+02  0.41760759555E+03  0.42437355450E+03  0.00000000000E+00 0.  1.
          2    1    6    6  502    0  0.36557700593E+03  0.23521620220E+03  0.19126754209E+03  0.47492787000E+03  0.00000000000E+00 0. -1.
          1    1    5    5  503    0 -0.74854814250E+02 -0.20552815852E+03  0.69290964278E+03  0.72661464355E+03  0.00000000000E+00 0. -1.
         -2    1    5    5    0  503 -0.28451195061E+02 -0.22240766886E+02  0.23314185665E+03  0.23592212176E+03  0.00000000000E+00 0.  1.
         -1    1    6    6    0  502  0.25675647301E+02 -0.14257414538E+01  0.24279114082E+02  0.35365901425E+02  0.00000000000E+00 0.  1.
<mgrwt>
<rscale>  0 0.14691636E+04</rscale>
<asrwt>0</asrwt>
<pdfrwt beam="1">  1        2 0.46366672E+00 0.14691636E+04</pdfrwt>
<pdfrwt beam="2">  1       -2 0.27545313E-01 0.14691636E+04</pdfrwt>
<totfact> 0.20017353E+01</totfact>
</mgrwt>
</event>
<event>
12    1  0.1496989E-007  0.2215059E+04  0.7818608E-02  0.8512186E-01
          1   -1    0    0  501    0  0.00000000000E+00  0.00000000000E+00  0.13922502261E+04  0.13922502261E+04  0.00000000000E+00 0. -1.
         -1   -1    0    0    0  501 -0.00000000000E+00 -0.00000000000E+00 -0.88103566323E+03  0.88103566323E+03  0.00000000000E+00 0.  1.
         23    2    1    2    0    0  0.86651022838E+03 -0.20708590418E+03 -0.30789508266E+02  0.89598122080E+03  0.90054464679E+02 0.  0.
        254    2    1    2    0    0 -0.86651022838E+03  0.20708590418E+03  0.54200407112E+03  0.13773046685E+04  0.89970839119E+03 0.  0.
        -24    2    4    4    0    0 -0.10055258133E+03  0.18254028352E+03  0.56369754714E+03  0.60637190897E+03  0.80623759586E+02 0.  0.
         24    2    4    4    0    0 -0.76595764705E+03  0.24545620669E+02 -0.21693476026E+02  0.77093275954E+03  0.81074707900E+02 0.  0.
         11    1    3    3    0    0  0.69827336187E+03 -0.18805278567E+03  0.38559898179E+01  0.72316278026E+03  0.00000000000E+00 0.  1.
        -11    1    3    3    0    0  0.16823686651E+03 -0.19033118515E+02 -0.34645498084E+02  0.17281844054E+03  0.00000000000E+00 0. -1.
          4    1    6    6  502    0 -0.41532522146E+03  0.23999016960E+02 -0.50730092974E+02  0.41909967159E+03  0.00000000000E+00 0. -1.
          3    1    5    5  503    0 -0.51213141530E+02  0.22592117025E+02  0.14902813589E+03  0.15919351401E+03  0.00000000000E+00 0. -1.
         -4    1    5    5    0  503 -0.49339439798E+02  0.15994816649E+03  0.41466941126E+03  0.44717839496E+03  0.00000000000E+00 0.  1.
         -3    1    6    6    0  502 -0.35063242559E+03  0.54660370876E+00  0.29036616948E+02  0.35183308795E+03  0.00000000000E+00 0.  1.
<mgrwt>
<rscale>  0 0.22150595E+04</rscale>
<asrwt>0</asrwt>
<pdfrwt beam="1">  1        1 0.21419234E+00 0.22150595E+04</pdfrwt>
<pdfrwt beam="2">  1       -1 0.13554395E+00 0.22150595E+04</pdfrwt>
<totfact> 0.32297281E+00</totfact>
</mgrwt>
</event>
<event>
12    1  0.1496989E-007  0.1615799E+04  0.7818608E-02  0.8810900E-01
         -1   -1    0    0    0  501 -0.00000000000E+00  0.00000000000E+00  0.64873216443E+03  0.64873216443E+03  0.00000000000E+00 0.  1.
          1   -1    0    0  501    0  0.00000000000E+00 -0.00000000000E+00 -0.10061192770E+04  0.10061192770E+04  0.00000000000E+00 0. -1.
         23    2    1    2    0    0  0.18878547334E+03 -0.19888920620E+03  0.37104794435E+03  0.47035316750E+03  0.91425674115E+02 0.  0.
        254    2    1    2    0    0 -0.18878547334E+03  0.19888920620E+03 -0.72843505687E+03  0.11844982739E+04  0.89287269947E+03 0.  0.
        -24    2    4    4    0    0  0.46942795969E+02 -0.16968181884E+02 -0.83276301944E+03  0.83808114622E+03  0.79963840684E+02 0.  0.
         24    2    4    4    0    0 -0.23572826931E+03  0.21585738808E+03  0.10432796257E+03  0.34641712766E+03  0.83416267125E+02 0.  0.
         13    1    3    3    0    0  0.64321106450E+02 -0.86759326042E+02  0.79516685844E+02  0.13411669813E+03  0.00000000000E+00 0. -1.
        -13    1    3    3    0    0  0.12446436689E+03 -0.11212988016E+03  0.29153125850E+03  0.33623646937E+03  0.00000000000E+00 0.  1.
          4    1    6    6  502    0 -0.14444139522E+03  0.11754950997E+03  0.18476702638E+02  0.18714324056E+03  0.00000000000E+00 0. -1.
          1    1    5    5  503    0  0.75557513663E+01  0.55531030784E+01 -0.87669261505E+01  0.12836873710E+02  0.00000000000E+00 0. -1.
         -2    1    5    5    0  503  0.39387044603E+02 -0.22521284963E+02 -0.82399609329E+03  0.82524427251E+03  0.00000000000E+00 0.  1.
         -3    1    6    6    0  502 -0.91286874087E+02  0.98307878118E+02  0.85851259930E+02  0.15927388710E+03  0.00000000000E+00 0.  1.
<mgrwt>
<rscale>  0 0.16157994E+04</rscale>
<asrwt>0</asrwt>
<pdfrwt beam="1">  1        1 0.15478758E+00 0.16157994E+04</pdfrwt>
<pdfrwt beam="2">  1       -1 0.99804949E-01 0.16157994E+04</pdfrwt>
<totfact> 0.13733161E+01</totfact>
</mgrwt>
</event>
<event>
12    1  0.1496989E-007  0.2253152E+04  0.7818608E-02  0.8496625E-01
         -2   -1    0    0    0  501 -0.00000000000E+00  0.00000000000E+00  0.18508979840E+04  0.18508979840E+04  0.00000000000E+00 0.  1.
          2   -1    0    0  501    0  0.00000000000E+00 -0.00000000000E+00 -0.68570696395E+03  0.68570696395E+03  0.00000000000E+00 0. -1.
         23    2    1    2    0    0  0.49339004216E+03  0.15275133359E+03  0.13795074937E+04  0.14757459153E+04  0.89545394983E+02 0.  0.
        254    2    1    2    0    0 -0.49339004216E+03 -0.15275133359E+03 -0.21431647363E+03  0.10608590327E+04  0.90151185943E+03 0.  0.
        -24    2    4    4    0    0 -0.18155696895E+02  0.20739220749E+03  0.22432620181E+03  0.31629411076E+03  0.79865904001E+02 0.  0.
         24    2    4    4    0    0 -0.47523434527E+03 -0.36014354108E+03 -0.43864267544E+03  0.74456492191E+03  0.80115373771E+02 0.  0.
         13    1    3    3    0    0  0.17486823479E+02 -0.10520661960E+02  0.40943675275E+02  0.45747763535E+02  0.00000000000E+00 0. -1.
        -13    1    3    3    0    0  0.47590321868E+03  0.16327199555E+03  0.13385638184E+04  0.14299981518E+04  0.00000000000E+00 0.  1.
          2    1    6    6  502    0 -0.16541083618E+03 -0.10185748066E+03 -0.18388100854E+03  0.26748442271E+03  0.00000000000E+00 0. -1.
          1    1    5    5  503    0  0.39796381249E+01  0.10880451091E+03  0.16916896313E+03  0.20117752658E+03  0.00000000000E+00 0. -1.
         -4    1    5    5    0  503 -0.22135335020E+02  0.98587696581E+02  0.55157238684E+02  0.11511658418E+03  0.00000000000E+00 0.  1.
         -1    1    6    6    0  502 -0.30982350909E+03 -0.25828606042E+03 -0.25476166690E+03  0.47708049920E+03  0.00000000000E+00 0.  1.
<mgrwt>
<rscale>  0 0.22531521E+04</rscale>
<asrwt>0</asrwt>
<pdfrwt beam="1">  1        2 0.10549338E+00 0.22531521E+04</pdfrwt>
<pdfrwt beam="2">  1       -2 0.28475353E+00 0.22531521E+04</pdfrwt>
<totfact> 0.15080314E+00</totfact>
</mgrwt>
</event>
<event>
12    1  0.1496989E-007  0.1345141E+04  0.7818608E-02  0.8994515E-01
         -1   -1    0    0    0  501 -0.00000000000E+00  0.00000000000E+00  0.22168590335E+04  0.22168590335E+04  0.00000000000E+00 0.  1.
          1   -1    0    0  501    0  0.00000000000E+00 -0.00000000000E+00 -0.20405033474E+03  0.20405033474E+03  0.00000000000E+00 0. -1.
         23    2    1    2    0    0 -0.23905123970E+03  0.44930635612E+02  0.80473952945E+02  0.27189460751E+03  0.91029463771E+02 0.  0.
        254    2    1    2    0    0  0.23905123970E+03 -0.44930635612E+02  0.19323347458E+04  0.21490147607E+04  0.90839562677E+03 0.  0.
        -24    2    4    4    0    0  0.42773971809E+03 -0.27821922885E+03  0.65264528413E+03  0.83211678398E+03  0.78136224281E+02 0.  0.
         24    2    4    4    0    0 -0.18868847840E+03  0.23328859324E+03  0.12796894617E+04  0.13168979767E+04  0.81168055346E+02 0.  0.
         13    1    3    3    0    0 -0.22879542304E+03  0.24683668004E+02  0.90243227810E+02  0.24718509104E+03  0.00000000000E+00 0. -1.
        -13    1    3    3    0    0 -0.10255816660E+02  0.20246967608E+02 -0.97692748656E+01  0.24709516468E+02  0.00000000000E+00 0.  1.
          4    1    6    6  502    0 -0.17521679380E+03  0.21132570792E+03  0.12365050937E+04  0.12666113557E+04  0.00000000000E+00 0. -1.
          3    1    5    5  503    0  0.24545306816E+03 -0.12448522274E+03  0.39052332534E+03  0.47775751903E+03  0.00000000000E+00 0. -1.
         -4    1    5    5    0  503  0.18228664993E+03 -0.15373400611E+03  0.26212195879E+03  0.35435926495E+03  0.00000000000E+00 0.  1.
         -3    1    6    6    0  502 -0.13471684594E+02  0.21962885319E+02  0.43184367942E+02  0.50286621003E+02  0.00000000000E+00 0.  1.
<mgrwt>
<rscale>  0 0.13451406E+04</rscale>
<asrwt>0</asrwt>
<pdfrwt beam="1">  1        1 0.31392361E-01 0.13451406E+04</pdfrwt>
<pdfrwt beam="2">  1       -1 0.34105522E+00 0.13451406E+04</pdfrwt>
<totfact> 0.25448457E+00</totfact>
</mgrwt>
</event>
<event>
12    1  0.1496989E-007  0.2033517E+04  0.7818608E-02  0.8591109E-01
         -2   -1    0    0    0  501 -0.00000000000E+00  0.00000000000E+00  0.65156346228E+03  0.65156346228E+03  0.00000000000E+00 0.  1.
          2   -1    0    0  501    0  0.00000000000E+00 -0.00000000000E+00 -0.15866411307E+04  0.15866411307E+04  0.00000000000E+00 0. -1.
         23    2    1    2    0    0  0.97349562216E+02  0.70560401157E+03 -0.79864971432E+03  0.10750470679E+04  0.10262004445E+03 0.  0.
        254    2    1    2    0    0 -0.97349562216E+02 -0.70560401157E+03 -0.13642795415E+03  0.11631575252E+04  0.90937829491E+03 0.  0.
        -24    2    4    4    0    0 -0.26492083527E+03 -0.73092217283E+03  0.17384654671E+03  0.80071152775E+03  0.80536061408E+02 0.  0.
         24    2    4    4    0    0  0.16757127305E+03  0.25318161255E+02 -0.31027450086E+03  0.36244599741E+03  0.79847944955E+02 0.  0.
         13    1    3    3    0    0  0.48906253234E+02  0.60028434402E+03 -0.69372505602E+03  0.91868796043E+03  0.00000000000E+00 0. -1.
        -13    1    3    3    0    0  0.48443308982E+02  0.10531966755E+03 -0.10492465829E+03  0.15635910743E+03  0.00000000000E+00 0.  1.
          4    1    6    6  502    0  0.76127997758E+02  0.12573715668E+02 -0.22073321338E+03  0.23383054090E+03  0.00000000000E+00 0. -1.
          1    1    5    5  503    0 -0.16134486860E+03 -0.54862505989E+03  0.12192324421E+03  0.58471095462E+03  0.00000000000E+00 0. -1.
         -4    1    5    5    0  503 -0.10357596666E+03 -0.18229711293E+03  0.51923302499E+02  0.21600057314E+03  0.00000000000E+00 0.  1.
         -3    1    6    6    0  502  0.91443275292E+02  0.12744445587E+02 -0.89541287474E+02  0.12861545650E+03  0.00000000000E+00 0.  1.
<mgrwt>
<rscale>  0 0.20335165E+04</rscale>
<asrwt>0</asrwt>
<pdfrwt beam="1">  1        2 0.24409863E+00 0.20335165E+04</pdfrwt>
<pdfrwt beam="2">  1       -2 0.10024053E+00 0.20335165E+04</pdfrwt>
<totfact> 0.86346257E+00</totfact>
</mgrwt>
</event>
<event>
12    1  0.1496989E-007  0.1680512E+04  0.7818608E-02  0.8772558E-01
         -2   -1    0    0    0  501 -0.00000000000E+00  0.00000000000E+00  0.23101353473E+03  0.23101353473E+03  0.00000000000E+00 0.  1.
          2   -1    0    0  501    0  0.00000000000E+00 -0.00000000000E+00 -0.30562272301E+04  0.30562272301E+04  0.00000000000E+00 0. -1.
         23    2    1    2    0    0 -0.46700764099E+03  0.87923374104E+02 -0.33615849823E+03  0.58922774518E+03  0.91433819209E+02 0.  0.
        254    2    1    2    0    0  0.46700764099E+03 -0.87923374104E+02 -0.24890551971E+04  0.26980130196E+04  0.92631086757E+03 0.  0.
        -24    2    4    4    0    0  0.72840247214E+03 -0.13013506556E+03 -0.15566117825E+04  0.17253696184E+04  0.79716887547E+02 0.  0.
         24    2    4    4    0    0 -0.26139483114E+03  0.42211691452E+02 -0.93244341465E+03  0.97264340121E+03  0.80469744379E+02 0.  0.
         13    1    3    3    0    0 -0.28021398150E+03  0.94904323632E+02 -0.22564449758E+03  0.37207814416E+03  0.00000000000E+00 0.  1.
        -13    1    3    3    0    0 -0.18679365949E+03 -0.69809495281E+01 -0.11051400065E+03  0.21714960102E+03  0.00000000000E+00 0. -1.
          2    1    6    6  502    0 -0.10251670324E+03  0.27415389838E+02 -0.51329270008E+03  0.52414756892E+03  0.00000000000E+00 0. -1.
          1    1    5    5  503    0  0.45087788586E+03 -0.11230501372E+03 -0.92061101936E+03  0.10312264218E+04  0.00000000000E+00 0. -1.
         -2    1    5    5    0  503  0.27752458627E+03 -0.17830051838E+02 -0.63600076312E+03  0.69414319663E+03  0.00000000000E+00 0.  1.
         -1    1    6    6    0  502 -0.15887812790E+03  0.14796301614E+02 -0.41915071456E+03  0.44849583229E+03  0.00000000000E+00 0.  1.
<mgrwt>
<rscale>  0 0.16805117E+04</rscale>
<asrwt>0</asrwt>
<pdfrwt beam="1">  1        2 0.47018876E+00 0.16805117E+04</pdfrwt>
<pdfrwt beam="2">  1       -2 0.35540547E-01 0.16805117E+04</pdfrwt>
<totfact> 0.11438791E+01</totfact>
</mgrwt>
</event>
<event>
12    1  0.1496989E-007  0.1479834E+04  0.7818608E-02  0.8897975E-01
          2   -1    0    0  501    0  0.00000000000E+00  0.00000000000E+00  0.91922452515E+03  0.91922452515E+03  0.00000000000E+00 0. -1.
         -2   -1    0    0    0  501 -0.00000000000E+00 -0.00000000000E+00 -0.59558574809E+03  0.59558574809E+03  0.00000000000E+00 0.  1.
         23    2    1    2    0    0  0.25226714972E+02  0.26611797119E+02  0.56819556893E+03  0.57646577529E+03  0.90122198329E+02 0.  0.
        254    2    1    2    0    0 -0.25226714972E+02 -0.26611797119E+02 -0.24455679188E+03  0.93834449794E+03  0.90517279978E+03 0.  0.
        -24    2    4    4    0    0 -0.18963020516E+02 -0.43645105085E+03 -0.26822794471E+03  0.52015417166E+03  0.88119328379E+02 0.  0.
         24    2    4    4    0    0 -0.62636944561E+01  0.40983925374E+03  0.23671152828E+02  0.41819032628E+03  0.79469351003E+02 0.  0.
         11    1    3    3    0    0  0.40511092391E+02  0.17071563361E+02  0.11821173455E+03  0.12612137435E+03  0.00000000000E+00 0.  1.
        -11    1    3    3    0    0 -0.15284377419E+02  0.95402337575E+01  0.44998383438E+03  0.45034440094E+03  0.00000000000E+00 0. -1.
          4    1    6    6  502    0  0.66481428055E+01  0.81986500848E+01 -0.10504477301E+02  0.14891598616E+02  0.00000000000E+00 0. -1.
          3    1    5    5  503    0  0.22350855559E+02 -0.38682781602E+02 -0.38387024307E+02  0.58902308714E+02  0.00000000000E+00 0. -1.
         -4    1    5    5    0  503 -0.41313876075E+02 -0.39776826925E+03 -0.22984092040E+03  0.46125186295E+03  0.00000000000E+00 0.  1.
         -1    1    6    6    0  502 -0.12911837262E+02  0.40164060365E+03  0.34175630129E+02  0.40329872767E+03  0.00000000000E+00 0.  1.
<mgrwt>
<rscale>  0 0.14798338E+04</rscale>
<asrwt>0</asrwt>
<pdfrwt beam="1">  1        2 0.14141916E+00 0.14798338E+04</pdfrwt>
<pdfrwt beam="2">  1       -2 0.91628576E-01 0.14798338E+04</pdfrwt>
<totfact> 0.27927430E+01</totfact>
</mgrwt>
</event>
<event>
12    1  0.1496989E-007  0.1352752E+04  0.7818608E-02  0.8988747E-01
          2   -1    0    0  501    0  0.00000000000E+00  0.00000000000E+00  0.69843093050E+03  0.69843093050E+03  0.00000000000E+00 0. -1.
         -2   -1    0    0    0  501 -0.00000000000E+00 -0.00000000000E+00 -0.65501773626E+03  0.65501773626E+03  0.00000000000E+00 0.  1.
         23    2    1    2    0    0  0.18142472246E+03  0.32525875818E+03 -0.69682261693E+02  0.38972586969E+03  0.91227442258E+02 0.  0.
        254    2    1    2    0    0 -0.18142472246E+03 -0.32525875818E+03  0.11309545594E+03  0.96372279707E+03  0.88162512313E+03 0.  0.
        -24    2    4    4    0    0 -0.20228600799E+03  0.13663316606E+03  0.35322438780E+03  0.43649860356E+03  0.78583151355E+02 0.  0.
         24    2    4    4    0    0  0.20861285530E+02 -0.46189192424E+03 -0.24012893186E+03  0.52722419351E+03  0.80771922046E+02 0.  0.
         13    1    3    3    0    0  0.18283842551E+03  0.27238652273E+03 -0.75131783174E+02  0.33655473916E+03  0.00000000000E+00 0.  1.
        -13    1    3    3    0    0 -0.14137030493E+01  0.52872235454E+02  0.54495214816E+01  0.53171130537E+02  0.00000000000E+00 0. -1.
          2    1    6    6  502    0  0.18202563493E+02 -0.38412184168E+03 -0.23168208531E+03  0.44895156891E+03  0.00000000000E+00 0. -1.
          1    1    5    5  503    0 -0.97811299049E+02  0.64684718818E+02  0.10352314336E+03  0.15642315775E+03  0.00000000000E+00 0. -1.
         -2    1    5    5    0  503 -0.10447470894E+03  0.71948447245E+02  0.24970124444E+03  0.28007544581E+03  0.00000000000E+00 0.  1.
         -1    1    6    6    0  502  0.26587220372E+01 -0.77770082563E+02 -0.84468465441E+01  0.78272624597E+02  0.00000000000E+00 0.  1.
<mgrwt>
<rscale>  0 0.13527522E+04</rscale>
<asrwt>0</asrwt>
<pdfrwt beam="1">  1        2 0.10745091E+00 0.13527522E+04</pdfrwt>
<pdfrwt beam="2">  1       -2 0.10077196E+00 0.13527522E+04</pdfrwt>
<totfact> 0.32552412E+01</totfact>
</mgrwt>
</event>
<event>
12    1  0.1496989E-007  0.1506321E+04  0.7818608E-02  0.8880260E-01
         -1   -1    0    0    0  501 -0.00000000000E+00  0.00000000000E+00  0.11547957222E+04  0.11547957222E+04  0.00000000000E+00 0.  1.
          1   -1    0    0  501    0  0.00000000000E+00 -0.00000000000E+00 -0.49121326009E+03  0.49121326009E+03  0.00000000000E+00 0. -1.
         23    2    1    2    0    0 -0.25569340583E+03  0.21368229717E+03 -0.15824389783E+03  0.38027177240E+03  0.92337683395E+02 0.  0.
        254    2    1    2    0    0  0.25569340583E+03 -0.21368229717E+03  0.82182635991E+03  0.12657372099E+04  0.90313502682E+03 0.  0.
        -24    2    4    4    0    0  0.30510151675E+03  0.25236947396E+03  0.12599399284E+03  0.42291100123E+03  0.78752408329E+02 0.  0.
         24    2    4    4    0    0 -0.49408110926E+02 -0.46605177113E+03  0.69583236707E+03  0.84282620864E+03  0.80795545033E+02 0.  0.
         13    1    3    3    0    0 -0.19472110487E+03  0.17084463358E+03 -0.16222570998E+03  0.30564911007E+03  0.00000000000E+00 0. -1.
        -13    1    3    3    0    0 -0.60972300955E+02  0.42837663587E+02  0.39818121485E+01  0.74622662331E+02  0.00000000000E+00 0.  1.
          2    1    6    6  502    0  0.38331464174E+01 -0.11795721868E+02  0.31941516328E+01  0.12807602059E+02  0.00000000000E+00 0. -1.
          3    1    5    5  503    0  0.85924818086E+01  0.34587895968E+02  0.76553180070E+01  0.36452121816E+02  0.00000000000E+00 0. -1.
         -4    1    5    5    0  503  0.29650903494E+03  0.21778157799E+03  0.11833867483E+03  0.38645887941E+03  0.00000000000E+00 0.  1.
         -1    1    6    6    0  502 -0.53241257343E+02 -0.45425604926E+03  0.69263821544E+03  0.83001860658E+03  0.00000000000E+00 0.  1.
<mgrwt>
<rscale>  0 0.15063213E+04</rscale>
<asrwt>0</asrwt>
<pdfrwt beam="1">  1        1 0.75571271E-01 0.15063213E+04</pdfrwt>
<pdfrwt beam="2">  1       -1 0.17766088E+00 0.15063213E+04</pdfrwt>
<totfact> 0.94999748E+00</totfact>
</mgrwt>
</event>
<event>
12    1  0.1496989E-007  0.1358292E+04  0.7818608E-02  0.8984575E-01
          1   -1    0    0  501    0  0.00000000000E+00  0.00000000000E+00  0.56016147113E+03  0.56016147113E+03  0.00000000000E+00 0. -1.
         -1   -1    0    0    0  501 -0.00000000000E+00 -0.00000000000E+00 -0.82340377479E+03  0.82340377479E+03  0.00000000000E+00 0.  1.
         23    2    1    2    0    0  0.13496583223E+02 -0.29691939471E+03 -0.29514732013E+03  0.42883280034E+03  0.91882236340E+02 0.  0.
        254    2    1    2    0    0 -0.13496583223E+02  0.29691939471E+03  0.31905016466E+02  0.95473244558E+03  0.90672643496E+03 0.  0.
        -24    2    4    4    0    0 -0.16126508890E+03  0.47742843920E+03  0.29899381177E+03  0.59145408233E+03  0.80475391112E+02 0.  0.
         24    2    4    4    0    0  0.14776850567E+03 -0.18050904449E+03 -0.26708879531E+03  0.36327836325E+03  0.78839699463E+02 0.  0.
         13    1    3    3    0    0 -0.35160563527E+01 -0.45201971451E+02 -0.10026016584E+03  0.11003491141E+03  0.00000000000E+00 0.  1.
        -13    1    3    3    0    0  0.17012639576E+02 -0.25171742326E+03 -0.19488715429E+03  0.31879788893E+03  0.00000000000E+00 0. -1.
          2    1    6    6  502    0  0.10642963753E+03 -0.84226802563E+02 -0.18859703009E+03  0.23235804650E+03  0.00000000000E+00 0. -1.
          3    1    5    5  503    0 -0.79315951843E+02  0.29332327260E+03  0.21938638441E+03  0.37477986623E+03  0.00000000000E+00 0. -1.
         -4    1    5    5    0  503 -0.81949137054E+02  0.18410516660E+03  0.79607427364E+02  0.21667421611E+03  0.00000000000E+00 0.  1.
         -1    1    6    6    0  502  0.41338868144E+02 -0.96282241926E+02 -0.78491765224E+02  0.13092031675E+03  0.00000000000E+00 0.  1.
<mgrwt>
<rscale>  0 0.13582917E+04</rscale>
<asrwt>0</asrwt>
<pdfrwt beam="1">  1        1 0.86178688E-01 0.13582917E+04</pdfrwt>
<pdfrwt beam="2">  1       -1 0.12667750E+00 0.13582917E+04</pdfrwt>
<totfact> 0.20019521E+01</totfact>
</mgrwt>
</event>
<event>
12    1  0.1496989E-007  0.1426364E+04  0.7818608E-02  0.8934953E-01
          1   -1    0    0  501    0  0.00000000000E+00  0.00000000000E+00  0.26895010854E+04  0.26895010854E+04  0.00000000000E+00 0. -1.
         -1   -1    0    0    0  501 -0.00000000000E+00 -0.00000000000E+00 -0.18911632206E+03  0.18911632206E+03  0.00000000000E+00 0.  1.
         23    2    1    2    0    0  0.25836605173E+03 -0.18659218949E+02  0.15256531085E+04  0.15502080248E+04  0.91795040777E+02 0.  0.
        254    2    1    2    0    0 -0.25836605173E+03  0.18659218949E+02  0.97473165480E+03  0.13284093826E+04  0.86456260956E+03 0.  0.
        -24    2    4    4    0    0 -0.32504893306E+03 -0.37079267212E+03  0.56929702362E+03  0.75680001489E+03  0.74183197968E+02 0.  0.
         24    2    4    4    0    0  0.66682881331E+02  0.38945189107E+03  0.40543463118E+03  0.57160936774E+03  0.78997765790E+02 0.  0.
         11    1    3    3    0    0  0.94731510892E+02  0.22670439306E+01  0.82361014028E+03  0.82904334134E+03  0.00000000000E+00 0. -1.
        -11    1    3    3    0    0  0.16363454084E+03 -0.20926262880E+02  0.70204296827E+03  0.72116468350E+03  0.00000000000E+00 0.  1.
          4    1    6    6  502    0  0.43962513452E+02  0.77759142202E+02  0.73217748323E+02  0.11549902794E+03  0.00000000000E+00 0. -1.
          3    1    5    5  503    0 -0.27810612608E+03 -0.33456612288E+03  0.52986214535E+03  0.68558836121E+03  0.00000000000E+00 0. -1.
         -4    1    5    5    0  503 -0.46942806983E+02 -0.36226549242E+02  0.39434878263E+02  0.71211653688E+02  0.00000000000E+00 0.  1.
         -1    1    6    6    0  502  0.22720367879E+02  0.31169274887E+03  0.33221688286E+03  0.45611033980E+03  0.00000000000E+00 0.  1.
<mgrwt>
<rscale>  0 0.14263640E+04</rscale>
<asrwt>0</asrwt>
<pdfrwt beam="1">  1        1 0.41376937E+00 0.14263640E+04</pdfrwt>
<pdfrwt beam="2">  1       -1 0.29094821E-01 0.14263640E+04</pdfrwt>
<totfact> 0.10507663E+01</totfact>
</mgrwt>
</event>
<event>
12    1  0.1496989E-007  0.1578495E+04  0.7818608E-02  0.8833870E-01
          2   -1    0    0  501    0  0.00000000000E+00  0.00000000000E+00  0.17592035017E+04  0.17592035017E+04  0.00000000000E+00 0.  1.
         -2   -1    0    0    0  501 -0.00000000000E+00 -0.00000000000E+00 -0.35408711852E+03  0.35408711852E+03  0.00000000000E+00 0. -1.
         23    2    1    2    0    0 -0.36762628073E+03  0.21342858572E+03  0.89245017234E+03  0.99301533842E+03  0.94399728596E+02 0.  0.
        254    2    1    2    0    0  0.36762628073E+03 -0.21342858572E+03  0.51266621083E+03  0.11202752818E+04  0.90082696437E+03 0.  0.
        -24    2    4    4    0    0  0.47091084767E+02  0.28206440393E+03 -0.49527680730E+02  0.30146371412E+03  0.81544353223E+02 0.  0.
         24    2    4    4    0    0  0.32053519596E+03 -0.49549298965E+03  0.56219389156E+03  0.81881156765E+03  0.78321752846E+02 0.  0.
         11    1    3    3    0    0 -0.26044885386E+03  0.10928381359E+03  0.52112439258E+03  0.59274546808E+03  0.00000000000E+00 0. -1.
        -11    1    3    3    0    0 -0.10717742687E+03  0.10414477213E+03  0.37132577976E+03  0.40026987034E+03  0.00000000000E+00 0.  1.
          4    1    6    6  502    0  0.30284637781E+03 -0.47445129808E+03  0.50875557751E+03  0.75871747077E+03  0.00000000000E+00 0. -1.
          3    1    5    5  503    0  0.68518608898E+02  0.22932312755E+03 -0.29673444722E+02  0.24117298753E+03  0.00000000000E+00 0. -1.
         -4    1    5    5    0  503 -0.21427524131E+02  0.52741276386E+02 -0.19854236008E+02  0.60290726590E+02  0.00000000000E+00 0.  1.
         -3    1    6    6    0  502  0.17688818150E+02 -0.21041691573E+02  0.53438314045E+02  0.60094096880E+02  0.00000000000E+00 0.  1.
<mgrwt>
<rscale>  0 0.15784946E+04</rscale>
<asrwt>0</asrwt>
<pdfrwt beam="1">  1        2 0.27064669E+00 0.15784946E+04</pdfrwt>
<pdfrwt beam="2">  1       -2 0.54474942E-01 0.15784946E+04</pdfrwt>
<totfact> 0.27691738E+01</totfact>
</mgrwt>
</event>
<event>
12    1  0.1496989E-007  0.1491200E+04  0.7818608E-02  0.8890326E-01
          2   -1    0    0  501    0  0.00000000000E+00  0.00000000000E+00  0.42619040870E+04  0.42619040870E+04  0.00000000000E+00 0. -1.
         -2   -1    0    0    0  501 -0.00000000000E+00 -0.00000000000E+00 -0.13043922916E+03  0.13043922916E+03  0.00000000000E+00 0.  1.
         23    2    1    2    0    0  0.43335661399E+03  0.63707233480E+02  0.22541202123E+04  0.22981132647E+04  0.91706485478E+02 0.  0.
        254    2    1    2    0    0 -0.43335661399E+03 -0.63707233480E+02  0.18773446455E+04  0.20942300514E+04  0.81824203248E+03 0.  0.
        -24    2    4    4    0    0  0.15374183055E+03  0.18851591250E+03  0.78652566505E+03  0.82723080931E+03  0.80705578268E+02 0.  0.
         24    2    4    4    0    0 -0.58709844454E+03 -0.25222314598E+03  0.10908189805E+04  0.12669992421E+04  0.84261096588E+02 0.  0.
         11    1    3    3    0    0  0.20607961791E+03  0.27453885295E+00  0.12314084710E+04  0.12485334224E+04  0.00000000000E+00 0. -1.
        -11    1    3    3    0    0  0.22727699608E+03  0.63432694627E+02  0.10227117413E+04  0.10495798423E+04  0.00000000000E+00 0.  1.
          2    1    6    6  502    0 -0.23859699938E+03 -0.59424818572E+02  0.43690456930E+03  0.50134363450E+03  0.00000000000E+00 0. -1.
          3    1    5    5  503    0 -0.86435787924E+01  0.50809683387E+01  0.18018828856E+02  0.20620521015E+02  0.00000000000E+00 0. -1.
         -4    1    5    5    0  503  0.16238540934E+03  0.18343494416E+03  0.76850683619E+03  0.80661028830E+03  0.00000000000E+00 0.  1.
         -1    1    6    6    0  502 -0.34850144516E+03 -0.19279832741E+03  0.65391441119E+03  0.76565560763E+03  0.00000000000E+00 0.  1.
<mgrwt>
<rscale>  0 0.14912002E+04</rscale>
<asrwt>0</asrwt>
<pdfrwt beam="1">  1        2 0.65567744E+00 0.14912002E+04</pdfrwt>
<pdfrwt beam="2">  1       -2 0.20067577E-01 0.14912002E+04</pdfrwt>
<totfact> 0.43437446E+00</totfact>
</mgrwt>
</event>
<event>
12    1  0.1496989E-007  0.1832545E+04  0.7818608E-02  0.8689182E-01
         -2   -1    0    0    0  501 -0.00000000000E+00  0.00000000000E+00  0.38488284028E+03  0.38488284028E+03  0.00000000000E+00 0.  1.
          2   -1    0    0  501    0  0.00000000000E+00 -0.00000000000E+00 -0.21813261178E+04  0.21813261178E+04  0.00000000000E+00 0. -1.
         23    2    1    2    0    0 -0.25767079810E+03  0.48180675996E+03 -0.93968042853E+02  0.56410986004E+03  0.10420147305E+03 0.  0.
        254    2    1    2    0    0  0.25767079810E+03 -0.48180675996E+03 -0.17024752346E+04  0.20020990980E+04  0.90080346333E+03 0.  0.
        -24    2    4    4    0    0  0.51747019741E+03 -0.48034199570E+03 -0.84991559796E+03  0.11073994693E+04  0.73981233509E+02 0.  0.
         24    2    4    4    0    0 -0.25979939931E+03 -0.14647642577E+01 -0.85255963666E+03  0.89469962869E+03  0.78304649307E+02 0.  0.
         13    1    3    3    0    0 -0.83330681206E+02  0.69535736186E+02 -0.14596848186E+02  0.10950931017E+03  0.00000000000E+00 0. -1.
        -13    1    3    3    0    0 -0.17434011689E+03  0.41227102377E+03 -0.79371194667E+02  0.45460054987E+03  0.00000000000E+00 0.  1.
          4    1    6    6  502    0 -0.22352658738E+03 -0.12656995211E+02 -0.79360737744E+03  0.82458292750E+03  0.00000000000E+00 0. -1.
          3    1    5    5  503    0  0.47646272589E+03 -0.43714412579E+03 -0.80641913811E+03  0.10336457528E+04  0.00000000000E+00 0. -1.
         -4    1    5    5    0  503  0.41007471517E+02 -0.43197869906E+02 -0.43496459851E+02  0.73753716545E+02  0.00000000000E+00 0.  1.
         -3    1    6    6    0  502 -0.36272811932E+02  0.11192230953E+02 -0.58952259213E+02  0.70116701188E+02  0.00000000000E+00 0.  1.
<mgrwt>
<rscale>  0 0.18325447E+04</rscale>
<asrwt>0</asrwt>
<pdfrwt beam="1">  1        2 0.33558863E+00 0.18325447E+04</pdfrwt>
<pdfrwt beam="2">  1       -2 0.59212745E-01 0.18325447E+04</pdfrwt>
<totfact> 0.13269467E+01</totfact>
</mgrwt>
</event>
<event>
12    1  0.1496989E-007  0.2801799E+04  0.7818608E-02  0.8302710E-01
          1   -1    0    0  501    0  0.00000000000E+00  0.00000000000E+00  0.16484200014E+04  0.16484200014E+04  0.00000000000E+00 0. -1.
         -1   -1    0    0    0  501 -0.00000000000E+00 -0.00000000000E+00 -0.11905460801E+04  0.11905460801E+04  0.00000000000E+00 0.  1.
         23    2    1    2    0    0 -0.88516694958E+03 -0.63469041763E+03  0.83780878575E+03  0.13771895937E+04  0.91515904084E+02 0.  0.
        254    2    1    2    0    0  0.88516694958E+03  0.63469041763E+03 -0.37993486442E+03  0.14617764878E+04  0.89782378238E+03 0.  0.
        -24    2    4    4    0    0  0.91689400575E+03  0.40124574772E+03 -0.56454873042E+03  0.11518091851E+04  0.79097168538E+02 0.  0.
         24    2    4    4    0    0 -0.31727056169E+02  0.23344466991E+03  0.18461386600E+03  0.30996730267E+03  0.80588021477E+02 0.  0.
         13    1    3    3    0    0 -0.66133025265E+03 -0.45398638658E+03  0.66196296540E+03  0.10400270717E+04  0.00000000000E+00 0. -1.
        -13    1    3    3    0    0 -0.22383669693E+03 -0.18070403105E+03  0.17584582035E+03  0.33716252203E+03  0.00000000000E+00 0.  1.
          2    1    6    6  502    0 -0.53591611990E+02  0.13753609614E+03  0.13391123134E+03  0.19929991595E+03  0.00000000000E+00 0. -1.
          1    1    5    5  503    0  0.88455557031E+03  0.39798774875E+03 -0.55671704041E+03  0.11183768006E+04  0.00000000000E+00 0. -1.
         -2    1    5    5    0  503  0.32338435440E+02  0.32579989737E+01 -0.78316900090E+01  0.33432384486E+02  0.00000000000E+00 0.  1.
         -1    1    6    6    0  502  0.21864555821E+02  0.95908573765E+02  0.50702634656E+02  0.11066738672E+03  0.00000000000E+00 0.  1.
<mgrwt>
<rscale>  0 0.28017994E+04</rscale>
<asrwt>0</asrwt>
<pdfrwt beam="1">  1        1 0.25360308E+00 0.28017994E+04</pdfrwt>
<pdfrwt beam="2">  1       -1 0.18316093E+00 0.28017994E+04</pdfrwt>
<totfact> 0.88391641E-01</totfact>
</mgrwt>
</event>
<event>
12    1  0.1496989E-007  0.1393902E+04  0.7818608E-02  0.8958244E-01
          2   -1    0    0  501    0  0.00000000000E+00  0.00000000000E+00  0.17281378852E+04  0.17281378852E+04  0.00000000000E+00 0. -1.
         -2   -1    0    0    0  501 -0.00000000000E+00 -0.00000000000E+00 -0.28107760746E+03  0.28107760746E+03  0.00000000000E+00 0.  1.
         23    2    1    2    0    0 -0.22025794695E+03 -0.23399095739E+03  0.78328646134E+03  0.85125627016E+03  0.88511161084E+02 0.  0.
        254    2    1    2    0    0  0.22025794695E+03  0.23399095739E+03  0.66377381645E+03  0.11579592225E+04  0.89275335358E+03 0.  0.
        -24    2    4    4    0    0  0.28100029813E+03  0.36955667685E+03 -0.17368370843E+01  0.47121655124E+03  0.80676617476E+02 0.  0.
         24    2    4    4    0    0 -0.60742351184E+02 -0.13556571946E+03  0.66551065353E+03  0.68674267130E+03  0.81506865349E+02 0.  0.
         11    1    3    3    0    0 -0.87845887350E+02 -0.58402482187E+02  0.34694661890E+03  0.36262888221E+03  0.00000000000E+00 0. -1.
        -11    1    3    3    0    0 -0.13241205960E+03 -0.17558847521E+03  0.43633984244E+03  0.48862738795E+03  0.00000000000E+00 0.  1.
          4    1    6    6  502    0  0.12081778081E+01  0.95882398797E+01  0.19906857099E+02  0.22128646528E+02  0.00000000000E+00 0. -1.
          3    1    5    5  503    0  0.53489187934E+02  0.53387321973E+02 -0.28527500331E+02  0.80778200329E+02  0.00000000000E+00 0. -1.
         -4    1    5    5    0  503  0.22751111020E+03  0.31616935487E+03  0.26790663247E+02  0.39043835091E+03  0.00000000000E+00 0.  1.
         -3    1    6    6    0  502 -0.61950528992E+02 -0.14515395933E+03  0.64560379643E+03  0.66461402477E+03  0.00000000000E+00 0.  1.
<mgrwt>
<rscale>  0 0.13939022E+04</rscale>
<asrwt>0</asrwt>
<pdfrwt beam="1">  1        2 0.26586736E+00 0.13939022E+04</pdfrwt>
<pdfrwt beam="2">  1       -2 0.43242710E-01 0.13939022E+04</pdfrwt>
<totfact> 0.46702595E+01</totfact>
</mgrwt>
</event>
<event>
12    1  0.1496989E-007  0.1414453E+04  0.7818608E-02  0.8943423E-01
         -1   -1    0    0    0  501 -0.00000000000E+00  0.00000000000E+00  0.55775159465E+03  0.55775159465E+03  0.00000000000E+00 0.  1.
          1   -1    0    0  501    0  0.00000000000E+00 -0.00000000000E+00 -0.89676004125E+03  0.89676004125E+03  0.00000000000E+00 0. -1.
         23    2    1    2    0    0  0.65205293333E+02  0.39463856868E+03 -0.53179966782E+02  0.41503436041E+03  0.97129198909E+02 0.  0.
        254    2    1    2    0    0 -0.65205293333E+02 -0.39463856868E+03 -0.28582847981E+03  0.10394772755E+04  0.91587322060E+03 0.  0.
        -24    2    4    4    0    0 -0.13477066489E+03 -0.43907258911E+03  0.22377477608E+03  0.51693623366E+03  0.78740387603E+02 0.  0.
         24    2    4    4    0    0  0.69565371553E+02  0.44434020431E+02 -0.50960325590E+03  0.52254104183E+03  0.80869888589E+02 0.  0.
         13    1    3    3    0    0  0.49152786924E+02  0.94050429269E+02 -0.41020489666E+02  0.11377240562E+03  0.00000000000E+00 0.  1.
        -13    1    3    3    0    0  0.16052506409E+02  0.30058813941E+03 -0.12159477116E+02  0.30126195479E+03  0.00000000000E+00 0. -1.
          4    1    6    6  502    0  0.41261865100E+02  0.16427432462E+02 -0.44091633990E+03  0.44314740306E+03  0.00000000000E+00 0. -1.
          1    1    5    5  503    0 -0.16175295370E+02 -0.45722304000E+02  0.53493036097E+02  0.72205776599E+02  0.00000000000E+00 0. -1.
         -2    1    5    5    0  503 -0.11859536952E+03 -0.39335028511E+03  0.17028173999E+03  0.44473045707E+03  0.00000000000E+00 0.  1.
         -3    1    6    6    0  502  0.28303506453E+02  0.28006587969E+02 -0.68686916001E+02  0.79393638768E+02  0.00000000000E+00 0.  1.
<mgrwt>
<rscale>  0 0.14144530E+04</rscale>
<asrwt>0</asrwt>
<pdfrwt beam="1">  1        1 0.13796308E+00 0.14144530E+04</pdfrwt>
<pdfrwt beam="2">  1       -1 0.85807938E-01 0.14144530E+04</pdfrwt>
<totfact> 0.23924160E+01</totfact>
</mgrwt>
</event>
<event>
12    1  0.1496989E-007  0.2254084E+04  0.7818608E-02  0.8496248E-01
          1   -1    0    0  501    0  0.00000000000E+00  0.00000000000E+00  0.13781875291E+04  0.13781875291E+04  0.00000000000E+00 0. -1.
         -1   -1    0    0    0  501 -0.00000000000E+00 -0.00000000000E+00 -0.92166277234E+03  0.92166277234E+03  0.00000000000E+00 0.  1.
         23    2    1    2    0    0 -0.64967149416E+03  0.66119781826E+01 -0.50367238402E+03  0.82922241909E+03  0.10866085458E+03 0.  0.
        254    2    1    2    0    0  0.64967149416E+03 -0.66119781826E+01  0.96019714075E+03  0.14706278823E+04  0.90479337450E+03 0.  0.
        -24    2    4    4    0    0  0.45521048652E+03 -0.25457391491E+01  0.11168605588E+04  0.12086885508E+04  0.79545189552E+02 0.  0.
         24    2    4    4    0    0  0.19446100764E+03 -0.40662390335E+01 -0.15666341809E+03  0.26193933148E+03  0.78975749560E+02 0.  0.
         11    1    3    3    0    0 -0.47432705570E+03 -0.39824884644E+02 -0.38791150611E+03  0.61404194789E+03  0.00000000000E+00 0.  1.
        -11    1    3    3    0    0 -0.17534443846E+03  0.46436862827E+02 -0.11576087791E+03  0.21518047120E+03  0.00000000000E+00 0. -1.
          4    1    6    6  502    0  0.44149079111E+01 -0.95297225258E+01 -0.34226865936E+02  0.35802030320E+02  0.00000000000E+00 0. -1.
          3    1    5    5  503    0  0.95749658793E+02  0.12752736931E+02  0.16632072820E+03  0.19233620067E+03  0.00000000000E+00 0. -1.
         -4    1    5    5    0  503  0.35946082773E+03 -0.15298476081E+02  0.95053983064E+03  0.10163523502E+04  0.00000000000E+00 0.  1.
         -3    1    6    6    0  502  0.19004609973E+03  0.54634834924E+01 -0.12243655215E+03  0.22613730116E+03  0.00000000000E+00 0.  1.
<mgrwt>
<rscale>  0 0.22540844E+04</rscale>
<asrwt>0</asrwt>
<pdfrwt beam="1">  1        1 0.21202885E+00 0.22540844E+04</pdfrwt>
<pdfrwt beam="2">  1       -1 0.14179427E+00 0.22540844E+04</pdfrwt>
<totfact> 0.29281752E+00</totfact>
</mgrwt>
</event>
<event>
12    1  0.1496989E-007  0.1481970E+04  0.7818608E-02  0.8896532E-01
         -2   -1    0    0    0  501 -0.00000000000E+00  0.00000000000E+00  0.59824311978E+03  0.59824311978E+03  0.00000000000E+00 0.  1.
          2   -1    0    0  501    0  0.00000000000E+00 -0.00000000000E+00 -0.91778588585E+03  0.91778588585E+03  0.00000000000E+00 0. -1.
         23    2    1    2    0    0  0.41731260522E+03  0.20653723081E+03 -0.94133193765E+02  0.48303221470E+03  0.87473562198E+02 0.  0.
        254    2    1    2    0    0 -0.41731260522E+03 -0.20653723081E+03 -0.22540957231E+03  0.10329967909E+04  0.89412832222E+03 0.  0.
        -24    2    4    4    0    0  0.37855744967E+02 -0.42174189629E+03 -0.28936029468E+03  0.51923551186E+03  0.81097793560E+02 0.  0.
         24    2    4    4    0    0 -0.45516835019E+03  0.21520466548E+03  0.63950722369E+02  0.51376127907E+03  0.79810287103E+02 0.  0.
         13    1    3    3    0    0  0.11004977431E+03  0.15615981598E+02 -0.97925067740E+01  0.11158272669E+03  0.00000000000E+00 0. -1.
        -13    1    3    3    0    0  0.30726283091E+03  0.19092124921E+03 -0.84340686990E+02  0.37144948801E+03  0.00000000000E+00 0.  1.
          2    1    6    6  502    0 -0.26152483635E+03  0.79712174780E+02  0.31831359527E+02  0.27524989788E+03  0.00000000000E+00 0. -1.
          1    1    5    5  503    0 -0.18035470253E+02 -0.11549437230E+03 -0.52897324477E+02  0.12830570976E+03  0.00000000000E+00 0. -1.
         -2    1    5    5    0  503  0.55891215220E+02 -0.30624752400E+03 -0.23646297020E+03  0.39092980210E+03  0.00000000000E+00 0.  1.
         -1    1    6    6    0  502 -0.19364351384E+03  0.13549249070E+03  0.32119362843E+02  0.23851138119E+03  0.00000000000E+00 0.  1.
<mgrwt>
<rscale>  0 0.14819704E+04</rscale>
<asrwt>0</asrwt>
<pdfrwt beam="1">  1        2 0.14119783E+00 0.14819704E+04</pdfrwt>
<pdfrwt beam="2">  1       -2 0.92037403E-01 0.14819704E+04</pdfrwt>
<totfact> 0.27697437E+01</totfact>
</mgrwt>
</event>
<event>
12    1  0.1496989E-007  0.1234535E+04  0.7818608E-02  0.9083154E-01
          1   -1    0    0  501    0  0.00000000000E+00  0.00000000000E+00  0.13064553728E+04  0.13064553728E+04  0.00000000000E+00 0. -1.
         -1   -1    0    0    0  501 -0.00000000000E+00 -0.00000000000E+00 -0.29164324306E+03  0.29164324306E+03  0.00000000000E+00 0.  1.
         23    2    1    2    0    0  0.70350528540E+02  0.30990736598E+03  0.25085705331E+03  0.41472104251E+03  0.89847145442E+02 0.  0.
        254    2    1    2    0    0 -0.70350528540E+02 -0.30990736598E+03  0.76395507646E+03  0.11833775734E+04  0.84602798418E+03 0.  0.
        -24    2    4    4    0    0 -0.16831071128E+03  0.24145581032E+03  0.42562884875E+03  0.52461047980E+03  0.86179085359E+02 0.  0.
         24    2    4    4    0    0  0.97960182741E+02 -0.55136317631E+03  0.33832622771E+03  0.65876709360E+03  0.76888865645E+02 0.  0.
         13    1    3    3    0    0  0.79430616931E+02  0.29760011901E+03  0.25384268987E+03  0.39913802743E+03  0.00000000000E+00 0. -1.
        -13    1    3    3    0    0 -0.90800883909E+01  0.12307246970E+02 -0.29856365552E+01  0.15583015074E+02  0.00000000000E+00 0.  1.
          4    1    6    6  502    0  0.10213681927E+03 -0.37639846577E+03  0.22484285607E+03  0.45018001378E+03  0.00000000000E+00 0. -1.
          3    1    5    5  503    0 -0.14191726633E+03  0.23808316265E+03  0.40581038275E+03  0.49143277217E+03  0.00000000000E+00 0. -1.
         -4    1    5    5    0  503 -0.26393444946E+02  0.33726476759E+01  0.19818466004E+02  0.33177707624E+02  0.00000000000E+00 0.  1.
         -3    1    6    6    0  502 -0.41766365322E+01 -0.17496471054E+03  0.11348337164E+03  0.20858707982E+03  0.00000000000E+00 0.  1.
<mgrwt>
<rscale>  0 0.12345345E+04</rscale>
<asrwt>0</asrwt>
<pdfrwt beam="1">  1        1 0.20099313E+00 0.12345345E+04</pdfrwt>
<pdfrwt beam="2">  1       -1 0.44868192E-01 0.12345345E+04</pdfrwt>
<totfact> 0.43497201E+01</totfact>
</mgrwt>
</event>
<event>
12    1  0.1496989E-007  0.1903371E+04  0.7818608E-02  0.8653180E-01
          2   -1    0    0  501    0  0.00000000000E+00  0.00000000000E+00  0.10733268491E+04  0.10733268491E+04  0.00000000000E+00 0. -1.
         -2   -1    0    0    0  501 -0.00000000000E+00 -0.00000000000E+00 -0.84382994386E+03  0.84382994386E+03  0.00000000000E+00 0.  1.
         23    2    1    2    0    0 -0.65021987351E+03  0.32556126495E+03 -0.45501210278E+02  0.73453993002E+03  0.93287338420E+02 0.  0.
        254    2    1    2    0    0  0.65021987351E+03 -0.32556126495E+03  0.27499811555E+03  0.11826168630E+04  0.89116926556E+03 0.  0.
        -24    2    4    4    0    0  0.67253026621E+03  0.75769403204E+02 -0.13405452251E+02  0.68158491925E+03  0.79626217924E+02 0.  0.
         24    2    4    4    0    0 -0.22310392697E+02 -0.40133066815E+03  0.28840356780E+03  0.50103194371E+03  0.79324219990E+02 0.  0.
         13    1    3    3    0    0 -0.41742367063E+03  0.19890930222E+03  0.15261388408E+02  0.46264494084E+03  0.00000000000E+00 0. -1.
        -13    1    3    3    0    0 -0.23279620288E+03  0.12665196273E+03 -0.60762598686E+02  0.27189498917E+03  0.00000000000E+00 0.  1.
          4    1    6    6  502    0 -0.66723982690E+01 -0.25260024847E+03  0.13377320245E+03  0.28591375643E+03  0.00000000000E+00 0. -1.
          3    1    5    5  503    0  0.11478591022E+03 -0.14193033687E+02 -0.15006804414E+02  0.11662954844E+03  0.00000000000E+00 0. -1.
         -4    1    5    5    0  503  0.55774435598E+03  0.89962436891E+02  0.16013521630E+01  0.56495537081E+03  0.00000000000E+00 0.  1.
         -3    1    6    6    0  502 -0.15637994428E+02 -0.14873041969E+03  0.15463036535E+03  0.21511818728E+03  0.00000000000E+00 0.  1.
<mgrwt>
<rscale>  0 0.19033710E+04</rscale>
<asrwt>0</asrwt>
<pdfrwt beam="1">  1        2 0.16512721E+00 0.19033710E+04</pdfrwt>
<pdfrwt beam="2">  1       -2 0.12981999E+00 0.19033710E+04</pdfrwt>
<totfact> 0.92365660E+00</totfact>
</mgrwt>
</event>
<event>
12    1  0.1496989E-007  0.1356836E+04  0.7818608E-02  0.8985669E-01
         -1   -1    0    0    0  501 -0.00000000000E+00  0.00000000000E+00  0.15789082028E+03  0.15789082028E+03  0.00000000000E+00 0.  1.
          1   -1    0    0  501    0  0.00000000000E+00 -0.00000000000E+00 -0.29149970753E+04  0.29149970753E+04  0.00000000000E+00 0. -1.
         23    2    1    2    0    0 -0.24693070454E+03 -0.15161487571E+03 -0.18300795306E+04  0.18561438268E+04  0.11007712739E+03 0.  0.
        254    2    1    2    0    0  0.24693070454E+03  0.15161487571E+03 -0.92702672438E+03  0.12167440688E+04  0.73288862578E+03 0.  0.
        -24    2    4    4    0    0  0.20981058290E+03 -0.26673309546E+03 -0.31115462272E+03  0.46705713604E+03  0.78473843850E+02 0.  0.
         24    2    4    4    0    0  0.37120121635E+02  0.41834797117E+03 -0.61587210165E+03  0.74968693273E+03  0.79618610319E+02 0.  0.
         13    1    3    3    0    0 -0.70830910235E+02 -0.27142901785E+02 -0.80854847443E+03  0.81209875659E+03  0.00000000000E+00 0. -1.
        -13    1    3    3    0    0 -0.17609979430E+03 -0.12447197392E+03 -0.10215310562E+04  0.10440450702E+04  0.00000000000E+00 0.  1.
          4    1    6    6  502    0  0.32140651103E+02  0.19658512301E+03 -0.35670308814E+03  0.40855333205E+03  0.00000000000E+00 0. -1.
          3    1    5    5  503    0  0.83373866303E+02 -0.62586169530E+02 -0.12781188787E+03  0.16493668142E+03  0.00000000000E+00 0. -1.
         -4    1    5    5    0  503  0.12643671660E+03 -0.20414692593E+03 -0.18334273486E+03  0.30212045461E+03  0.00000000000E+00 0.  1.
         -3    1    6    6    0  502  0.49794705324E+01  0.22176284816E+03 -0.25916901351E+03  0.34113360068E+03  0.00000000000E+00 0.  1.
<mgrwt>
<rscale>  0 0.13568364E+04</rscale>
<asrwt>0</asrwt>
<pdfrwt beam="1">  1        1 0.44846103E+00 0.13568364E+04</pdfrwt>
<pdfrwt beam="2">  1       -1 0.24290899E-01 0.13568364E+04</pdfrwt>
<totfact> 0.99985758E+00</totfact>
</mgrwt>
</event>
<event>
12    1  0.1496989E-007  0.1868097E+04  0.7818608E-02  0.8670901E-01
          2   -1    0    0  501    0  0.00000000000E+00  0.00000000000E+00  0.25429297718E+04  0.25429297718E+04  0.00000000000E+00 0. -1.
         -2   -1    0    0    0  501 -0.00000000000E+00 -0.00000000000E+00 -0.34308735520E+03  0.34308735520E+03  0.00000000000E+00 0.  1.
         23    2    1    2    0    0 -0.13516743240E+03  0.41060808309E+03 -0.30511962270E+02  0.44286384013E+03  0.91258798850E+02 0.  0.
        254    2    1    2    0    0  0.13516743240E+03 -0.41060808309E+03  0.22303543788E+04  0.24431532869E+04  0.89869243634E+03 0.  0.
        -24    2    4    4    0    0 -0.20935348708E+03  0.12967340599E+03  0.24826274658E+03  0.35848942123E+03  0.78969608201E+02 0.  0.
         24    2    4    4    0    0  0.34452091948E+03 -0.54028148908E+03  0.19820916323E+04  0.20846638656E+04  0.80854452756E+02 0.  0.
         13    1    3    3    0    0 -0.32913549982E+02  0.17597540266E+03 -0.50857334816E+02  0.18611048498E+03  0.00000000000E+00 0.  1.
        -13    1    3    3    0    0 -0.10225388242E+03  0.23463268043E+03  0.20345372547E+02  0.25675335515E+03  0.00000000000E+00 0. -1.
          4    1    6    6  502    0  0.13448824127E+03 -0.23404937802E+03  0.95900452091E+03  0.99627098197E+03  0.00000000000E+00 0. -1.
          3    1    5    5  503    0 -0.28459909100E+01  0.28451344594E+02  0.29406374562E+02  0.41016015632E+02  0.00000000000E+00 0. -1.
         -4    1    5    5    0  503 -0.20650749617E+03  0.10122206140E+03  0.21885637202E+03  0.31747340560E+03  0.00000000000E+00 0.  1.
         -3    1    6    6    0  502  0.21003267821E+03 -0.30623211106E+03  0.10230871114E+04  0.10883928837E+04  0.00000000000E+00 0.  1.
<mgrwt>
<rscale>  0 0.18680975E+04</rscale>
<asrwt>0</asrwt>
<pdfrwt beam="1">  1        2 0.39121995E+00 0.18680975E+04</pdfrwt>
<pdfrwt beam="2">  1       -2 0.52782672E-01 0.18680975E+04</pdfrwt>
<totfact> 0.10459845E+01</totfact>
</mgrwt>
</event>
<event>
12    1  0.1496989E-007  0.1282669E+04  0.7818608E-02  0.9043422E-01
          1   -1    0    0  501    0  0.00000000000E+00  0.00000000000E+00  0.29524080172E+03  0.29524080172E+03  0.00000000000E+00 0. -1.
         -1   -1    0    0    0  501 -0.00000000000E+00 -0.00000000000E+00 -0.13931346604E+04  0.13931346604E+04  0.00000000000E+00 0.  1.
         23    2    1    2    0    0 -0.11394328958E+03  0.22259816432E+03 -0.25588478873E+02  0.26748195996E+03  0.91426542388E+02 0.  0.
        254    2    1    2    0    0  0.11394328958E+03 -0.22259816432E+03 -0.10723053798E+04  0.14208935022E+04  0.89809047481E+03 0.  0.
        -24    2    4    4    0    0  0.15314649701E+03 -0.55091522457E+03 -0.54950887854E+03  0.79701849506E+03  0.79479806696E+02 0.  0.
         24    2    4    4    0    0 -0.39203207429E+02  0.32831706025E+03 -0.52279650130E+03  0.62387500713E+03  0.81085505671E+02 0.  0.
         13    1    3    3    0    0 -0.12409602355E+03  0.22392882486E+03 -0.24555492025E+02  0.25719042333E+03  0.00000000000E+00 0. -1.
        -13    1    3    3    0    0  0.10152733966E+02 -0.13306605359E+01 -0.10329868478E+01  0.10291536633E+02  0.00000000000E+00 0.  1.
          2    1    6    6  502    0 -0.17124753241E+02  0.30265932550E+03 -0.43895161380E+03  0.53345519375E+03  0.00000000000E+00 0. -1.
          1    1    5    5  503    0  0.13022122471E+03 -0.37252466000E+03 -0.33998052540E+03  0.52088285375E+03  0.00000000000E+00 0. -1.
         -2    1    5    5    0  503  0.22925272295E+02 -0.17839056457E+03 -0.20952835314E+03  0.27613564132E+03  0.00000000000E+00 0.  1.
         -1    1    6    6    0  502 -0.22078454188E+02  0.25657734752E+02 -0.83844887492E+02  0.90419813374E+02  0.00000000000E+00 0.  1.
<mgrwt>
<rscale>  0 0.12826694E+04</rscale>
<asrwt>0</asrwt>
<pdfrwt beam="1">  1        1 0.45421662E-01 0.12826694E+04</pdfrwt>
<pdfrwt beam="2">  1       -1 0.21432841E+00 0.12826694E+04</pdfrwt>
<totfact> 0.10587077E+01</totfact>
</mgrwt>
</event>
<event>
12    1  0.1496989E-007  0.1998661E+04  0.7818608E-02  0.8607247E-01
         -2   -1    0    0    0  501 -0.00000000000E+00  0.00000000000E+00  0.70664288523E+03  0.70664288523E+03  0.00000000000E+00 0.  1.
          2   -1    0    0  501    0  0.00000000000E+00 -0.00000000000E+00 -0.14132480282E+04  0.14132480282E+04  0.00000000000E+00 0. -1.
         23    2    1    2    0    0 -0.18270198701E+03  0.74963322800E+03 -0.95244538214E+02  0.78256235315E+03  0.89455698175E+02 0.  0.
        254    2    1    2    0    0  0.18270198701E+03 -0.74963322800E+03 -0.61136060471E+03  0.13373285602E+04  0.90518279726E+03 0.  0.
        -24    2    4    4    0    0  0.45408792869E+03 -0.27994089553E+03 -0.57377821320E+03  0.78760815973E+03  0.80885248107E+02 0.  0.
         24    2    4    4    0    0 -0.27138594168E+03 -0.46969233247E+03 -0.37582391504E+02  0.54972040050E+03  0.80739495002E+02 0.  0.
         11    1    3    3    0    0 -0.18579384241E+03  0.64031713288E+03 -0.92976431678E+02  0.67317902477E+03  0.00000000000E+00 0.  1.
        -11    1    3    3    0    0  0.30918554012E+01  0.10931609511E+03 -0.22681065360E+01  0.10938332838E+03  0.00000000000E+00 0. -1.
          4    1    6    6  502    0 -0.26901925051E+03 -0.43679932217E+03 -0.22586880358E+02  0.51349310819E+03  0.00000000000E+00 0. -1.
          3    1    5    5  503    0  0.23744059684E+03 -0.16978640490E+03 -0.26155116621E+03  0.39193682254E+03  0.00000000000E+00 0. -1.
         -4    1    5    5    0  503  0.21664733185E+03 -0.11015449063E+03 -0.31222704700E+03  0.39567133720E+03  0.00000000000E+00 0.  1.
         -3    1    6    6    0  502 -0.23666911683E+01 -0.32893010297E+02 -0.14995511146E+02  0.36227292308E+02  0.00000000000E+00 0.  1.
<mgrwt>
<rscale>  0 0.19986612E+04</rscale>
<asrwt>0</asrwt>
<pdfrwt beam="1">  1        2 0.21742277E+00 0.19986612E+04</pdfrwt>
<pdfrwt beam="2">  1       -2 0.10871429E+00 0.19986612E+04</pdfrwt>
<totfact> 0.89331494E+00</totfact>
</mgrwt>
</event>
<event>
12    1  0.1496989E-007  0.1527542E+04  0.7818608E-02  0.8866342E-01
         -2   -1    0    0    0  501 -0.00000000000E+00  0.00000000000E+00  0.95070218138E+03  0.95070218138E+03  0.00000000000E+00 0.  1.
          2   -1    0    0  501    0  0.00000000000E+00 -0.00000000000E+00 -0.61359497615E+03  0.61359497615E+03  0.00000000000E+00 0. -1.
         23    2    1    2    0    0 -0.17375021458E+03 -0.27521361353E+03 -0.28415385623E+03  0.44178788096E+03  0.92203295031E+02 0.  0.
        254    2    1    2    0    0  0.17375021458E+03  0.27521361353E+03  0.62126106145E+03  0.11225092766E+04  0.87643031633E+03 0.  0.
        -24    2    4    4    0    0  0.30438361979E+03  0.32285853186E+03 -0.29839456041E+02  0.45188154492E+03  0.80121894077E+02 0.  0.
         24    2    4    4    0    0 -0.13063340521E+03 -0.47644918330E+02  0.65110051750E+03  0.67062773166E+03  0.80464562280E+02 0.  0.
         13    1    3    3    0    0 -0.77080332419E+02 -0.12164881055E+03 -0.18678261381E+03  0.23585494604E+03  0.00000000000E+00 0.  1.
        -13    1    3    3    0    0 -0.96669882164E+02 -0.15356480298E+03 -0.97371242424E+02  0.20593293492E+03  0.00000000000E+00 0. -1.
          2    1    6    6  502    0 -0.79808179996E+01  0.16709394234E+01  0.22656230114E+01  0.84627739028E+01  0.00000000000E+00 0. -1.
          3    1    5    5  503    0  0.10386711536E+03  0.14636266532E+03 -0.42561475339E+02  0.18445022807E+03  0.00000000000E+00 0. -1.
         -4    1    5    5    0  503  0.20051650444E+03  0.17649586653E+03  0.12722019299E+02  0.26743131685E+03  0.00000000000E+00 0.  1.
         -1    1    6    6    0  502 -0.12265258721E+03 -0.49315857754E+02  0.64883489448E+03  0.66216495775E+03  0.00000000000E+00 0.  1.
<mgrwt>
<rscale>  0 0.15275419E+04</rscale>
<asrwt>0</asrwt>
<pdfrwt beam="1">  1        2 0.94399228E-01 0.15275419E+04</pdfrwt>
<pdfrwt beam="2">  1       -2 0.14626187E+00 0.15275419E+04</pdfrwt>
<totfact> 0.14895241E+01</totfact>
</mgrwt>
</event>
<event>
12    1  0.1496989E-007  0.1409885E+04  0.7818608E-02  0.8946694E-01
         -2   -1    0    0    0  501 -0.00000000000E+00  0.00000000000E+00  0.15338087453E+03  0.15338087453E+03  0.00000000000E+00 0.  1.
          2   -1    0    0  501    0  0.00000000000E+00 -0.00000000000E+00 -0.32399352538E+04  0.32399352538E+04  0.00000000000E+00 0. -1.
         23    2    1    2    0    0 -0.61244943503E+02 -0.24617063410E+03 -0.15953702256E+03  0.31317079100E+03  0.90955805587E+02 0.  0.
        254    2    1    2    0    0  0.61244943503E+02  0.24617063410E+03 -0.29270173567E+04  0.30801453373E+04  0.92493987287E+03 0.  0.
        -24    2    4    4    0    0  0.11060737325E+03 -0.33221199600E+03 -0.13818768855E+04  0.14276223096E+04  0.76960580196E+02 0.  0.
         24    2    4    4    0    0 -0.49362429752E+02  0.57838263011E+03 -0.15451404712E+04  0.16525230277E+04  0.80063506794E+02 0.  0.
         13    1    3    3    0    0  0.24961917078E+01 -0.14723702984E+02 -0.44555478339E+02  0.46991584913E+02  0.00000000000E+00 0. -1.
        -13    1    3    3    0    0 -0.63741135210E+02 -0.23144693112E+03 -0.11498154422E+03  0.26617920609E+03  0.00000000000E+00 0.  1.
          4    1    6    6  502    0 -0.20232446508E+02  0.54236654472E+02 -0.21164744682E+03  0.21942107539E+03  0.00000000000E+00 0. -1.
          1    1    5    5  503    0  0.10269790666E+03 -0.25565608277E+03 -0.95867821169E+03  0.99748223355E+03  0.00000000000E+00 0. -1.
         -2    1    5    5    0  503  0.79094665972E+01 -0.76555913236E+02 -0.42319867377E+03  0.43014007601E+03  0.00000000000E+00 0.  1.
         -3    1    6    6    0  502 -0.29129983244E+02  0.52414597563E+03 -0.13334930244E+04  0.14331019524E+04  0.00000000000E+00 0.  1.
<mgrwt>
<rscale>  0 0.14098852E+04</rscale>
<asrwt>0</asrwt>
<pdfrwt beam="1">  1        2 0.49845158E+00 0.14098852E+04</pdfrwt>
<pdfrwt beam="2">  1       -2 0.23597057E-01 0.14098852E+04</pdfrwt>
<totfact> 0.19146605E+01</totfact>
</mgrwt>
</event>
<event>
12    1  0.1496989E-007  0.2301413E+04  0.7818608E-02  0.8477364E-01
          1   -1    0    0  501    0  0.00000000000E+00  0.00000000000E+00  0.13603999195E+04  0.13603999195E+04  0.00000000000E+00 0. -1.
         -1   -1    0    0    0  501 -0.00000000000E+00 -0.00000000000E+00 -0.97333526697E+03  0.97333526697E+03  0.00000000000E+00 0.  1.
         23    2    1    2    0    0  0.27155958325E+03 -0.21669468359E+03 -0.75402929306E+03  0.83420001055E+03  0.81414308691E+02 0.  0.
        254    2    1    2    0    0 -0.27155958325E+03  0.21669468359E+03  0.11410939455E+04  0.14995351759E+04  0.90874042389E+03 0.  0.
        -24    2    4    4    0    0  0.76382189644E+02 -0.31120014900E+03  0.46476080143E+03  0.57023693298E+03  0.80546791062E+02 0.  0.
         24    2    4    4    0    0 -0.34794177290E+03  0.52789483259E+03  0.67633314410E+03  0.92929824290E+03  0.80201439193E+02 0.  0.
         11    1    3    3    0    0  0.20626688551E+03 -0.11579856552E+03 -0.50945116312E+03  0.56169014896E+03  0.00000000000E+00 0.  1.
        -11    1    3    3    0    0  0.65292697740E+02 -0.10089611806E+03 -0.24457812994E+03  0.27250986158E+03  0.00000000000E+00 0. -1.
          2    1    6    6  502    0 -0.30144498374E+03  0.45596418596E+03  0.62117339461E+03  0.82742298933E+03  0.00000000000E+00 0. -1.
          3    1    5    5  503    0  0.37191938221E+02 -0.88567823585E+02  0.84897338497E+02  0.12819928911E+03  0.00000000000E+00 0. -1.
         -4    1    5    5    0  503  0.39190251423E+02 -0.22263232541E+03  0.37986346293E+03  0.44203764387E+03  0.00000000000E+00 0.  1.
         -1    1    6    6    0  502 -0.46496789155E+02  0.71930646629E+02  0.55159749493E+02  0.10187525357E+03  0.00000000000E+00 0.  1.
<mgrwt>
<rscale>  0 0.23014128E+04</rscale>
<asrwt>0</asrwt>
<pdfrwt beam="1">  1        1 0.20929230E+00 0.23014128E+04</pdfrwt>
<pdfrwt beam="2">  1       -1 0.14974389E+00 0.23014128E+04</pdfrwt>
<totfact> 0.25956827E+00</totfact>
</mgrwt>
</event>
<event>
12    1  0.1496989E-007  0.1225731E+04  0.7818608E-02  0.9090627E-01
         -2   -1    0    0    0  501 -0.00000000000E+00  0.00000000000E+00  0.26900433029E+03  0.26900433029E+03  0.00000000000E+00 0.  1.
          2   -1    0    0  501    0  0.00000000000E+00 -0.00000000000E+00 -0.13962761992E+04  0.13962761992E+04  0.00000000000E+00 0. -1.
         23    2    1    2    0    0  0.19981786189E+03 -0.12349300686E+03 -0.42461310650E+03  0.49385742547E+03  0.91766910200E+02 0.  0.
        254    2    1    2    0    0 -0.19981786189E+03  0.12349300686E+03 -0.70265876242E+03  0.11714231040E+04  0.90737260901E+03 0.  0.
        -24    2    4    4    0    0 -0.17150859018E+03 -0.27943562433E+03  0.22345899108E+02  0.33762744876E+03  0.77417635555E+02 0.  0.
         24    2    4    4    0    0 -0.28309271710E+02  0.40292863119E+03 -0.72500466153E+03  0.83379565528E+03  0.80190640520E+02 0.  0.
         13    1    3    3    0    0  0.49455665612E+02  0.37594850101E+01 -0.13300843997E+03  0.14195506927E+03  0.00000000000E+00 0.  1.
        -13    1    3    3    0    0  0.15036219628E+03 -0.12725249187E+03 -0.29160466653E+03  0.35190235620E+03  0.00000000000E+00 0. -1.
          2    1    6    6  502    0 -0.12033941865E+02  0.24872377591E+02 -0.94473360524E+02  0.98431025457E+02  0.00000000000E+00 0. -1.
          1    1    5    5  503    0 -0.93208738488E+02 -0.17126502595E+03  0.49919527705E+02  0.20127478056E+03  0.00000000000E+00 0. -1.
         -2    1    5    5    0  503 -0.78299851696E+02 -0.10817059838E+03 -0.27573628598E+02  0.13635266820E+03  0.00000000000E+00 0.  1.
         -1    1    6    6    0  502 -0.16275329845E+02  0.37805625360E+03 -0.63053130101E+03  0.73536462982E+03  0.00000000000E+00 0.  1.
<mgrwt>
<rscale>  0 0.12257314E+04</rscale>
<asrwt>0</asrwt>
<pdfrwt beam="1">  1        2 0.21481172E+00 0.12257314E+04</pdfrwt>
<pdfrwt beam="2">  1       -2 0.41385282E-01 0.12257314E+04</pdfrwt>
<totfact> 0.79193001E+01</totfact>
</mgrwt>
</event>
<event>
12    1  0.1496989E-007  0.2566053E+04  0.7818608E-02  0.8379825E-01
         -1   -1    0    0    0  501 -0.00000000000E+00  0.00000000000E+00  0.18797817898E+04  0.18797817898E+04  0.00000000000E+00 0.  1.
          1   -1    0    0  501    0  0.00000000000E+00 -0.00000000000E+00 -0.87571697643E+03  0.87571697643E+03  0.00000000000E+00 0. -1.
         23    2    1    2    0    0 -0.89949572508E+03  0.18297711165E+03  0.11410874281E+04  0.14673140073E+04  0.91414957930E+02 0.  0.
        254    2    1    2    0    0  0.89949572508E+03 -0.18297711165E+03 -0.13702261472E+03  0.12881847590E+04  0.89334852857E+03 0.  0.
        -24    2    4    4    0    0  0.12025040166E+03  0.41056627538E+02  0.32045562602E+03  0.35361680251E+03  0.78785969601E+02 0.  0.
         24    2    4    4    0    0  0.77924532342E+03 -0.22403373919E+03 -0.45747824074E+03  0.93456795647E+03  0.81954463768E+02 0.  0.
         13    1    3    3    0    0 -0.80292285913E+02  0.20358205488E+02  0.14903654027E+03  0.17050864507E+03  0.00000000000E+00 0. -1.
        -13    1    3    3    0    0 -0.81920343917E+03  0.16261890616E+03  0.99205088783E+03  0.12968053622E+04  0.00000000000E+00 0.  1.
          2    1    6    6  502    0  0.68038791650E+03 -0.22162145542E+03 -0.39121172600E+03  0.81553074803E+03  0.00000000000E+00 0. -1.
          1    1    5    5  503    0  0.27888374305E+02  0.14874487665E+01  0.17262879320E+03  0.17487330890E+03  0.00000000000E+00 0. -1.
         -2    1    5    5    0  503  0.92362027352E+02  0.39569178772E+02  0.14782683283E+03  0.17874349361E+03  0.00000000000E+00 0.  1.
         -3    1    6    6    0  502  0.98857406920E+02 -0.24122837658E+01 -0.66266514737E+02  0.11903720843E+03  0.00000000000E+00 0.  1.
<mgrwt>
<rscale>  0 0.25660529E+04</rscale>
<asrwt>0</asrwt>
<pdfrwt beam="1">  1        1 0.13472569E+00 0.25660529E+04</pdfrwt>
<pdfrwt beam="2">  1       -1 0.28919720E+00 0.25660529E+04</pdfrwt>
<totfact> 0.65321785E-01</totfact>
</mgrwt>
</event>
<event>
12    1  0.1496989E-007  0.1614781E+04  0.7818608E-02  0.8811519E-01
          1   -1    0    0  501    0  0.00000000000E+00  0.00000000000E+00  0.20182395931E+04  0.20182395931E+04  0.00000000000E+00 0. -1.
         -1   -1    0    0    0  501 -0.00000000000E+00 -0.00000000000E+00 -0.32299400875E+03  0.32299400875E+03  0.00000000000E+00 0.  1.
         23    2    1    2    0    0  0.19538979699E+03 -0.38529314778E+03  0.10923787405E+03  0.45480577484E+03  0.91035142720E+02 0.  0.
        254    2    1    2    0    0 -0.19538979699E+03  0.38529314778E+03  0.15860077103E+04  0.18864278270E+04  0.92550608150E+03 0.  0.
        -24    2    4    4    0    0 -0.39229244682E+03 -0.58947993222E+02  0.28456713494E+03  0.49493471042E+03  0.81324556897E+02 0.  0.
         24    2    4    4    0    0  0.19690264983E+03  0.44424114100E+03  0.13014405754E+04  0.13914931166E+04  0.79904176727E+02 0.  0.
         13    1    3    3    0    0  0.15415327566E+03 -0.34867396908E+03  0.11775594316E+03  0.39900279606E+03  0.00000000000E+00 0.  1.
        -13    1    3    3    0    0  0.41236521329E+02 -0.36619178693E+02 -0.85180691112E+01  0.55802978781E+02  0.00000000000E+00 0. -1.
          2    1    6    6  502    0  0.81943987847E+02  0.27601933767E+03  0.72339948847E+03  0.77859380413E+03  0.00000000000E+00 0. -1.
          1    1    5    5  503    0 -0.16870780965E+03 -0.66127500846E+02  0.12380326195E+03  0.21945937910E+03  0.00000000000E+00 0. -1.
         -2    1    5    5    0  503 -0.22358463716E+03  0.71795076242E+01  0.16076387300E+03  0.27547533132E+03  0.00000000000E+00 0.  1.
         -1    1    6    6    0  502  0.11495866198E+03  0.16822180333E+03  0.57804108692E+03  0.61289931249E+03  0.00000000000E+00 0.  1.
<mgrwt>
<rscale>  0 0.16147808E+04</rscale>
<asrwt>0</asrwt>
<pdfrwt beam="1">  1        1 0.31049839E+00 0.16147808E+04</pdfrwt>
<pdfrwt beam="2">  1       -1 0.49691387E-01 0.16147808E+04</pdfrwt>
<totfact> 0.11278330E+01</totfact>
</mgrwt>
</event>
<event>
12    1  0.1496989E-007  0.1629538E+04  0.7818608E-02  0.8802605E-01
         -2   -1    0    0    0  501 -0.00000000000E+00  0.00000000000E+00  0.56672639441E+03  0.56672639441E+03  0.00000000000E+00 0.  1.
          2   -1    0    0  501    0  0.00000000000E+00 -0.00000000000E+00 -0.11713736483E+04  0.11713736483E+04  0.00000000000E+00 0. -1.
         23    2    1    2    0    0  0.41564911073E+03  0.30010760877E+03  0.26537872450E+02  0.52130843248E+03  0.90716387760E+02 0.  0.
        254    2    1    2    0    0 -0.41564911073E+03 -0.30010760877E+03 -0.63118512633E+03  0.12167916102E+04  0.90518417956E+03 0.  0.
        -24    2    4    4    0    0 -0.60789986586E+03 -0.64890120466E+02 -0.13759162087E+03  0.63159403323E+03  0.78908770341E+02 0.  0.
         24    2    4    4    0    0  0.19225075513E+03 -0.23521748831E+03 -0.49359350546E+03  0.58519757699E+03  0.80833383136E+02 0.  0.
         13    1    3    3    0    0  0.39398975454E+03  0.30498758899E+03  0.22561142959E+02  0.49875280580E+03  0.00000000000E+00 0. -1.
        -13    1    3    3    0    0  0.21659356187E+02 -0.48799802213E+01  0.39767294904E+01  0.22555626678E+02  0.00000000000E+00 0.  1.
          2    1    6    6  502    0  0.68753522476E+02 -0.13486953579E+03 -0.19515598540E+03  0.24698724091E+03  0.00000000000E+00 0. -1.
          1    1    5    5  503    0 -0.97100884619E+00 -0.30266900015E+01 -0.70171133653E+01  0.77034791183E+01  0.00000000000E+00 0. -1.
         -2    1    5    5    0  503 -0.60692885701E+03 -0.61863430464E+02 -0.13057450751E+03  0.62389055412E+03  0.00000000000E+00 0.  1.
         -1    1    6    6    0  502  0.12349723265E+03 -0.10034795251E+03 -0.29843752007E+03  0.33821033608E+03  0.00000000000E+00 0.  1.
<mgrwt>
<rscale>  0 0.16295378E+04</rscale>
<asrwt>0</asrwt>
<pdfrwt beam="1">  1        2 0.18021133E+00 0.16295378E+04</pdfrwt>
<pdfrwt beam="2">  1       -2 0.87188677E-01 0.16295378E+04</pdfrwt>
<totfact> 0.21438457E+01</totfact>
</mgrwt>
</event>
<event>
12    1  0.1496989E-007  0.1450015E+04  0.7818608E-02  0.8918390E-01
          1   -1    0    0  501    0  0.00000000000E+00  0.00000000000E+00  0.56683548546E+03  0.56683548546E+03  0.00000000000E+00 0.  1.
         -1   -1    0    0    0  501 -0.00000000000E+00 -0.00000000000E+00 -0.92731619253E+03  0.92731619253E+03  0.00000000000E+00 0. -1.
         23    2    1    2    0    0 -0.93472176296E+02 -0.28029320023E+03 -0.44944023076E+03  0.54549282480E+03  0.90909708203E+02 0.  0.
        254    2    1    2    0    0  0.93472176296E+02  0.28029320023E+03  0.88959523690E+02  0.94865885319E+03  0.89707218051E+03 0.  0.
        -24    2    4    4    0    0  0.50675085471E+02  0.60212330814E+03  0.69434884524E+02  0.61347302901E+03  0.80046933971E+02 0.  0.
         24    2    4    4    0    0  0.42797090825E+02 -0.32183010790E+03  0.19524639166E+02  0.33518582418E+03  0.81006887753E+02 0.  0.
         13    1    3    3    0    0 -0.50952156399E+02 -0.24976898169E+03 -0.39377929375E+03  0.46908719727E+03  0.00000000000E+00 0. -1.
        -13    1    3    3    0    0 -0.42520019897E+02 -0.30524218543E+02 -0.55660937017E+02  0.76405627537E+02  0.00000000000E+00 0.  1.
          4    1    6    6  502    0  0.66836621625E+02 -0.22115439584E+03  0.16812789178E+02  0.23164427614E+03  0.00000000000E+00 0. -1.
          3    1    5    5  503    0  0.69668147569E+02  0.53355566588E+03  0.67449371848E+02  0.54229578382E+03  0.00000000000E+00 0. -1.
         -4    1    5    5    0  503 -0.18993062098E+02  0.68567642255E+02  0.19855126757E+01  0.71177245190E+02  0.00000000000E+00 0.  1.
         -3    1    6    6    0  502 -0.24039530800E+02 -0.10067571207E+03  0.27118499880E+01  0.10354154805E+03  0.00000000000E+00 0.  1.
<mgrwt>
<rscale>  0 0.14500148E+04</rscale>
<asrwt>0</asrwt>
<pdfrwt beam="1">  1        1 0.87205460E-01 0.14500148E+04</pdfrwt>
<pdfrwt beam="2">  1       -1 0.14266403E+00 0.14500148E+04</pdfrwt>
<totfact> 0.14399950E+01</totfact>
</mgrwt>
</event>
<event>
12    1  0.1496989E-007  0.1460174E+04  0.7818608E-02  0.8911377E-01
         -1   -1    0    0    0  501 -0.00000000000E+00  0.00000000000E+00  0.13680269605E+04  0.13680269605E+04  0.00000000000E+00 0.  1.
          1   -1    0    0  501    0  0.00000000000E+00 -0.00000000000E+00 -0.38963192277E+03  0.38963192277E+03  0.00000000000E+00 0. -1.
         23    2    1    2    0    0 -0.99173678619E+02  0.34551107292E+03  0.65571538162E+03  0.75243331551E+03  0.83545870979E+02 0.  0.
        254    2    1    2    0    0  0.99173678619E+02 -0.34551107292E+03  0.32267965615E+03  0.10052255678E+04  0.88155712330E+03 0.  0.
        -24    2    4    4    0    0  0.47167478195E+03 -0.10838913641E+03  0.25031390630E+03  0.55063216507E+03  0.79457062019E+02 0.  0.
         24    2    4    4    0    0 -0.37250110333E+03 -0.23712193651E+03  0.72365749849E+02  0.45459340273E+03  0.80215181214E+02 0.  0.
         13    1    3    3    0    0 -0.13193667538E+02  0.86332624642E+01  0.66006171580E+02  0.67863250515E+02  0.00000000000E+00 0. -1.
        -13    1    3    3    0    0 -0.85980011081E+02  0.33687781045E+03  0.58970921004E+03  0.68457006499E+03  0.00000000000E+00 0.  1.
          2    1    6    6  502    0 -0.35098378016E+03 -0.24039699015E+03  0.60191800487E+02  0.42965495418E+03  0.00000000000E+00 0. -1.
          3    1    5    5  503    0  0.28883566210E+03 -0.48513249468E+02  0.18956351062E+03  0.34887519206E+03  0.00000000000E+00 0. -1.
         -4    1    5    5    0  503  0.18283911985E+03 -0.59875886942E+02  0.60750395683E+02  0.20175697301E+03  0.00000000000E+00 0.  1.
         -1    1    6    6    0  502 -0.21517323176E+02  0.32750536411E+01  0.12173949362E+02  0.24938448550E+02  0.00000000000E+00 0.  1.
<mgrwt>
<rscale>  0 0.14601739E+04</rscale>
<asrwt>0</asrwt>
<pdfrwt beam="1">  1        1 0.59943373E-01 0.14601739E+04</pdfrwt>
<pdfrwt beam="2">  1       -1 0.21046568E+00 0.14601739E+04</pdfrwt>
<totfact> 0.76952369E+00</totfact>
</mgrwt>
</event>
<event>
12    1  0.1496989E-007  0.1683182E+04  0.7818608E-02  0.8771015E-01
         -1   -1    0    0    0  501 -0.00000000000E+00  0.00000000000E+00  0.34143532737E+03  0.34143532737E+03  0.00000000000E+00 0.  1.
          1   -1    0    0  501    0  0.00000000000E+00 -0.00000000000E+00 -0.20744048350E+04  0.20744048350E+04  0.00000000000E+00 0. -1.
         23    2    1    2    0    0 -0.38725119842E+03  0.42930497222E+03 -0.40553045567E+03  0.71189077819E+03  0.89818036831E+02 0.  0.
        254    2    1    2    0    0  0.38725119842E+03 -0.42930497222E+03 -0.13274390520E+04  0.17039493842E+04  0.89837788116E+03 0.  0.
        -24    2    4    4    0    0  0.20838160207E+03 -0.60102553941E+03 -0.12897610909E+04  0.14402242951E+04  0.78152143006E+02 0.  0.
         24    2    4    4    0    0  0.17886959635E+03  0.17172056719E+03 -0.37677961118E+02  0.26372508915E+03  0.81541450800E+02 0.  0.
         11    1    3    3    0    0 -0.27061682649E+03  0.23476947694E+03 -0.24608279843E+03  0.43463423446E+03  0.00000000000E+00 0.  1.
        -11    1    3    3    0    0 -0.11663437193E+03  0.19453549528E+03 -0.15944765724E+03  0.27725654373E+03  0.00000000000E+00 0. -1.
          4    1    6    6  502    0  0.18448081104E+03  0.14810914915E+03 -0.36936443382E+02  0.23944475470E+03  0.00000000000E+00 0. -1.
          3    1    5    5  503    0  0.21293952400E+03 -0.59322788332E+03 -0.12559909815E+04  0.14052672017E+04  0.00000000000E+00 0. -1.
         -4    1    5    5    0  503 -0.45579219270E+01 -0.77976560869E+01 -0.33770109353E+02  0.34957093392E+02  0.00000000000E+00 0.  1.
         -3    1    6    6    0  502 -0.56112146954E+01  0.23611418040E+02 -0.74151773569E+00  0.24280334445E+02  0.00000000000E+00 0.  1.
<mgrwt>
<rscale>  0 0.16831816E+04</rscale>
<asrwt>0</asrwt>
<pdfrwt beam="1">  1        1 0.31913921E+00 0.16831816E+04</pdfrwt>
<pdfrwt beam="2">  1       -1 0.52528511E-01 0.16831816E+04</pdfrwt>
<totfact> 0.92351664E+00</totfact>
</mgrwt>
</event>
<event>
12    1  0.1496989E-007  0.1839567E+04  0.7818608E-02  0.8685537E-01
          1   -1    0    0  501    0  0.00000000000E+00  0.00000000000E+00  0.25341801256E+04  0.25341801256E+04  0.00000000000E+00 0. -1.
         -1   -1    0    0    0  501 -0.00000000000E+00 -0.00000000000E+00 -0.33383639599E+03  0.33383639599E+03  0.00000000000E+00 0.  1.
         23    2    1    2    0    0 -0.39202241451E+03  0.56730569498E+03  0.93424888860E+03  0.11647411834E+04  0.91014907832E+02 0.  0.
        254    2    1    2    0    0  0.39202241451E+03 -0.56730569498E+03  0.12660948410E+04  0.17032753382E+04  0.90699140360E+03 0.  0.
        -24    2    4    4    0    0  0.36298196360E+02  0.22767580201E+03  0.15338429281E+03  0.28835101437E+03  0.80409802443E+02 0.  0.
         24    2    4    4    0    0  0.35572421815E+03 -0.79498149699E+03  0.11127105482E+04  0.14149243238E+04  0.73149013112E+02 0.  0.
         13    1    3    3    0    0 -0.59815809689E+02  0.77822160869E+02  0.85483502817E+02  0.13016009014E+03  0.00000000000E+00 0.  1.
        -13    1    3    3    0    0 -0.33220660482E+03  0.48948353411E+03  0.84876538578E+03  0.10345810933E+04  0.00000000000E+00 0. -1.
          4    1    6    6  502    0  0.13772282927E+02 -0.66118723777E+02  0.10889478015E+03  0.12813834147E+03  0.00000000000E+00 0. -1.
          1    1    5    5  503    0  0.27656484657E+02  0.68202954912E+02  0.11048528775E+02  0.74421731977E+02  0.00000000000E+00 0. -1.
         -2    1    5    5    0  503  0.86417117033E+01  0.15947284710E+03  0.14233576404E+03  0.21392928240E+03  0.00000000000E+00 0.  1.
         -3    1    6    6    0  502  0.34195193522E+03 -0.72886277321E+03  0.10038157680E+04  0.12867859823E+04  0.00000000000E+00 0.  1.
<mgrwt>
<rscale>  0 0.18395669E+04</rscale>
<asrwt>0</asrwt>
<pdfrwt beam="1">  1        1 0.38987385E+00 0.18395669E+04</pdfrwt>
<pdfrwt beam="2">  1       -1 0.51359447E-01 0.18395669E+04</pdfrwt>
<totfact> 0.46042206E+00</totfact>
</mgrwt>
</event>
<event>
12    1  0.1496989E-007  0.1084698E+04  0.7818608E-02  0.9220236E-01
          2   -1    0    0  501    0  0.00000000000E+00  0.00000000000E+00  0.82391857522E+03  0.82391857522E+03  0.00000000000E+00 0. -1.
         -2   -1    0    0    0  501 -0.00000000000E+00 -0.00000000000E+00 -0.35700396464E+03  0.35700396464E+03  0.00000000000E+00 0.  1.
         23    2    1    2    0    0 -0.48170744218E+02 -0.40200713598E+02  0.22212622589E+03  0.24869818924E+03  0.92597036300E+02 0.  0.
        254    2    1    2    0    0  0.48170744218E+02  0.40200713598E+02  0.24478838469E+03  0.93222435062E+03  0.89732066099E+03 0.  0.
        -24    2    4    4    0    0  0.24263830844E+03 -0.35348781591E+03  0.30478592528E+02  0.43715056185E+03  0.79653527287E+02 0.  0.
         24    2    4    4    0    0 -0.19446756422E+03  0.39368852950E+03  0.21430979216E+03  0.49507378877E+03  0.79756363465E+02 0.  0.
         11    1    3    3    0    0  0.93126671315E+01 -0.20430595203E+02  0.47070725090E+01  0.22941044463E+02  0.00000000000E+00 0.  1.
        -11    1    3    3    0    0 -0.57483411349E+02 -0.19770118395E+02  0.21741915338E+03  0.22575714478E+03  0.00000000000E+00 0. -1.
          4    1    6    6  502    0 -0.40519179627E+02  0.99402409698E+02  0.16768852502E+02  0.10864546648E+03  0.00000000000E+00 0. -1.
          1    1    5    5  503    0  0.78528682150E+02 -0.10466521158E+03  0.45945138132E+02  0.13868134753E+03  0.00000000000E+00 0. -1.
         -2    1    5    5    0  503  0.16410962629E+03 -0.24882260432E+03 -0.15466545604E+02  0.29846921432E+03  0.00000000000E+00 0.  1.
         -3    1    6    6    0  502 -0.15394838460E+03  0.29428611981E+03  0.19754093966E+03  0.38642832229E+03  0.00000000000E+00 0.  1.
<mgrwt>
<rscale>  0 0.10846976E+04</rscale>
<asrwt>0</asrwt>
<pdfrwt beam="1">  1        2 0.12675670E+00 0.10846976E+04</pdfrwt>
<pdfrwt beam="2">  1       -2 0.54923687E-01 0.10846976E+04</pdfrwt>
<totfact> 0.10261371E+02</totfact>
</mgrwt>
</event>
<event>
12    1  0.1496989E-007  0.1051968E+04  0.7818608E-02  0.9253315E-01
          1   -1    0    0  501    0  0.00000000000E+00  0.00000000000E+00  0.41071899603E+03  0.41071899603E+03  0.00000000000E+00 0. -1.
         -1   -1    0    0    0  501 -0.00000000000E+00 -0.00000000000E+00 -0.67359687213E+03  0.67359687213E+03  0.00000000000E+00 0.  1.
         23    2    1    2    0    0  0.13580065928E+01 -0.61885806025E+02 -0.12862603047E+03  0.16839285158E+03  0.89329723935E+02 0.  0.
        254    2    1    2    0    0 -0.13580065928E+01  0.61885806025E+02 -0.13425184563E+03  0.91592301659E+03  0.90391355620E+03 0.  0.
        -24    2    4    4    0    0  0.81417775762E+02  0.34758876927E+02 -0.50924430311E+03  0.52288033090E+03  0.78974973572E+02 0.  0.
         24    2    4    4    0    0 -0.82775782354E+02  0.27126929098E+02  0.37499245748E+03  0.39304268569E+03  0.79218111459E+02 0.  0.
         11    1    3    3    0    0  0.12304013218E+01 -0.56833357145E+02 -0.14261058599E+03  0.15352303934E+03  0.00000000000E+00 0.  1.
        -11    1    3    3    0    0  0.12760527108E+00 -0.50524488801E+01  0.13984555521E+02  0.14869812236E+02  0.00000000000E+00 0. -1.
          4    1    6    6  502    0 -0.48714857008E+01  0.36471841458E+02  0.84990953188E+02  0.92614192844E+02  0.00000000000E+00 0. -1.
          3    1    5    5  503    0  0.10659329933E+01 -0.10423406133E+02 -0.78760547796E+01  0.13107854418E+02  0.00000000000E+00 0. -1.
         -4    1    5    5    0  503  0.80351842768E+02  0.45182283059E+02 -0.50136824833E+03  0.50977247648E+03  0.00000000000E+00 0.  1.
         -3    1    6    6    0  502 -0.77904296654E+02 -0.93449123599E+01  0.29000150429E+03  0.30042849285E+03  0.00000000000E+00 0.  1.
<mgrwt>
<rscale>  0 0.10519677E+04</rscale>
<asrwt>0</asrwt>
<pdfrwt beam="1">  1        1 0.63187538E-01 0.10519677E+04</pdfrwt>
<pdfrwt beam="2">  1       -1 0.10363029E+00 0.10519677E+04</pdfrwt>
<totfact> 0.50838161E+01</totfact>
</mgrwt>
</event>
<event>
12    1  0.1496989E-007  0.2995056E+04  0.7818608E-02  0.8245144E-01
          2   -1    0    0  501    0  0.00000000000E+00  0.00000000000E+00  0.65443881068E+03  0.65443881068E+03  0.00000000000E+00 0.  1.
         -2   -1    0    0    0  501 -0.00000000000E+00 -0.00000000000E+00 -0.34267386570E+04  0.34267386570E+04  0.00000000000E+00 0. -1.
         23    2    1    2    0    0 -0.60701700671E+03  0.84639712669E+03 -0.24788711254E+04  0.26914656890E+04  0.11969860739E+03 0.  0.
        254    2    1    2    0    0  0.60701700671E+03 -0.84639712669E+03 -0.29342872093E+03  0.13897117786E+04  0.87197515494E+03 0.  0.
        -24    2    4    4    0    0 -0.89008893394E+02  0.79498059442E+02 -0.16960206107E+03  0.22200436574E+03  0.79237331676E+02 0.  0.
         24    2    4    4    0    0  0.69602590010E+03 -0.92589518613E+03 -0.12382665986E+03  0.11677074129E+04  0.80458753800E+02 0.  0.
         13    1    3    3    0    0 -0.47805287240E+03  0.68941031358E+03 -0.18692604547E+04  0.20488913531E+04  0.00000000000E+00 0. -1.
        -13    1    3    3    0    0 -0.12896413431E+03  0.15698681311E+03 -0.60961067065E+03  0.64257433594E+03  0.00000000000E+00 0.  1.
          4    1    6    6  502    0  0.48869735069E+03 -0.64855731706E+03 -0.12373863549E+03  0.82143955590E+03  0.00000000000E+00 0. -1.
          1    1    5    5  503    0 -0.65526506391E+01  0.52793565292E+02 -0.88761254891E+02  0.10348264655E+03  0.00000000000E+00 0. -1.
         -2    1    5    5    0  503 -0.82456242755E+02  0.26704494150E+02 -0.80840806176E+02  0.11852171919E+03  0.00000000000E+00 0.  1.
         -3    1    6    6    0  502  0.20732854942E+03 -0.27733786907E+03 -0.88024374841E-01  0.34626785697E+03  0.00000000000E+00 0.  1.
<mgrwt>
<rscale>  0 0.29950564E+04</rscale>
<asrwt>0</asrwt>
<pdfrwt beam="1">  1        2 0.10068290E+00 0.29950564E+04</pdfrwt>
<pdfrwt beam="2">  1       -2 0.52719056E+00 0.29950564E+04</pdfrwt>
<totfact> 0.43118781E-02</totfact>
</mgrwt>
</event>
<event>
12    1  0.1496989E-007  0.1518206E+04  0.7818608E-02  0.8872436E-01
         -1   -1    0    0    0  501 -0.00000000000E+00  0.00000000000E+00  0.19113603511E+03  0.19113603511E+03  0.00000000000E+00 0.  1.
          1   -1    0    0  501    0  0.00000000000E+00 -0.00000000000E+00 -0.30148029565E+04  0.30148029565E+04  0.00000000000E+00 0. -1.
         23    2    1    2    0    0 -0.13801266283E+03 -0.18913424133E+03 -0.38084851956E+02  0.25464810759E+03  0.92606405838E+02 0.  0.
        254    2    1    2    0    0  0.13801266283E+03  0.18913424133E+03 -0.27855820694E+04  0.29512908840E+04  0.94648357632E+03 0.  0.
        -24    2    4    4    0    0  0.40664068131E+03  0.28194094198E+03 -0.24647246076E+04  0.25151558441E+04  0.79335932364E+02 0.  0.
         24    2    4    4    0    0 -0.26862801848E+03 -0.92806700645E+02 -0.32085746177E+03  0.43613503990E+03  0.80561568114E+02 0.  0.
         13    1    3    3    0    0 -0.41216978453E+02 -0.23465134148E+01 -0.91957582457E+01  0.42295477391E+02  0.00000000000E+00 0. -1.
        -13    1    3    3    0    0 -0.96795684376E+02 -0.18678772792E+03 -0.28889093710E+02  0.21235263020E+03  0.00000000000E+00 0.  1.
          4    1    6    6  502    0 -0.24863541171E+03 -0.58421336391E+02 -0.27165007492E+03  0.37286241927E+03  0.00000000000E+00 0. -1.
          1    1    5    5  503    0  0.35588787908E+03  0.25827120636E+03 -0.20472483032E+04  0.20939402602E+04  0.00000000000E+00 0. -1.
         -2    1    5    5    0  503  0.50752802234E+02  0.23669735615E+02 -0.41747630444E+03  0.42121558387E+03  0.00000000000E+00 0.  1.
         -3    1    6    6    0  502 -0.19992606771E+02 -0.34385364254E+02 -0.49207386845E+02  0.63272620623E+02  0.00000000000E+00 0.  1.
<mgrwt>
<rscale>  0 0.15182062E+04</rscale>
<asrwt>0</asrwt>
<pdfrwt beam="1">  1        1 0.46381582E+00 0.15182062E+04</pdfrwt>
<pdfrwt beam="2">  1       -1 0.29405545E-01 0.15182062E+04</pdfrwt>
<totfact> 0.59883704E+00</totfact>
</mgrwt>
</event>
<event>
12    1  0.1496989E-007  0.2132276E+04  0.7818608E-02  0.8547157E-01
          1   -1    0    0  501    0  0.00000000000E+00  0.00000000000E+00  0.26794983008E+04  0.26794983008E+04  0.00000000000E+00 0. -1.
         -1   -1    0    0    0  501 -0.00000000000E+00 -0.00000000000E+00 -0.42420254968E+03  0.42420254968E+03  0.00000000000E+00 0.  1.
         23    2    1    2    0    0 -0.64045651279E+03  0.50886446180E+03  0.13695172141E+04  0.15976921695E+04  0.88967878379E+02 0.  0.
        254    2    1    2    0    0  0.64045651279E+03 -0.50886446180E+03  0.88577853700E+03  0.15060086810E+04  0.90240287312E+03 0.  0.
        -24    2    4    4    0    0  0.15549804964E+03 -0.32615691153E+03  0.90875290689E+03  0.98099795141E+03  0.77247398192E+02 0.  0.
         24    2    4    4    0    0  0.48495846314E+03 -0.18270755027E+03 -0.22974369890E+02  0.52501072959E+03  0.80880681328E+02 0.  0.
         11    1    3    3    0    0 -0.18596345008E+03  0.18410308996E+03  0.37985857210E+03  0.46126877989E+03  0.00000000000E+00 0.  1.
        -11    1    3    3    0    0 -0.45449306270E+03  0.32476137184E+03  0.98965864201E+03  0.11364233896E+04  0.00000000000E+00 0. -1.
          2    1    6    6  502    0  0.22676159880E+03 -0.10449282156E+03  0.25244611505E+02  0.25095191343E+03  0.00000000000E+00 0. -1.
          3    1    5    5  503    0  0.16326306487E+03 -0.31035520921E+03  0.84546507584E+03  0.91530671292E+03  0.00000000000E+00 0. -1.
         -4    1    5    5    0  503 -0.77650152301E+01 -0.15801702313E+02  0.63287831041E+02  0.65691238498E+02  0.00000000000E+00 0.  1.
         -1    1    6    6    0  502  0.25819686435E+03 -0.78214728713E+02 -0.48218981396E+02  0.27405881616E+03  0.00000000000E+00 0.  1.
<mgrwt>
<rscale>  0 0.21322758E+04</rscale>
<asrwt>0</asrwt>
<pdfrwt beam="1">  1        1 0.41223050E+00 0.21322758E+04</pdfrwt>
<pdfrwt beam="2">  1       -1 0.65261933E-01 0.21322758E+04</pdfrwt>
<totfact> 0.22158914E+00</totfact>
</mgrwt>
</event>
<event>
12    1  0.1496989E-007  0.1492866E+04  0.7818608E-02  0.8889211E-01
         -1   -1    0    0    0  501 -0.00000000000E+00  0.00000000000E+00  0.55914026400E+03  0.55914026400E+03  0.00000000000E+00 0.  1.
          1   -1    0    0  501    0  0.00000000000E+00 -0.00000000000E+00 -0.99646231381E+03  0.99646231381E+03  0.00000000000E+00 0. -1.
         23    2    1    2    0    0  0.86460949433E+02 -0.99181228795E+02  0.32621269289E+03  0.36379877587E+03  0.92856967406E+02 0.  0.
        254    2    1    2    0    0 -0.86460949433E+02  0.99181228795E+02 -0.76353474271E+03  0.11918038019E+04  0.90559294778E+03 0.  0.
        -24    2    4    4    0    0  0.16329984786E+03  0.30678096600E+03  0.15322583447E+01  0.35655532986E+03  0.79674048641E+02 0.  0.
         24    2    4    4    0    0 -0.24976079729E+03 -0.20759973721E+03 -0.76506700105E+03  0.83524847208E+03  0.82670352959E+02 0.  0.
         13    1    3    3    0    0  0.69651813723E+02 -0.32734985667E+02  0.92954015171E+02  0.12067892682E+03  0.00000000000E+00 0. -1.
        -13    1    3    3    0    0  0.16809135710E+02 -0.66446243127E+02  0.23325867772E+03  0.24311984905E+03  0.00000000000E+00 0.  1.
          4    1    6    6  502    0 -0.10639344527E+03 -0.14206221312E+03 -0.40804665244E+03  0.44497562647E+03  0.00000000000E+00 0. -1.
          1    1    5    5  503    0  0.31692764198E+02  0.13360462896E+03 -0.16497471444E+02  0.13829965563E+03  0.00000000000E+00 0. -1.
         -2    1    5    5    0  503  0.13160708366E+03  0.17317633704E+03  0.18029729788E+02  0.21825567423E+03  0.00000000000E+00 0.  1.
         -3    1    6    6    0  502 -0.14336735202E+03 -0.65537524090E+02 -0.35702034862E+03  0.39027284561E+03  0.00000000000E+00 0.  1.
<mgrwt>
<rscale>  0 0.14928660E+04</rscale>
<asrwt>0</asrwt>
<pdfrwt beam="1">  1        1 0.15330190E+00 0.14928660E+04</pdfrwt>
<pdfrwt beam="2">  1       -1 0.86021578E-01 0.14928660E+04</pdfrwt>
<totfact> 0.19666383E+01</totfact>
</mgrwt>
</event>
<event>
12    1  0.1496989E-007  0.1720883E+04  0.7818608E-02  0.8749543E-01
         -1   -1    0    0    0  501 -0.00000000000E+00  0.00000000000E+00  0.23947893028E+03  0.23947893028E+03  0.00000000000E+00 0.  1.
          1   -1    0    0  501    0  0.00000000000E+00 -0.00000000000E+00 -0.30915428310E+04  0.30915428310E+04  0.00000000000E+00 0. -1.
         23    2    1    2    0    0 -0.61629934721E+03 -0.68462397421E+01 -0.12388503062E+04  0.13865353660E+04  0.88648087832E+02 0.  0.
        254    2    1    2    0    0  0.61629934721E+03  0.68462397421E+01 -0.16132135945E+04  0.19444863953E+04  0.89369876563E+03 0.  0.
        -24    2    4    4    0    0 -0.48036367885E+01  0.33737540583E+03 -0.32869566522E+03  0.47795663443E+03  0.80971999358E+02 0.  0.
         24    2    4    4    0    0  0.62110298399E+03 -0.33052916609E+03 -0.12845179293E+04  0.14665297609E+04  0.75530010727E+02 0.  0.
         13    1    3    3    0    0 -0.46180743226E+03 -0.63928057776E+01 -0.10078559754E+04  0.11086390935E+04  0.00000000000E+00 0. -1.
        -13    1    3    3    0    0 -0.15449191495E+03 -0.45343396450E+00 -0.23099433085E+03  0.27789627251E+03  0.00000000000E+00 0.  1.
          4    1    6    6  502    0  0.12182346670E+03 -0.66108971849E+02 -0.19505716372E+03  0.23928779809E+03  0.00000000000E+00 0. -1.
          1    1    5    5  503    0  0.10801867562E+02  0.24829360578E+02 -0.58704651219E+02  0.64648384081E+02  0.00000000000E+00 0. -1.
         -2    1    5    5    0  503 -0.15605504350E+02  0.31254604525E+03 -0.26999101400E+03  0.41330825035E+03  0.00000000000E+00 0.  1.
         -3    1    6    6    0  502  0.49927951730E+03 -0.26442019424E+03 -0.10894607656E+04  0.12272419628E+04  0.00000000000E+00 0.  1.
<mgrwt>
<rscale>  0 0.17208828E+04</rscale>
<asrwt>0</asrwt>
<pdfrwt beam="1">  1        1 0.47562199E+00 0.17208828E+04</pdfrwt>
<pdfrwt beam="2">  1       -1 0.36842911E-01 0.17208828E+04</pdfrwt>
<totfact> 0.34558795E+00</totfact>
</mgrwt>
</event>
<event>
12    1  0.1496989E-007  0.2497119E+04  0.7818608E-02  0.8404012E-01
         -2   -1    0    0    0  501 -0.00000000000E+00  0.00000000000E+00  0.10984874182E+04  0.10984874182E+04  0.00000000000E+00 0. -1.
          2   -1    0    0  501    0  0.00000000000E+00 -0.00000000000E+00 -0.14191343686E+04  0.14191343686E+04  0.00000000000E+00 0.  1.
         23    2    1    2    0    0 -0.35662002286E+03  0.99723375800E+03  0.56485561738E+02  0.10644772978E+04  0.90930137804E+02 0.  0.
        254    2    1    2    0    0  0.35662002286E+03 -0.99723375800E+03 -0.37713251221E+03  0.14531444891E+04  0.92073175545E+03 0.  0.
        -24    2    4    4    0    0  0.48003044781E+03 -0.73656040062E+03  0.10186921805E+03  0.88844455260E+03  0.77497941036E+02 0.  0.
         24    2    4    4    0    0 -0.12341042495E+03 -0.26067335738E+03 -0.47900173026E+03  0.56469993645E+03  0.79136770227E+02 0.  0.
         11    1    3    3    0    0 -0.31447278217E+03  0.84555570107E+03  0.78371197803E+02  0.90553830343E+03  0.00000000000E+00 0.  1.
        -11    1    3    3    0    0 -0.42147240692E+02  0.15167805693E+03 -0.21885636065E+02  0.15893899433E+03  0.00000000000E+00 0. -1.
          4    1    6    6  502    0 -0.89574746882E+01  0.33468688234E+01 -0.29204945805E+02  0.30730550649E+02  0.00000000000E+00 0. -1.
          1    1    5    5  503    0  0.28888626118E+03 -0.49216560619E+03  0.40124921011E+02  0.57209462950E+03  0.00000000000E+00 0. -1.
         -2    1    5    5    0  503  0.19114418663E+03 -0.24439479443E+03  0.61744297040E+02  0.31634992310E+03  0.00000000000E+00 0.  1.
         -3    1    6    6    0  502 -0.11445295026E+03 -0.26402022620E+03 -0.44979678446E+03  0.53396938580E+03  0.00000000000E+00 0.  1.
<mgrwt>
<rscale>  0 0.24971193E+04</rscale>
<asrwt>0</asrwt>
<pdfrwt beam="1">  1        2 0.21832836E+00 0.24971193E+04</pdfrwt>
<pdfrwt beam="2">  1       -2 0.16899806E+00 0.24971193E+04</pdfrwt>
<totfact> 0.27277496E+00</totfact>
</mgrwt>
</event>
<event>
12    1  0.1496989E-007  0.2255078E+04  0.7818608E-02  0.8495847E-01
          2   -1    0    0  501    0  0.00000000000E+00  0.00000000000E+00  0.20614516220E+04  0.20614516220E+04  0.00000000000E+00 0. -1.
         -2   -1    0    0    0  501 -0.00000000000E+00 -0.00000000000E+00 -0.61672264398E+03  0.61672264398E+03  0.00000000000E+00 0.  1.
         23    2    1    2    0    0 -0.44284624319E+03  0.80276752208E+03  0.89114976676E+03  0.12815028230E+04  0.86908509278E+02 0.  0.
        254    2    1    2    0    0  0.44284624319E+03 -0.80276752208E+03  0.55357921123E+03  0.13966714429E+04  0.89648908906E+03 0.  0.
        -24    2    4    4    0    0  0.12891246711E+03 -0.40647222298E+03 -0.20676925291E+03  0.48026239778E+03  0.77848278994E+02 0.  0.
         24    2    4    4    0    0  0.31393377608E+03 -0.39629529910E+03  0.76034846414E+03  0.91640904516E+03  0.77919004572E+02 0.  0.
         11    1    3    3    0    0 -0.40730706732E+02  0.54385013537E+02  0.97908085816E+02  0.11917513766E+03  0.00000000000E+00 0.  1.
        -11    1    3    3    0    0 -0.40211553646E+03  0.74838250854E+03  0.79324168095E+03  0.11623276854E+04  0.00000000000E+00 0. -1.
          2    1    6    6  502    0  0.31123281350E+03 -0.37428360097E+03  0.70446047950E+03  0.85628187259E+03  0.00000000000E+00 0. -1.
          1    1    5    5  503    0  0.13257891017E+03 -0.35054772208E+03 -0.19689756379E+03  0.42335507970E+03  0.00000000000E+00 0. -1.
         -2    1    5    5    0  503 -0.36664430607E+01 -0.55924500899E+02 -0.98716891219E+01  0.56907318085E+02  0.00000000000E+00 0.  1.
         -1    1    6    6    0  502  0.27009625829E+01 -0.22011698123E+02  0.55887984645E+02  0.60127172567E+02  0.00000000000E+00 0.  1.
<mgrwt>
<rscale>  0 0.22550777E+04</rscale>
<asrwt>0</asrwt>
<pdfrwt beam="1">  1        2 0.31714640E+00 0.22550777E+04</pdfrwt>
<pdfrwt beam="2">  1       -2 0.94880407E-01 0.22550777E+04</pdfrwt>
<totfact> 0.52513950E+00</totfact>
</mgrwt>
</event>
<event>
12    1  0.1496989E-007  0.1463638E+04  0.7818608E-02  0.8909000E-01
         -1   -1    0    0    0  501 -0.00000000000E+00  0.00000000000E+00  0.31827996775E+03  0.31827996775E+03  0.00000000000E+00 0.  1.
          1   -1    0    0  501    0  0.00000000000E+00 -0.00000000000E+00 -0.16826668880E+04  0.16826668880E+04  0.00000000000E+00 0. -1.
         23    2    1    2    0    0  0.33373894123E+03  0.19216415382E+02 -0.84672146456E+03  0.91471957058E+03  0.89575123519E+02 0.  0.
        254    2    1    2    0    0 -0.33373894123E+03 -0.19216415382E+02 -0.51766545572E+03  0.10862272852E+04  0.89451732209E+03 0.  0.
        -24    2    4    4    0    0 -0.56998062009E+03  0.10287951987E+03 -0.11203078843E+03  0.59533846751E+03  0.80093011285E+02 0.  0.
         24    2    4    4    0    0  0.23624167886E+03 -0.12209593525E+03 -0.40563466729E+03  0.49088881767E+03  0.75596294716E+02 0.  0.
         11    1    3    3    0    0  0.19195911828E+03  0.49154753224E+02 -0.54755464130E+03  0.58230625797E+03  0.00000000000E+00 0. -1.
        -11    1    3    3    0    0  0.14177982295E+03 -0.29938337842E+02 -0.29916682325E+03  0.33241331262E+03  0.00000000000E+00 0.  1.
          2    1    6    6  502    0  0.23693379951E+03 -0.10727347728E+03 -0.36979758795E+03  0.45210118373E+03  0.00000000000E+00 0. -1.
          1    1    5    5  503    0 -0.55637088663E+03  0.11228744237E+03 -0.11314429251E+03  0.57875613529E+03  0.00000000000E+00 0. -1.
         -2    1    5    5    0  503 -0.13609733456E+02 -0.94079225013E+01  0.11135040870E+01  0.16582332221E+02  0.00000000000E+00 0.  1.
         -1    1    6    6    0  502 -0.69212064761E+00 -0.14822457972E+02 -0.35837079342E+02  0.38787633946E+02  0.00000000000E+00 0.  1.
<mgrwt>
<rscale>  0 0.14636382E+04</rscale>
<asrwt>0</asrwt>
<pdfrwt beam="1">  1        1 0.25887183E+00 0.14636382E+04</pdfrwt>
<pdfrwt beam="2">  1       -1 0.48966149E-01 0.14636382E+04</pdfrwt>
<totfact> 0.19847703E+01</totfact>
</mgrwt>
</event>
<event>
12    1  0.1718800E-007  0.1843006E+04  0.7818608E-02  0.8683758E-01
          1   -1    0    0  501    0  0.00000000000E+00  0.00000000000E+00  0.17339875480E+04  0.17339875480E+04  0.00000000000E+00 0. -1.
         -1   -1    0    0    0  501 -0.00000000000E+00 -0.00000000000E+00 -0.48971978670E+03  0.48971978670E+03  0.00000000000E+00 0.  1.
         23    2    1    2    0    0  0.16252639187E+03  0.66947590796E+03  0.55645245929E+03  0.89062792245E+03  0.94688633918E+02 0.  0.
        254    2    1    2    0    0 -0.16252639187E+03 -0.66947590796E+03  0.68781530198E+03  0.13330794122E+04  0.91071291321E+03 0.  0.
        -24    2    4    4    0    0 -0.41960226413E+03 -0.65422487591E+03  0.25263409086E+03  0.82114091150E+03  0.79825837655E+02 0.  0.
         24    2    4    4    0    0  0.25707587226E+03 -0.15251032053E+02  0.43518121112E+03  0.51193850073E+03  0.79860778465E+02 0.  0.
         13    1    3    3    0    0  0.39151340863E+02  0.96608451955E+02  0.12593725710E+03  0.16348153782E+03  0.00000000000E+00 0. -1.
        -13    1    3    3    0    0  0.12337505101E+03  0.57286745601E+03  0.43051520219E+03  0.72714638463E+03  0.00000000000E+00 0.  1.
          2    1    6    6  502    0  0.50202655361E+02 -0.40035008861E+01  0.35069186168E+02  0.61369230426E+02  0.00000000000E+00 0. -1.
          3    1    5    5  503    0 -0.27875950552E+02 -0.87110367572E+02  0.19403071034E+02  0.93497400623E+02  0.00000000000E+00 0. -1.
         -4    1    5    5    0  503 -0.39172631358E+03 -0.56711450834E+03  0.23323101982E+03  0.72764351088E+03  0.00000000000E+00 0.  1.
         -1    1    6    6    0  502  0.20687321690E+03 -0.11247531167E+02  0.40011202495E+03  0.45056927030E+03  0.00000000000E+00 0.  1.
<mgrwt>
<rscale>  0 0.18430063E+04</rscale>
<asrwt>0</asrwt>
<pdfrwt beam="1">  1        1 0.26676731E+00 0.18430063E+04</pdfrwt>
<pdfrwt beam="2">  1       -1 0.75341506E-01 0.18430063E+04</pdfrwt>
<totfact> 0.75220353E+00</totfact>
</mgrwt>
</event>
<event>
12    1  0.1496989E-007  0.1486216E+04  0.7818608E-02  0.8893671E-01
         -1   -1    0    0    0  501 -0.00000000000E+00  0.00000000000E+00  0.59592984663E+03  0.59592984663E+03  0.00000000000E+00 0.  1.
          1   -1    0    0  501    0  0.00000000000E+00 -0.00000000000E+00 -0.92663504359E+03  0.92663504359E+03  0.00000000000E+00 0. -1.
         23    2    1    2    0    0 -0.41567681343E+03  0.86244838814E+02 -0.31528098659E+03  0.53675505241E+03  0.92078772463E+02 0.  0.
        254    2    1    2    0    0  0.41567681343E+03 -0.86244838814E+02 -0.15424210360E+02  0.98580983781E+03  0.88958290485E+03 0.  0.
        -24    2    4    4    0    0 -0.13851935766E+02 -0.42283610596E+03 -0.42044748294E+02  0.43353135294E+03  0.84849422448E+02 0.  0.
         24    2    4    4    0    0  0.42952874920E+03  0.33659126715E+03  0.26620537934E+02  0.55227848487E+03  0.80710868550E+02 0.  0.
         13    1    3    3    0    0 -0.97663595661E+02 -0.17865036363E+02 -0.83106207457E+02  0.12947578600E+03  0.00000000000E+00 0.  1.
        -13    1    3    3    0    0 -0.31801321777E+03  0.10410987518E+03 -0.23217477914E+03  0.40727926642E+03  0.00000000000E+00 0. -1.
          2    1    6    6  502    0  0.24071331990E+03  0.14241666875E+03 -0.39607011562E+01  0.27971610084E+03  0.00000000000E+00 0. -1.
          1    1    5    5  503    0 -0.18450453649E+02 -0.35485660325E+02 -0.21972848141E+02  0.45633949905E+02  0.00000000000E+00 0. -1.
         -2    1    5    5    0  503  0.45985178830E+01 -0.38735044564E+03 -0.20071900153E+02  0.38789740303E+03  0.00000000000E+00 0.  1.
         -1    1    6    6    0  502  0.18881542930E+03  0.19417459840E+03  0.30581239090E+02  0.27256238403E+03  0.00000000000E+00 0.  1.
<mgrwt>
<rscale>  0 0.14862160E+04</rscale>
<asrwt>0</asrwt>
<pdfrwt beam="1">  1        1 0.14255924E+00 0.14862160E+04</pdfrwt>
<pdfrwt beam="2">  1       -1 0.91681515E-01 0.14862160E+04</pdfrwt>
<totfact> 0.19439629E+01</totfact>
</mgrwt>
</event>
<event>
12    1  0.1496989E-007  0.2113128E+04  0.7818608E-02  0.8555482E-01
          1   -1    0    0  501    0  0.00000000000E+00  0.00000000000E+00  0.27243433873E+04  0.27243433873E+04  0.00000000000E+00 0. -1.
         -1   -1    0    0    0  501 -0.00000000000E+00 -0.00000000000E+00 -0.40976036105E+03  0.40976036105E+03  0.00000000000E+00 0.  1.
         23    2    1    2    0    0 -0.78289817088E+03  0.25787806360E+03  0.54590344987E+03  0.99285509247E+03  0.91214123963E+02 0.  0.
        254    2    1    2    0    0  0.78289817088E+03 -0.25787806360E+03  0.17686795764E+04  0.21412486559E+04  0.88163922370E+03 0.  0.
        -24    2    4    4    0    0 -0.53128853958E+02 -0.89260066249E+02 -0.42126701840E+02  0.13805459010E+03  0.80587693164E+02 0.  0.
         24    2    4    4    0    0  0.83602702484E+03 -0.16861799735E+03  0.18108062783E+04  0.20031940658E+04  0.79961694957E+02 0.  0.
         11    1    3    3    0    0 -0.17571733185E+03  0.53636539887E+02  0.16878646477E+03  0.24948412738E+03  0.00000000000E+00 0. -1.
        -11    1    3    3    0    0 -0.60718083903E+03  0.20424152371E+03  0.37711698511E+03  0.74337096510E+03  0.00000000000E+00 0.  1.
          4    1    6    6  502    0  0.32026568145E+03 -0.31387309992E+02  0.73078952818E+03  0.79850397897E+03  0.00000000000E+00 0. -1.
          1    1    5    5  503    0 -0.45945243754E+00 -0.59257247576E+01  0.20444279989E+02  0.21290699723E+02  0.00000000000E+00 0. -1.
         -2    1    5    5    0  503 -0.52669401520E+02 -0.83334341491E+02 -0.62570981829E+02  0.11676389037E+03  0.00000000000E+00 0.  1.
         -3    1    6    6    0  502  0.51576134339E+03 -0.13723068736E+03  0.10800167501E+04  0.12046900868E+04  0.00000000000E+00 0.  1.
<mgrwt>
<rscale>  0 0.21131284E+04</rscale>
<asrwt>0</asrwt>
<pdfrwt beam="1">  1        1 0.41912974E+00 0.21131284E+04</pdfrwt>
<pdfrwt beam="2">  1       -1 0.63040057E-01 0.21131284E+04</pdfrwt>
<totfact> 0.22127973E+00</totfact>
</mgrwt>
</event>
<event>
12    1  0.1496989E-007  0.3399185E+04  0.7818608E-02  0.8138106E-01
          2   -1    0    0  501    0  0.00000000000E+00  0.00000000000E+00  0.12144088798E+04  0.12144088798E+04  0.00000000000E+00 0. -1.
         -2   -1    0    0    0  501 -0.00000000000E+00 -0.00000000000E+00 -0.23786176170E+04  0.23786176170E+04  0.00000000000E+00 0.  1.
         23    2    1    2    0    0 -0.34859372733E+02  0.14535129830E+04 -0.11859695346E+04  0.18803215011E+04  0.12316672831E+03 0.  0.
        254    2    1    2    0    0  0.34859372733E+02 -0.14535129830E+04  0.21760797349E+02  0.17127049958E+04  0.90496944844E+03 0.  0.
        -24    2    4    4    0    0 -0.19707371648E+03 -0.53149355826E+02  0.17722548105E+03  0.28233462919E+03  0.81492747863E+02 0.  0.
         24    2    4    4    0    0  0.23193308921E+03 -0.14003636272E+04 -0.15546468370E+03  0.14303703666E+04  0.83539640409E+02 0.  0.
         11    1    3    3    0    0 -0.38065819358E+01  0.20657613348E+03 -0.11594912143E+03  0.23692274637E+03  0.00000000000E+00 0. -1.
        -11    1    3    3    0    0 -0.31052790798E+02  0.12469368495E+04 -0.10700204131E+04  0.16433987547E+04  0.00000000000E+00 0.  1.
          4    1    6    6  502    0  0.22727613743E+03 -0.13079768166E+04 -0.16307270116E+03  0.13375539247E+04  0.00000000000E+00 0. -1.
          1    1    5    5  503    0 -0.14615804054E+03 -0.68140833194E+02  0.10397295015E+03  0.19187423049E+03  0.00000000000E+00 0. -1.
         -2    1    5    5    0  503 -0.50915675946E+02  0.14991477368E+02  0.73252530899E+02  0.90460398705E+02  0.00000000000E+00 0.  1.
         -3    1    6    6    0  502  0.46569517840E+01 -0.92386810521E+02  0.76080174530E+01  0.92816441904E+02  0.00000000000E+00 0.  1.
<mgrwt>
<rscale>  0 0.33991848E+04</rscale>
<asrwt>0</asrwt>
<pdfrwt beam="1">  1        2 0.18683214E+00 0.33991848E+04</pdfrwt>
<pdfrwt beam="2">  1       -2 0.36594117E+00 0.33991848E+04</pdfrwt>
<totfact> 0.18950382E-01</totfact>
</mgrwt>
</event>
<event>
12    1  0.1496989E-007  0.1833693E+04  0.7818608E-02  0.8688585E-01
         -2   -1    0    0    0  501 -0.00000000000E+00  0.00000000000E+00  0.31575233856E+03  0.31575233856E+03  0.00000000000E+00 0.  1.
          2   -1    0    0  501    0  0.00000000000E+00 -0.00000000000E+00 -0.26622357113E+04  0.26622357113E+04  0.00000000000E+00 0. -1.
         23    2    1    2    0    0 -0.48390261758E+03 -0.21629924229E+02 -0.78874454975E+02  0.50043689792E+03  0.97909714720E+02 0.  0.
        254    2    1    2    0    0  0.48390261758E+03  0.21629924229E+02 -0.22676089178E+04  0.24775511519E+04  0.87268545859E+03 0.  0.
        -24    2    4    4    0    0  0.72349569922E+03  0.10210551962E+02 -0.14622192964E+04  0.16334222160E+04  0.80203384776E+02 0.  0.
         24    2    4    4    0    0 -0.23959308164E+03  0.11419372267E+02 -0.80538962136E+03  0.84412893590E+03  0.79787037730E+02 0.  0.
         11    1    3    3    0    0 -0.43691442875E+03 -0.44898677206E+02 -0.54397441168E+02  0.44257111391E+03  0.00000000000E+00 0.  1.
        -11    1    3    3    0    0 -0.46988188831E+02  0.23268752977E+02 -0.24477013807E+02  0.57865784015E+02  0.00000000000E+00 0. -1.
          4    1    6    6  502    0 -0.12380222347E+03 -0.31152725744E+02 -0.35982623758E+03  0.38180152450E+03  0.00000000000E+00 0. -1.
          1    1    5    5  503    0  0.55746768557E+03  0.39412612903E+02 -0.10956362736E+04  0.12299359408E+04  0.00000000000E+00 0. -1.
         -2    1    5    5    0  503  0.16602801365E+03 -0.29202060942E+02 -0.36658302283E+03  0.40348627524E+03  0.00000000000E+00 0.  1.
         -3    1    6    6    0  502 -0.11579085817E+03  0.42572098011E+02 -0.44556338379E+03  0.46232741140E+03  0.00000000000E+00 0.  1.
<mgrwt>
<rscale>  0 0.18336926E+04</rscale>
<asrwt>0</asrwt>
<pdfrwt beam="1">  1        2 0.40957473E+00 0.18336926E+04</pdfrwt>
<pdfrwt beam="2">  1       -2 0.48577282E-01 0.18336926E+04</pdfrwt>
<totfact> 0.10585069E+01</totfact>
</mgrwt>
</event>
<event>
12    1  0.1496989E-007  0.3045594E+04  0.7818608E-02  0.8230830E-01
          1   -1    0    0  501    0  0.00000000000E+00  0.00000000000E+00  0.19254811530E+04  0.19254811530E+04  0.00000000000E+00 0. -1.
         -1   -1    0    0    0  501 -0.00000000000E+00 -0.00000000000E+00 -0.12043278847E+04  0.12043278847E+04  0.00000000000E+00 0.  1.
         23    2    1    2    0    0  0.26496914722E+03 -0.13565204290E+04  0.38889315249E+03  0.14387322985E+04  0.91413453091E+02 0.  0.
        254    2    1    2    0    0 -0.26496914722E+03  0.13565204290E+04  0.33226011574E+03  0.16910767392E+04  0.91596257019E+03 0.  0.
        -24    2    4    4    0    0  0.17064710746E+02 -0.12481985855E+03  0.32745264476E+02  0.15158614308E+03  0.77684650917E+02 0.  0.
         24    2    4    4    0    0 -0.28203385797E+03  0.14813402876E+04  0.29951485127E+03  0.15394905961E+04  0.80062505240E+02 0.  0.
         11    1    3    3    0    0  0.11736294911E+02 -0.16626546634E+03  0.69741960487E+02  0.18068172837E+03  0.00000000000E+00 0.  1.
        -11    1    3    3    0    0  0.25323285231E+03 -0.11902549627E+04  0.31915119201E+03  0.12580505702E+04  0.00000000000E+00 0. -1.
          4    1    6    6  502    0 -0.88552644291E+02  0.67021257887E+03  0.12324852663E+03  0.68718023181E+03  0.00000000000E+00 0. -1.
          1    1    5    5  503    0  0.73908962913E+01  0.20411403801E+00  0.24865125245E+02  0.25941115319E+02  0.00000000000E+00 0. -1.
         -2    1    5    5    0  503  0.96738144550E+01 -0.12502397259E+03  0.78801392315E+01  0.12564502777E+03  0.00000000000E+00 0.  1.
         -3    1    6    6    0  502 -0.19348121368E+03  0.81112770871E+03  0.17626632464E+03  0.85231036430E+03  0.00000000000E+00 0.  1.
<mgrwt>
<rscale>  0 0.30455940E+04</rscale>
<asrwt>0</asrwt>
<pdfrwt beam="1">  1        1 0.29622787E+00 0.30455940E+04</pdfrwt>
<pdfrwt beam="2">  1       -1 0.18528121E+00 0.30455940E+04</pdfrwt>
<totfact> 0.54154618E-01</totfact>
</mgrwt>
</event>
<event>
12    1  0.1496989E-007  0.1790131E+04  0.7818608E-02  0.8711566E-01
          1   -1    0    0  501    0  0.00000000000E+00  0.00000000000E+00  0.68906056209E+03  0.68906056209E+03  0.00000000000E+00 0. -1.
         -1   -1    0    0    0  501 -0.00000000000E+00 -0.00000000000E+00 -0.11626580956E+04  0.11626580956E+04  0.00000000000E+00 0.  1.
         23    2    1    2    0    0 -0.28664441846E+02  0.61230845177E+03  0.93260748477E+02  0.62667021574E+03  0.90965387672E+02 0.  0.
        254    2    1    2    0    0  0.28664441846E+02 -0.61230845177E+03 -0.56685828201E+03  0.12250484420E+04  0.89647759756E+03 0.  0.
        -24    2    4    4    0    0 -0.57588109797E+01 -0.25685864393E+02 -0.62367461468E+03  0.62928986288E+03  0.79641565776E+02 0.  0.
         24    2    4    4    0    0  0.34423252826E+02 -0.58662258738E+03  0.56816332672E+02  0.59575857908E+03  0.79932274608E+02 0.  0.
         11    1    3    3    0    0  0.11571768139E+02  0.42726423878E+03  0.36491398419E+02  0.42897582416E+03  0.00000000000E+00 0. -1.
        -11    1    3    3    0    0 -0.40236209986E+02  0.18504421300E+03  0.56769350058E+02  0.19769439158E+03  0.00000000000E+00 0.  1.
          2    1    6    6  502    0  0.47611127939E+01 -0.37428404443E+03  0.14189772015E+01  0.37431701485E+03  0.00000000000E+00 0. -1.
          1    1    5    5  503    0 -0.33407546448E+01 -0.35395307844E+02 -0.61505915422E+03  0.61608583140E+03  0.00000000000E+00 0. -1.
         -2    1    5    5    0  503 -0.24180563349E+01  0.97094434514E+01 -0.86154604607E+01  0.13204031488E+02  0.00000000000E+00 0.  1.
         -1    1    6    6    0  502  0.29662140032E+02 -0.21233854295E+03  0.55397355471E+02  0.22144156423E+03  0.00000000000E+00 0.  1.
<mgrwt>
<rscale>  0 0.17901305E+04</rscale>
<asrwt>0</asrwt>
<pdfrwt beam="1">  1        1 0.10600932E+00 0.17901305E+04</pdfrwt>
<pdfrwt beam="2">  1       -1 0.17887047E+00 0.17901305E+04</pdfrwt>
<totfact> 0.55873663E+00</totfact>
</mgrwt>
</event>
<event>
12    1  0.1496989E-007  0.1555228E+04  0.7818608E-02  0.8848535E-01
         -1   -1    0    0    0  501 -0.00000000000E+00  0.00000000000E+00  0.56421971362E+03  0.56421971362E+03  0.00000000000E+00 0.  1.
          1   -1    0    0  501    0  0.00000000000E+00 -0.00000000000E+00 -0.10717167437E+04  0.10717167437E+04  0.00000000000E+00 0. -1.
         23    2    1    2    0    0  0.16864482721E+03  0.44954404990E+03 -0.37569174391E+03  0.61652219115E+03  0.91784504105E+02 0.  0.
        254    2    1    2    0    0 -0.16864482721E+03 -0.44954404990E+03 -0.13180528614E+03  0.10194142661E+04  0.88955150612E+03 0.  0.
        -24    2    4    4    0    0  0.41366105073E+01  0.16235665499E+02  0.32749350666E+03  0.33811222937E+03  0.82384308949E+02 0.  0.
         24    2    4    4    0    0 -0.17278143771E+03 -0.46577971540E+03 -0.45929879280E+03  0.68130203678E+03  0.80080682810E+02 0.  0.
         13    1    3    3    0    0  0.53269680126E+02  0.55867200266E+02 -0.43154502625E+02  0.88437062271E+02  0.00000000000E+00 0.  1.
        -13    1    3    3    0    0  0.11537514708E+03  0.39367684963E+03 -0.33253724129E+03  0.52808512888E+03  0.00000000000E+00 0. -1.
          4    1    6    6  502    0 -0.12415548133E+03 -0.33406186772E+03 -0.37592386159E+03  0.51800643309E+03  0.00000000000E+00 0. -1.
          1    1    5    5  503    0  0.38714565901E+02  0.24205461340E+02  0.22677156186E+03  0.23132242269E+03  0.00000000000E+00 0. -1.
         -2    1    5    5    0  503 -0.34577955394E+02 -0.79697958409E+01  0.10072194480E+03  0.10678980667E+03  0.00000000000E+00 0.  1.
         -3    1    6    6    0  502 -0.48625956388E+02 -0.13171784767E+03 -0.83374931216E+02  0.16329560369E+03  0.00000000000E+00 0.  1.
<mgrwt>
<rscale>  0 0.15552282E+04</rscale>
<asrwt>0</asrwt>
<pdfrwt beam="1">  1        1 0.16487950E+00 0.15552282E+04</pdfrwt>
<pdfrwt beam="2">  1       -1 0.86803033E-01 0.15552282E+04</pdfrwt>
<totfact> 0.16780525E+01</totfact>
</mgrwt>
</event>
<event>
12    1  0.1496989E-007  0.1937299E+04  0.7818608E-02  0.8636510E-01
         -2   -1    0    0    0  501 -0.00000000000E+00  0.00000000000E+00  0.11149299998E+04  0.11149299998E+04  0.00000000000E+00 0.  1.
          2   -1    0    0  501    0  0.00000000000E+00 -0.00000000000E+00 -0.84156088442E+03  0.84156088442E+03  0.00000000000E+00 0. -1.
         23    2    1    2    0    0  0.25802220405E+03 -0.42307255585E+03  0.68759783256E+03  0.85188260394E+03  0.85716662615E+02 0.  0.
        254    2    1    2    0    0 -0.25802220405E+03  0.42307255585E+03 -0.41422871714E+03  0.11046082803E+04  0.89610723551E+03 0.  0.
        -24    2    4    4    0    0 -0.44656516522E+03  0.10322805679E+03 -0.53241212330E+03  0.70702434575E+03  0.79650975903E+02 0.  0.
         24    2    4    4    0    0  0.18854296116E+03  0.31984449906E+03  0.11818340615E+03  0.39758393456E+03  0.79099404244E+02 0.  0.
         13    1    3    3    0    0  0.16067402760E+03 -0.22091807479E+03  0.43855162205E+03  0.51667055666E+03  0.00000000000E+00 0.  1.
        -13    1    3    3    0    0  0.97348176449E+02 -0.20215448106E+03  0.24904621051E+03  0.33521204728E+03  0.00000000000E+00 0. -1.
          2    1    6    6  502    0  0.16715755416E+02  0.94110054804E+02  0.37125449700E+02  0.10253983572E+03  0.00000000000E+00 0. -1.
          3    1    5    5  503    0 -0.14057566930E+02 -0.39092213623E+00 -0.45241328117E+02  0.47376637470E+02  0.00000000000E+00 0. -1.
         -4    1    5    5    0  503 -0.43250759829E+03  0.10361897893E+03 -0.48717079518E+03  0.65964770828E+03  0.00000000000E+00 0.  1.
         -1    1    6    6    0  502  0.17182720575E+03  0.22573444425E+03  0.81057956454E+02  0.29504409884E+03  0.00000000000E+00 0.  1.
<mgrwt>
<rscale>  0 0.19372986E+04</rscale>
<asrwt>0</asrwt>
<pdfrwt beam="1">  1        2 0.12947091E+00 0.19372986E+04</pdfrwt>
<pdfrwt beam="2">  1       -2 0.17152769E+00 0.19372986E+04</pdfrwt>
<totfact> 0.62425013E+00</totfact>
</mgrwt>
</event>
<event>
12    1  0.1496989E-007  0.1143026E+04  0.7818608E-02  0.9164242E-01
         -2   -1    0    0    0  501 -0.00000000000E+00  0.00000000000E+00  0.14177566587E+03  0.14177566587E+03  0.00000000000E+00 0. -1.
          2   -1    0    0  501    0  0.00000000000E+00 -0.00000000000E+00 -0.23038288381E+04  0.23038288381E+04  0.00000000000E+00 0.  1.
         23    2    1    2    0    0  0.93629952998E+02 -0.15458282187E+02 -0.74080142955E+03  0.75258205250E+03  0.92668555234E+02 0.  0.
        254    2    1    2    0    0 -0.93629952998E+02  0.15458282187E+02 -0.14212517427E+04  0.16930224515E+04  0.91507539499E+03 0.  0.
        -24    2    4    4    0    0 -0.29332983883E+03  0.17107142653E+03 -0.12622131262E+03  0.37113775702E+03  0.80644823790E+02 0.  0.
         24    2    4    4    0    0  0.19969988583E+03 -0.15561314435E+03 -0.12950304301E+04  0.13218846944E+04  0.78611929955E+02 0.  0.
         13    1    3    3    0    0  0.74501280645E+01 -0.40422261489E+02 -0.17879937334E+03  0.18346301954E+03  0.00000000000E+00 0. -1.
        -13    1    3    3    0    0  0.86179824933E+02  0.24963979301E+02 -0.56200205621E+03  0.56911903296E+03  0.00000000000E+00 0.  1.
          2    1    6    6  502    0  0.20011874198E+03 -0.16275074323E+03 -0.12596194345E+04  0.12857590891E+04  0.00000000000E+00 0. -1.
          1    1    5    5  503    0 -0.82733382076E+02  0.60281207204E+02 -0.12853140265E+01  0.10237328013E+03  0.00000000000E+00 0. -1.
         -4    1    5    5    0  503 -0.21059645675E+03  0.11079021933E+03 -0.12493599860E+03  0.26876447690E+03  0.00000000000E+00 0.  1.
         -1    1    6    6    0  502 -0.41885614862E+00  0.71375988850E+01 -0.35410995554E+02  0.36125605385E+02  0.00000000000E+00 0.  1.
<mgrwt>
<rscale>  0 0.11430256E+04</rscale>
<asrwt>0</asrwt>
<pdfrwt beam="1">  1        2 0.35443521E+00 0.11430256E+04</pdfrwt>
<pdfrwt beam="2">  1       -2 0.21811641E-01 0.11430256E+04</pdfrwt>
<totfact> 0.82308153E+01</totfact>
</mgrwt>
</event>
<event>
12    1  0.1496989E-007  0.1438198E+04  0.7818608E-02  0.8926624E-01
         -1   -1    0    0    0  501 -0.00000000000E+00  0.00000000000E+00  0.50671842581E+03  0.50671842581E+03  0.00000000000E+00 0.  1.
          1   -1    0    0  501    0  0.00000000000E+00 -0.00000000000E+00 -0.10204943703E+04  0.10204943703E+04  0.00000000000E+00 0. -1.
         23    2    1    2    0    0  0.17429561112E+03 -0.27320596201E+03 -0.49278575249E+03  0.59665539237E+03  0.90218632543E+02 0.  0.
        254    2    1    2    0    0 -0.17429561112E+03  0.27320596201E+03 -0.20990191985E+02  0.93055740373E+03  0.87205277119E+03 0.  0.
        -24    2    4    4    0    0 -0.51359619218E+03  0.10554293438E+03 -0.86284573594E+02  0.53813734126E+03  0.85008298422E+02 0.  0.
         24    2    4    4    0    0  0.33930058106E+03  0.16766302763E+03  0.65294381609E+02  0.39242006246E+03  0.80587679055E+02 0.  0.
         11    1    3    3    0    0  0.17173694352E+01  0.70532877438E+01 -0.10707028484E+02  0.12935945452E+02  0.00000000000E+00 0.  1.
        -11    1    3    3    0    0  0.17257824169E+03 -0.28025924975E+03 -0.48207872400E+03  0.58371944692E+03  0.00000000000E+00 0. -1.
          4    1    6    6  502    0  0.63798630935E+02  0.23417133847E+02  0.43474110330E+02  0.80676054290E+02  0.00000000000E+00 0. -1.
          1    1    5    5  503    0 -0.14478639801E+03  0.49971091491E+02 -0.59104051602E+02  0.16417521113E+03  0.00000000000E+00 0. -1.
         -2    1    5    5    0  503 -0.36880979417E+03  0.55571842891E+02 -0.27180521992E+02  0.37396213013E+03  0.00000000000E+00 0.  1.
         -3    1    6    6    0  502  0.27550195012E+03  0.14424589378E+03  0.21820271279E+02  0.31174400817E+03  0.00000000000E+00 0.  1.
<mgrwt>
<rscale>  0 0.14381979E+04</rscale>
<asrwt>0</asrwt>
<pdfrwt beam="1">  1        1 0.15699913E+00 0.14381979E+04</pdfrwt>
<pdfrwt beam="2">  1       -1 0.77956681E-01 0.14381979E+04</pdfrwt>
<totfact> 0.23371475E+01</totfact>
</mgrwt>
</event>
<event>
12    1  0.1496989E-007  0.2054086E+04  0.7818608E-02  0.8581743E-01
         -2   -1    0    0    0  501 -0.00000000000E+00  0.00000000000E+00  0.31127324849E+03  0.31127324849E+03  0.00000000000E+00 0.  1.
          2   -1    0    0  501    0  0.00000000000E+00 -0.00000000000E+00 -0.33887165758E+04  0.33887165758E+04  0.00000000000E+00 0. -1.
         23    2    1    2    0    0 -0.27542999398E+03 -0.18386291498E+03 -0.26061000402E+04  0.26287448279E+04  0.94205612816E+02 0.  0.
        254    2    1    2    0    0  0.27542999398E+03  0.18386291498E+03 -0.47134328707E+03  0.10712449964E+04  0.90317999032E+03 0.  0.
        -24    2    4    4    0    0  0.59381650144E+03  0.12516414518E+03 -0.39829260950E+03  0.73028720440E+03  0.79989358717E+02 0.  0.
         24    2    4    4    0    0 -0.31838650746E+03  0.58698769799E+02 -0.73050677571E+02  0.34095779198E+03  0.78104421833E+02 0.  0.
         13    1    3    3    0    0 -0.91075165592E+02 -0.11651254375E+03 -0.11574203580E+04  0.11668297835E+04  0.00000000000E+00 0. -1.
        -13    1    3    3    0    0 -0.18435482838E+03 -0.67350371234E+02 -0.14486796823E+04  0.14619150444E+04  0.00000000000E+00 0.  1.
          4    1    6    6  502    0 -0.26044037050E+03  0.23259957617E+02 -0.37067397063E+02  0.26409127994E+03  0.00000000000E+00 0. -1.
          1    1    5    5  503    0  0.11372285784E+03  0.52893523384E+02 -0.10061625934E+03  0.16079255224E+03  0.00000000000E+00 0. -1.
         -2    1    5    5    0  503  0.48009364359E+03  0.72270621798E+02 -0.29767635017E+03  0.56949465216E+03  0.00000000000E+00 0.  1.
         -3    1    6    6    0  502 -0.57946136962E+02  0.35438812182E+02 -0.35983280508E+02  0.76866512044E+02  0.00000000000E+00 0.  1.
<mgrwt>
<rscale>  0 0.20540855E+04</rscale>
<asrwt>0</asrwt>
<pdfrwt beam="1">  1        2 0.52134106E+00 0.20540855E+04</pdfrwt>
<pdfrwt beam="2">  1       -2 0.47888187E-01 0.20540855E+04</pdfrwt>
<totfact> 0.37245820E+00</totfact>
</mgrwt>
</event>
<event>
12    1  0.1496989E-007  0.1941649E+04  0.7818608E-02  0.8634398E-01
          2   -1    0    0  501    0  0.00000000000E+00  0.00000000000E+00  0.12281507215E+04  0.12281507215E+04  0.00000000000E+00 0. -1.
         -2   -1    0    0    0  501 -0.00000000000E+00 -0.00000000000E+00 -0.76741382126E+03  0.76741382126E+03  0.00000000000E+00 0.  1.
         23    2    1    2    0    0  0.42012625408E+03  0.16470545802E+03  0.80963418875E+03  0.93146620647E+03  0.92129348957E+02 0.  0.
        254    2    1    2    0    0 -0.42012625408E+03 -0.16470545802E+03 -0.34889728846E+03  0.10640983363E+04  0.89829950141E+03 0.  0.
        -24    2    4    4    0    0 -0.28156121610E+03  0.35592753279E+03 -0.18184222094E+03  0.49397497668E+03  0.70594314616E+02 0.  0.
         24    2    4    4    0    0 -0.13856503798E+03 -0.52063299081E+03 -0.16705506752E+03  0.57012335965E+03  0.82911210150E+02 0.  0.
         13    1    3    3    0    0  0.30111986389E+03  0.13097379476E+03  0.50160403372E+03  0.59952807606E+03  0.00000000000E+00 0. -1.
        -13    1    3    3    0    0  0.11900639019E+03  0.33731663257E+02  0.30803015503E+03  0.33193813041E+03  0.00000000000E+00 0.  1.
          2    1    6    6  502    0 -0.48719649572E+02 -0.33536672834E+03 -0.94573578973E+02  0.35183605354E+03  0.00000000000E+00 0. -1.
          3    1    5    5  503    0 -0.90665981228E+01  0.40073294599E+01  0.51898990534E+01  0.11189143984E+02  0.00000000000E+00 0. -1.
         -4    1    5    5    0  503 -0.27249461797E+03  0.35192020333E+03 -0.18703212000E+03  0.48278583269E+03  0.00000000000E+00 0.  1.
         -1    1    6    6    0  502 -0.89845388407E+02 -0.18526626247E+03 -0.72481488543E+02  0.21828730611E+03  0.00000000000E+00 0.  1.
<mgrwt>
<rscale>  0 0.19416486E+04</rscale>
<asrwt>0</asrwt>
<pdfrwt beam="1">  1        2 0.18894626E+00 0.19416486E+04</pdfrwt>
<pdfrwt beam="2">  1       -2 0.11806366E+00 0.19416486E+04</pdfrwt>
<totfact> 0.94056489E+00</totfact>
</mgrwt>
</event>
<event>
12    1  0.1496989E-007  0.1577533E+04  0.7818608E-02  0.8834470E-01
          1   -1    0    0  501    0  0.00000000000E+00  0.00000000000E+00  0.16622659299E+04  0.16622659299E+04  0.00000000000E+00 0. -1.
         -1   -1    0    0    0  501 -0.00000000000E+00 -0.00000000000E+00 -0.37427982335E+03  0.37427982335E+03  0.00000000000E+00 0.  1.
         23    2    1    2    0    0 -0.63144325281E+02 -0.27078370453E+03 -0.13627563538E+03  0.32226564952E+03  0.89292102709E+02 0.  0.
        254    2    1    2    0    0  0.63144325281E+02  0.27078370453E+03  0.14242617419E+04  0.17142801037E+04  0.91264656034E+03 0.  0.
        -24    2    4    4    0    0 -0.17807742297E+03  0.16649953022E+03  0.14160897376E+04  0.14390566627E+04  0.78359884484E+02 0.  0.
         24    2    4    4    0    0  0.24122174825E+03  0.10428417431E+03  0.81720043780E+01  0.27522344105E+03  0.81351336843E+02 0.  0.
         13    1    3    3    0    0 -0.27849978830E+02 -0.18340800485E+03 -0.44603857303E+02  0.19079733135E+03  0.00000000000E+00 0. -1.
        -13    1    3    3    0    0 -0.35294346451E+02 -0.87375699679E+02 -0.91671778075E+02  0.13146831817E+03  0.00000000000E+00 0.  1.
          4    1    6    6  502    0  0.58125208931E+02  0.18267334496E+02  0.36392859044E+02  0.70969540032E+02  0.00000000000E+00 0. -1.
          1    1    5    5  503    0 -0.12787203017E+03  0.66760111821E+02  0.82340662383E+03  0.83594655140E+03  0.00000000000E+00 0. -1.
         -2    1    5    5    0  503 -0.50205392796E+02  0.99739418397E+02  0.59268311374E+03  0.60311011130E+03  0.00000000000E+00 0.  1.
         -3    1    6    6    0  502  0.18309653932E+03  0.86016839818E+02 -0.28220854666E+02  0.20425390102E+03  0.00000000000E+00 0.  1.
<mgrwt>
<rscale>  0 0.15775330E+04</rscale>
<asrwt>0</asrwt>
<pdfrwt beam="1">  1        1 0.25573322E+00 0.15775330E+04</pdfrwt>
<pdfrwt beam="2">  1       -1 0.57581512E-01 0.15775330E+04</pdfrwt>
<totfact> 0.14851821E+01</totfact>
</mgrwt>
</event>
<event>
12    1  0.1496989E-007  0.1882260E+04  0.7818608E-02  0.8663737E-01
         -2   -1    0    0    0  501 -0.00000000000E+00  0.00000000000E+00  0.10174332951E+04  0.10174332951E+04  0.00000000000E+00 0.  1.
          2   -1    0    0  501    0  0.00000000000E+00 -0.00000000000E+00 -0.87054939136E+03  0.87054939136E+03  0.00000000000E+00 0. -1.
         23    2    1    2    0    0  0.52537996682E+03 -0.76670936372E+02  0.55745446585E+03  0.77534126527E+03  0.92174042441E+02 0.  0.
        254    2    1    2    0    0 -0.52537996682E+03  0.76670936372E+02 -0.41057056212E+03  0.11126414212E+04  0.88741208219E+03 0.  0.
        -24    2    4    4    0    0 -0.21832292763E+03 -0.26980649075E+03  0.14481515952E+03  0.38431862387E+03  0.79176581437E+02 0.  0.
         24    2    4    4    0    0 -0.30705703920E+03  0.34647742713E+03 -0.55538572164E+03  0.72832279731E+03  0.87579475051E+02 0.  0.
         11    1    3    3    0    0  0.19385816811E+02 -0.17588392025E+02  0.49189571156E+02  0.55720510927E+02  0.00000000000E+00 0. -1.
        -11    1    3    3    0    0  0.50599415001E+03 -0.59082544347E+02  0.50826489470E+03  0.71962075434E+03  0.00000000000E+00 0.  1.
          4    1    6    6  502    0 -0.20532572934E+03  0.26936539934E+03 -0.44724462294E+03  0.56102061124E+03  0.00000000000E+00 0. -1.
          3    1    5    5  503    0 -0.18532145646E+03 -0.26003895971E+03  0.14293825169E+03  0.34985089194E+03  0.00000000000E+00 0. -1.
         -2    1    5    5    0  503 -0.33001471167E+02 -0.97675310402E+01  0.18769078327E+01  0.34467731936E+02  0.00000000000E+00 0.  1.
         -3    1    6    6    0  502 -0.10173130986E+03  0.77112027790E+02 -0.10814109870E+03  0.16730218607E+03  0.00000000000E+00 0.  1.
<mgrwt>
<rscale>  0 0.18822603E+04</rscale>
<asrwt>0</asrwt>
<pdfrwt beam="1">  1        2 0.13393068E+00 0.18822603E+04</pdfrwt>
<pdfrwt beam="2">  1       -2 0.15652820E+00 0.18822603E+04</pdfrwt>
<totfact> 0.76987166E+00</totfact>
</mgrwt>
</event>
<event>
12    1  0.1496989E-007  0.1083692E+04  0.7818608E-02  0.9221234E-01
          1   -1    0    0  501    0  0.00000000000E+00  0.00000000000E+00  0.14974808428E+04  0.14974808428E+04  0.00000000000E+00 0. -1.
         -1   -1    0    0    0  501 -0.00000000000E+00 -0.00000000000E+00 -0.19606073460E+03  0.19606073460E+03  0.00000000000E+00 0.  1.
         23    2    1    2    0    0  0.40890427189E+02 -0.12596365313E+02 -0.79670307792E+01  0.10828983346E+03  0.99159059077E+02 0.  0.
        254    2    1    2    0    0 -0.40890427189E+02  0.12596365313E+02  0.13093871389E+04  0.15852517439E+04  0.89257924939E+03 0.  0.
        -24    2    4    4    0    0 -0.24204463682E+03 -0.13337181267E+02 -0.18049543916E+01  0.25595939646E+03  0.82149060594E+02 0.  0.
         24    2    4    4    0    0  0.20115420963E+03  0.25933546579E+02  0.13111920933E+04  0.13292923474E+04  0.81595799184E+02 0.  0.
         13    1    3    3    0    0  0.28235647641E+02  0.35760970348E+02 -0.29052975511E+02  0.54038636030E+02  0.00000000000E+00 0.  1.
        -13    1    3    3    0    0  0.12654779548E+02 -0.48357335661E+02  0.21085944731E+02  0.54251197432E+02  0.00000000000E+00 0. -1.
          2    1    6    6  502    0  0.17308086122E+03 -0.92909423555E+01  0.10144582383E+04  0.10291592799E+04  0.00000000000E+00 0. -1.
          1    1    5    5  503    0 -0.17936457358E+03  0.21904695065E+02  0.17393919570E+02  0.18153240581E+03  0.00000000000E+00 0. -1.
         -2    1    5    5    0  503 -0.62680063242E+02 -0.35241876332E+02 -0.19198873962E+02  0.74426990647E+02  0.00000000000E+00 0.  1.
         -1    1    6    6    0  502  0.28073348408E+02  0.35224488935E+02  0.29673385501E+03  0.30013306753E+03  0.00000000000E+00 0.  1.
<mgrwt>
<rscale>  0 0.10836922E+04</rscale>
<asrwt>0</asrwt>
<pdfrwt beam="1">  1        1 0.23038166E+00 0.10836922E+04</pdfrwt>
<pdfrwt beam="2">  1       -1 0.30163191E-01 0.10836922E+04</pdfrwt>
<totfact> 0.66202802E+01</totfact>
</mgrwt>
</event>
<event>
12    1  0.1496989E-007  0.2621238E+04  0.7818608E-02  0.8361023E-01
          1   -1    0    0  501    0  0.00000000000E+00  0.00000000000E+00  0.89850658966E+03  0.89850658966E+03  0.00000000000E+00 0. -1.
         -1   -1    0    0    0  501 -0.00000000000E+00 -0.00000000000E+00 -0.19117527135E+04  0.19117527135E+04  0.00000000000E+00 0.  1.
         23    2    1    2    0    0  0.88982142920E+03 -0.11673553623E+03  0.31545566505E+03  0.95670571206E+03  0.10180462457E+03 0.  0.
        254    2    1    2    0    0 -0.88982142920E+03  0.11673553623E+03 -0.13287017889E+04  0.18535535911E+04  0.92994790716E+03 0.  0.
        -24    2    4    4    0    0  0.16797072737E+02  0.31945888713E+02 -0.78528409407E+03  0.79014878003E+03  0.79757787850E+02 0.  0.
         24    2    4    4    0    0 -0.90661850194E+03  0.84789647515E+02 -0.54341769479E+03  0.10634048111E+04  0.79878712979E+02 0.  0.
         11    1    3    3    0    0  0.74119584553E+03 -0.88814126286E+02  0.30061478755E+03  0.80475367719E+03  0.00000000000E+00 0.  1.
        -11    1    3    3    0    0  0.14862558367E+03 -0.27921409941E+02  0.14840877501E+02  0.15195203487E+03  0.00000000000E+00 0. -1.
          4    1    6    6  502    0 -0.26548164620E+03 -0.71905666247E+01 -0.17831677059E+03  0.31988916736E+03  0.00000000000E+00 0. -1.
          1    1    5    5  503    0  0.21803985292E+02 -0.73179189319E+01 -0.68210812170E+02  0.71983891316E+02  0.00000000000E+00 0. -1.
         -2    1    5    5    0  503 -0.50069125559E+01  0.39263807645E+02 -0.71707328190E+03  0.71816488872E+03  0.00000000000E+00 0.  1.
         -3    1    6    6    0  502 -0.64113685574E+03  0.91980214139E+02 -0.36510092421E+03  0.74351564370E+03  0.00000000000E+00 0.  1.
<mgrwt>
<rscale>  0 0.26212382E+04</rscale>
<asrwt>0</asrwt>
<pdfrwt beam="1">  1        1 0.13823178E+00 0.26212382E+04</pdfrwt>
<pdfrwt beam="2">  1       -1 0.29411580E+00 0.26212382E+04</pdfrwt>
<totfact> 0.57843249E-01</totfact>
</mgrwt>
</event>
<event>
12    1  0.1496989E-007  0.1766221E+04  0.7818608E-02  0.8724472E-01
         -2   -1    0    0    0  501 -0.00000000000E+00  0.00000000000E+00  0.50912203368E+03  0.50912203368E+03  0.00000000000E+00 0.  1.
          2   -1    0    0  501    0  0.00000000000E+00 -0.00000000000E+00 -0.15318223862E+04  0.15318223862E+04  0.00000000000E+00 0. -1.
         23    2    1    2    0    0  0.34560004909E+03  0.37835945344E+03  0.81399662951E+02  0.52690044059E+03  0.91667329094E+02 0.  0.
        254    2    1    2    0    0 -0.34560004909E+03 -0.37835945344E+03 -0.11041000155E+04  0.15140439793E+04  0.90038717067E+03 0.  0.
        -24    2    4    4    0    0  0.17289694364E+03  0.12256559489E+03 -0.56968346544E+03  0.61303216250E+03  0.79708865867E+02 0.  0.
         24    2    4    4    0    0 -0.51849699273E+03 -0.50092504834E+03 -0.53441655004E+03  0.90101181679E+03  0.80350541409E+02 0.  0.
         11    1    3    3    0    0  0.29210219442E+03  0.32086037621E+03  0.34157801154E+02  0.43524915668E+03  0.00000000000E+00 0.  1.
        -11    1    3    3    0    0  0.53497854669E+02  0.57499077234E+02  0.47241861798E+02  0.91651283914E+02  0.00000000000E+00 0. -1.
          2    1    6    6  502    0 -0.42800888483E+03 -0.39053594127E+03 -0.39321653007E+03  0.70023507941E+03  0.00000000000E+00 0. -1.
          3    1    5    5  503    0  0.90460211739E+02  0.20566987105E+02 -0.28196304583E+03  0.29683195596E+03  0.00000000000E+00 0. -1.
         -4    1    5    5    0  503  0.82436731904E+02  0.10199860779E+03 -0.28772041961E+03  0.31620020654E+03  0.00000000000E+00 0.  1.
         -1    1    6    6    0  502 -0.90488107902E+02 -0.11038910707E+03 -0.14120001997E+03  0.20077673738E+03  0.00000000000E+00 0.  1.
<mgrwt>
<rscale>  0 0.17662214E+04</rscale>
<asrwt>0</asrwt>
<pdfrwt beam="1">  1        2 0.23566498E+00 0.17662214E+04</pdfrwt>
<pdfrwt beam="2">  1       -2 0.78326467E-01 0.17662214E+04</pdfrwt>
<totfact> 0.16711408E+01</totfact>
</mgrwt>
</event>
<event>
12    1  0.1496989E-007  0.1501329E+04  0.7818608E-02  0.8883569E-01
          1   -1    0    0  501    0  0.00000000000E+00  0.00000000000E+00  0.61346005168E+03  0.61346005168E+03  0.00000000000E+00 0. -1.
         -1   -1    0    0    0  501 -0.00000000000E+00 -0.00000000000E+00 -0.91855607677E+03  0.91855607677E+03  0.00000000000E+00 0.  1.
         23    2    1    2    0    0  0.41656723375E+03  0.21579628734E+03 -0.62099837761E+02  0.48261081141E+03  0.94659957626E+02 0.  0.
        254    2    1    2    0    0 -0.41656723375E+03 -0.21579628734E+03 -0.24299618733E+03  0.10494053170E+04  0.90670175610E+03 0.  0.
        -24    2    4    4    0    0 -0.37121318391E+03 -0.36592489223E+03 -0.50724916485E+03  0.73173786721E+03  0.80239244808E+02 0.  0.
         24    2    4    4    0    0 -0.45354049834E+02  0.15012860489E+03  0.26425297752E+03  0.31766744983E+03  0.80544302778E+02 0.  0.
         13    1    3    3    0    0  0.18974615543E+03  0.13077915630E+03  0.75266919505E+01  0.23057198944E+03  0.00000000000E+00 0.  1.
        -13    1    3    3    0    0  0.22682107832E+03  0.85017131036E+02 -0.69626529712E+02  0.25203882197E+03  0.00000000000E+00 0. -1.
          4    1    6    6  502    0 -0.42077219389E+02  0.12087535937E+03  0.13878434262E+03  0.18879205134E+03  0.00000000000E+00 0. -1.
          3    1    5    5  503    0 -0.30379126980E+03 -0.31910075658E+03 -0.38867443130E+03  0.58752212044E+03  0.00000000000E+00 0. -1.
         -4    1    5    5    0  503 -0.67421914111E+02 -0.46824135653E+02 -0.11857473354E+03  0.14421574677E+03  0.00000000000E+00 0.  1.
         -3    1    6    6    0  502 -0.32768304447E+01  0.29253245525E+02  0.12546863490E+03  0.12887539849E+03  0.00000000000E+00 0.  1.
<mgrwt>
<rscale>  0 0.15013294E+04</rscale>
<asrwt>0</asrwt>
<pdfrwt beam="1">  1        1 0.94378470E-01 0.15013294E+04</pdfrwt>
<pdfrwt beam="2">  1       -1 0.14131632E+00 0.15013294E+04</pdfrwt>
<totfact> 0.13120662E+01</totfact>
</mgrwt>
</event>
<event>
12    1  0.1496989E-007  0.1216799E+04  0.7818608E-02  0.9098278E-01
         -1   -1    0    0    0  501 -0.00000000000E+00  0.00000000000E+00  0.44632131689E+03  0.44632131689E+03  0.00000000000E+00 0.  1.
          1   -1    0    0  501    0  0.00000000000E+00 -0.00000000000E+00 -0.82933532296E+03  0.82933532296E+03  0.00000000000E+00 0. -1.
         23    2    1    2    0    0 -0.85259615451E+02 -0.17438199579E+03 -0.27202302539E+03  0.34355318568E+03  0.79711872163E+02 0.  0.
        254    2    1    2    0    0  0.85259615451E+02  0.17438199579E+03 -0.11099098068E+03  0.93210345417E+03  0.90488649510E+03 0.  0.
        -24    2    4    4    0    0  0.25425556837E+03 -0.23551800016E+03 -0.27775262930E+03  0.45121475626E+03  0.79583985400E+02 0.  0.
         24    2    4    4    0    0 -0.16899595292E+03  0.40989999596E+03  0.16676164862E+03  0.48088869792E+03  0.82866480242E+02 0.  0.
         11    1    3    3    0    0 -0.77908073698E+02 -0.15062541352E+03 -0.26969050636E+03  0.31857597582E+03  0.00000000000E+00 0. -1.
        -11    1    3    3    0    0 -0.73515417535E+01 -0.23756582273E+02 -0.23325190267E+01  0.24977209861E+02  0.00000000000E+00 0.  1.
          2    1    6    6  502    0  0.44224394389E+01  0.21470276062E+02 -0.44043762502E+01  0.22359097811E+02  0.00000000000E+00 0. -1.
          1    1    5    5  503    0  0.12930153218E+02 -0.30261608199E+02 -0.54431335934E+02  0.63606006985E+02  0.00000000000E+00 0. -1.
         -2    1    5    5    0  503  0.24132541516E+03 -0.20525639196E+03 -0.22332129336E+03  0.38760874927E+03  0.00000000000E+00 0.  1.
         -1    1    6    6    0  502 -0.17341839236E+03  0.38842971989E+03  0.17116602487E+03  0.45852960011E+03  0.00000000000E+00 0.  1.
<mgrwt>
<rscale>  0 0.12167991E+04</rscale>
<asrwt>0</asrwt>
<pdfrwt beam="1">  1        1 0.12759005E+00 0.12167991E+04</pdfrwt>
<pdfrwt beam="2">  1       -1 0.68664819E-01 0.12167991E+04</pdfrwt>
<totfact> 0.44262209E+01</totfact>
</mgrwt>
</event>
<event>
12    1  0.1496989E-007  0.1166147E+04  0.7818608E-02  0.9143015E-01
          2   -1    0    0  501    0  0.00000000000E+00  0.00000000000E+00  0.17326387940E+04  0.17326387940E+04  0.00000000000E+00 0. -1.
         -2   -1    0    0    0  501 -0.00000000000E+00 -0.00000000000E+00 -0.19621793201E+03  0.19621793201E+03  0.00000000000E+00 0.  1.
         23    2    1    2    0    0 -0.11841810393E+03 -0.13640253816E+03  0.53778989797E+03  0.57431002776E+03  0.89361814381E+02 0.  0.
        254    2    1    2    0    0  0.11841810393E+03  0.13640253816E+03  0.99863096406E+03  0.13545466983E+04  0.89716467593E+03 0.  0.
        -24    2    4    4    0    0  0.43433038104E+03 -0.23202491759E+02  0.21676092002E+03  0.49258770752E+03  0.80474329050E+02 0.  0.
         24    2    4    4    0    0 -0.31591227710E+03  0.15960502992E+03  0.78187004404E+03  0.86195899078E+03  0.79863656425E+02 0.  0.
         13    1    3    3    0    0 -0.10985724083E+03 -0.14701006700E+03  0.52266609202E+03  0.55394983249E+03  0.00000000000E+00 0. -1.
        -13    1    3    3    0    0 -0.85608631064E+01  0.10607528839E+02  0.15123805950E+02  0.20360195274E+02  0.00000000000E+00 0.  1.
          2    1    6    6  502    0 -0.17348721784E+03  0.57316601096E+02  0.32905729419E+03  0.37637974225E+03  0.00000000000E+00 0. -1.
          1    1    5    5  503    0  0.14039448574E+03 -0.22855292844E+02  0.11018433086E+03  0.17992654836E+03  0.00000000000E+00 0. -1.
         -2    1    5    5    0  503  0.29393589529E+03 -0.34719891439E+00  0.10657658916E+03  0.31266115916E+03  0.00000000000E+00 0.  1.
         -1    1    6    6    0  502 -0.14242505926E+03  0.10228842883E+03  0.45281274985E+03  0.48557924853E+03  0.00000000000E+00 0.  1.
<mgrwt>
<rscale>  0 0.11661472E+04</rscale>
<asrwt>0</asrwt>
<pdfrwt beam="1">  1        2 0.26655980E+00 0.11661472E+04</pdfrwt>
<pdfrwt beam="2">  1       -2 0.30187375E-01 0.11661472E+04</pdfrwt>
<totfact> 0.94270143E+01</totfact>
</mgrwt>
</event>
<event>
12    1  0.1496989E-007  0.3071744E+04  0.7818608E-02  0.8223536E-01
         -1   -1    0    0    0  501 -0.00000000000E+00  0.00000000000E+00  0.16704751134E+04  0.16704751134E+04  0.00000000000E+00 0.  1.
          1   -1    0    0  501    0  0.00000000000E+00 -0.00000000000E+00 -0.14121148343E+04  0.14121148343E+04  0.00000000000E+00 0. -1.
         23    2    1    2    0    0 -0.16765025668E+03 -0.87464143071E+03 -0.96932201763E+03  0.13193938170E+04  0.90059034314E+02 0.  0.
        254    2    1    2    0    0  0.16765025668E+03  0.87464143071E+03  0.12276822967E+04  0.17631961306E+04  0.89919549186E+03 0.  0.
        -24    2    4    4    0    0  0.35569345860E+03  0.57961488904E+03  0.12261890946E+04  0.14044195246E+04  0.79895239602E+02 0.  0.
         24    2    4    4    0    0 -0.18804320193E+03  0.29502654167E+03  0.14932020884E+01  0.35877660601E+03  0.79482811265E+02 0.  0.
         13    1    3    3    0    0 -0.55769004318E+02 -0.46901592742E+03 -0.46835691191E+03  0.66516488102E+03  0.00000000000E+00 0.  1.
        -13    1    3    3    0    0 -0.11188125236E+03 -0.40562550329E+03 -0.50096510572E+03  0.65422893600E+03  0.00000000000E+00 0. -1.
          2    1    6    6  502    0 -0.36145018597E+02  0.98403122487E+02 -0.28166985791E+02  0.10854960144E+03  0.00000000000E+00 0. -1.
          1    1    5    5  503    0  0.46179362285E+02  0.13155815777E+03  0.22451881084E+03  0.26428919539E+03  0.00000000000E+00 0. -1.
         -2    1    5    5    0  503  0.30951409632E+03  0.44805673127E+03  0.10016702838E+04  0.11401303292E+04  0.00000000000E+00 0.  1.
         -1    1    6    6    0  502 -0.15189818333E+03  0.19662341918E+03  0.29660187879E+02  0.25022700457E+03  0.00000000000E+00 0.  1.
<mgrwt>
<rscale>  0 0.30717439E+04</rscale>
<asrwt>0</asrwt>
<pdfrwt beam="1">  1        1 0.21724844E+00 0.30717439E+04</pdfrwt>
<pdfrwt beam="2">  1       -1 0.25699617E+00 0.30717439E+04</pdfrwt>
<totfact> 0.39995106E-01</totfact>
</mgrwt>
</event>
<event>
12    1  0.1496989E-007  0.1215735E+04  0.7818608E-02  0.9099194E-01
         -2   -1    0    0    0  501 -0.00000000000E+00  0.00000000000E+00  0.42361122984E+03  0.42361122984E+03  0.00000000000E+00 0. -1.
          2   -1    0    0  501    0  0.00000000000E+00 -0.00000000000E+00 -0.87226932317E+03  0.87226932317E+03  0.00000000000E+00 0.  1.
         23    2    1    2    0    0  0.11722179404E+03  0.52234778130E+02  0.14242376500E+03  0.21307812970E+03  0.92996448703E+02 0.  0.
        254    2    1    2    0    0 -0.11722179404E+03 -0.52234778130E+02 -0.59108185833E+03  0.10828024233E+04  0.89811686525E+03 0.  0.
        -24    2    4    4    0    0 -0.34761682595E+03  0.27935766768E+03 -0.14559741422E+03  0.47639258339E+03  0.82904296083E+02 0.  0.
         24    2    4    4    0    0  0.23039503190E+03 -0.33159244581E+03 -0.44548444411E+03  0.60640983993E+03  0.79000526417E+02 0.  0.
         13    1    3    3    0    0  0.72617124955E+02 -0.17561262247E+02  0.55989557925E+02  0.93362065986E+02  0.00000000000E+00 0. -1.
        -13    1    3    3    0    0  0.44604669089E+02  0.69796040377E+02  0.86434207079E+02  0.11971606371E+03  0.00000000000E+00 0.  1.
          4    1    6    6  502    0  0.80988097715E+01 -0.16733095885E+01 -0.30251298838E+02  0.31361310018E+02  0.00000000000E+00 0. -1.
          3    1    5    5  503    0 -0.26141292146E+03  0.25083936169E+03 -0.10731930185E+03  0.37785517521E+03  0.00000000000E+00 0. -1.
         -4    1    5    5    0  503 -0.86203904487E+02  0.28518305989E+02 -0.38278112369E+02  0.98537408185E+02  0.00000000000E+00 0.  1.
         -3    1    6    6    0  502  0.22229622213E+03 -0.32991913622E+03 -0.41523314527E+03  0.57504852991E+03  0.00000000000E+00 0.  1.
<mgrwt>
<rscale>  0 0.12157353E+04</rscale>
<asrwt>0</asrwt>
<pdfrwt beam="1">  1        2 0.13419528E+00 0.12157353E+04</pdfrwt>
<pdfrwt beam="2">  1       -2 0.65170959E-01 0.12157353E+04</pdfrwt>
<totfact> 0.65563859E+01</totfact>
</mgrwt>
</event>
<event>
12    1  0.1496989E-007  0.1592586E+04  0.7818608E-02  0.8825116E-01
          2   -1    0    0  501    0  0.00000000000E+00  0.00000000000E+00  0.27449868837E+04  0.27449868837E+04  0.00000000000E+00 0. -1.
         -2   -1    0    0    0  501 -0.00000000000E+00 -0.00000000000E+00 -0.23099655180E+03  0.23099655180E+03  0.00000000000E+00 0.  1.
         23    2    1    2    0    0 -0.23852744653E+03  0.42348576966E+03  0.13036299559E+04  0.13945627025E+04  0.95490991012E+02 0.  0.
        254    2    1    2    0    0  0.23852744653E+03 -0.42348576966E+03  0.12103603760E+04  0.15814207331E+04  0.89425038732E+03 0.  0.
        -24    2    4    4    0    0  0.57234531599E+03 -0.26548418007E+03  0.82471196344E+03  0.10414759310E+04  0.80382097417E+02 0.  0.
         24    2    4    4    0    0 -0.33381786947E+03 -0.15800158959E+03  0.38564841260E+03  0.53994480207E+03  0.80105048852E+02 0.  0.
         11    1    3    3    0    0 -0.23816249694E+01 -0.17160191339E+01  0.46989633732E+02  0.47081233389E+02  0.00000000000E+00 0.  1.
        -11    1    3    3    0    0 -0.23614582156E+03  0.42520178879E+03  0.12566403221E+04  0.13474814691E+04  0.00000000000E+00 0. -1.
          2    1    6    6  502    0 -0.15469967674E+03 -0.11696860032E+03  0.18903971359E+03  0.27083141760E+03  0.00000000000E+00 0. -1.
          3    1    5    5  503    0  0.31572848492E+03 -0.12035581536E+03  0.49313564745E+03  0.59778990061E+03  0.00000000000E+00 0. -1.
         -4    1    5    5    0  503  0.25661683107E+03 -0.14512836471E+03  0.33157631599E+03  0.44368603038E+03  0.00000000000E+00 0.  1.
         -1    1    6    6    0  502 -0.17911819273E+03 -0.41032989266E+02  0.19660869901E+03  0.26911338447E+03  0.00000000000E+00 0.  1.
<mgrwt>
<rscale>  0 0.15925860E+04</rscale>
<asrwt>0</asrwt>
<pdfrwt beam="1">  1        2 0.42230565E+00 0.15925860E+04</pdfrwt>
<pdfrwt beam="2">  1       -2 0.35537933E-01 0.15925860E+04</pdfrwt>
<totfact> 0.17885746E+01</totfact>
</mgrwt>
</event>
<event>
12    1  0.1496989E-007  0.1202399E+04  0.7818608E-02  0.9110760E-01
         -3   -1    0    0    0  501 -0.00000000000E+00  0.00000000000E+00  0.33916225588E+03  0.33916225588E+03  0.00000000000E+00 0.  1.
          3   -1    0    0  501    0  0.00000000000E+00 -0.00000000000E+00 -0.10656863585E+04  0.10656863585E+04  0.00000000000E+00 0. -1.
         23    2    1    2    0    0  0.19039240004E+03  0.18583953415E+03 -0.11886333902E+03  0.30603949351E+03  0.93520477854E+02 0.  0.
        254    2    1    2    0    0 -0.19039240004E+03 -0.18583953415E+03 -0.60766076356E+03  0.10988091208E+04  0.87598189595E+03 0.  0.
        -24    2    4    4    0    0 -0.23751210531E+03  0.30669819420E+03 -0.37965168684E+03  0.54829587964E+03  0.77570521573E+02 0.  0.
         24    2    4    4    0    0  0.47119705270E+02 -0.49253772835E+03 -0.22800907672E+03  0.55051324120E+03  0.79139176116E+02 0.  0.
         13    1    3    3    0    0  0.11825950662E+03  0.10084489276E+03 -0.19372106899E+02  0.15662146030E+03  0.00000000000E+00 0. -1.
        -13    1    3    3    0    0  0.72132893421E+02  0.84994641394E+02 -0.99491232124E+02  0.14941803321E+03  0.00000000000E+00 0.  1.
          2    1    6    6  502    0  0.36841664978E+02 -0.46417955250E+03 -0.23174255127E+03  0.52011977015E+03  0.00000000000E+00 0. -1.
          1    1    5    5  503    0 -0.19515019901E+03  0.29100390537E+03 -0.33393958550E+03  0.48402739579E+03  0.00000000000E+00 0. -1.
         -2    1    5    5    0  503 -0.42361906298E+02  0.15694288829E+02 -0.45712101343E+02  0.64268483849E+02  0.00000000000E+00 0.  1.
         -1    1    6    6    0  502  0.10278040292E+02 -0.28358175857E+02  0.37334745526E+01  0.30393471049E+02  0.00000000000E+00 0.  1.
<mgrwt>
<rscale>  0 0.12023986E+04</rscale>
<asrwt>0</asrwt>
<pdfrwt beam="1">  1        3 0.16395175E+00 0.12023986E+04</pdfrwt>
<pdfrwt beam="2">  1       -3 0.52178809E-01 0.12023986E+04</pdfrwt>
<totfact> 0.24071875E+00</totfact>
</mgrwt>
</event>
<event>
12    1  0.1496989E-007  0.1766906E+04  0.7818608E-02  0.8724099E-01
          1   -1    0    0  501    0  0.00000000000E+00  0.00000000000E+00  0.25280380541E+04  0.25280380541E+04  0.00000000000E+00 0. -1.
         -1   -1    0    0    0  501 -0.00000000000E+00 -0.00000000000E+00 -0.30873316157E+03  0.30873316157E+03  0.00000000000E+00 0.  1.
         23    2    1    2    0    0  0.34225118154E+03 -0.49961574613E+03  0.11978863605E+04  0.13457842730E+04  0.97220428487E+02 0.  0.
        254    2    1    2    0    0 -0.34225118154E+03  0.49961574613E+03  0.10214185320E+04  0.14909869427E+04  0.90166206565E+03 0.  0.
        -24    2    4    4    0    0 -0.17555619155E+03  0.40284901545E+03 -0.14662023714E+01  0.44685599127E+03  0.81060604138E+02 0.  0.
         24    2    4    4    0    0 -0.16669498999E+03  0.96766730683E+02  0.10228847344E+04  0.10441309514E+04  0.82251103214E+02 0.  0.
         11    1    3    3    0    0  0.32167984942E+03 -0.45422960928E+03  0.10314174069E+04  0.11720172058E+04  0.00000000000E+00 0.  1.
        -11    1    3    3    0    0  0.20571332118E+02 -0.45386136846E+02  0.16646895357E+03  0.17376706715E+03  0.00000000000E+00 0. -1.
          2    1    6    6  502    0 -0.27954243265E+02  0.36310563179E+02  0.42199934886E+03  0.42448009041E+03  0.00000000000E+00 0. -1.
          3    1    5    5  503    0 -0.53567560772E+02  0.14964062684E+03  0.36957832745E+02  0.16317990737E+03  0.00000000000E+00 0. -1.
         -4    1    5    5    0  503 -0.12198863078E+03  0.25320838861E+03 -0.38424035117E+02  0.28367608390E+03  0.00000000000E+00 0.  1.
         -1    1    6    6    0  502 -0.13874074672E+03  0.60456167504E+02  0.60088538554E+03  0.61965086100E+03  0.00000000000E+00 0.  1.
<mgrwt>
<rscale>  0 0.17669060E+04</rscale>
<asrwt>0</asrwt>
<pdfrwt beam="1">  1        1 0.38892892E+00 0.17669060E+04</pdfrwt>
<pdfrwt beam="2">  1       -1 0.47497411E-01 0.17669060E+04</pdfrwt>
<totfact> 0.54304895E+00</totfact>
</mgrwt>
</event>
<event>
12    1  0.1496989E-007  0.2044673E+04  0.7818608E-02  0.8586015E-01
          1   -1    0    0  501    0  0.00000000000E+00  0.00000000000E+00  0.92066875177E+03  0.92066875177E+03  0.00000000000E+00 0. -1.
         -1   -1    0    0    0  501 -0.00000000000E+00 -0.00000000000E+00 -0.11352317053E+04  0.11352317053E+04  0.00000000000E+00 0.  1.
         23    2    1    2    0    0  0.44524835304E+03 -0.64684470222E+03  0.15830153107E+03  0.80619454255E+03  0.90752967020E+02 0.  0.
        254    2    1    2    0    0 -0.44524835304E+03  0.64684470222E+03 -0.37286448458E+03  0.12497059145E+04  0.89782113153E+03 0.  0.
        -24    2    4    4    0    0 -0.66977985539E+03  0.59316927546E+03 -0.43331967256E+03  0.99753081601E+03  0.82746276176E+02 0.  0.
         24    2    4    4    0    0  0.22453150236E+03  0.53675426756E+02  0.60455187979E+02  0.25217509850E+03  0.81498488092E+02 0.  0.
         11    1    3    3    0    0  0.41912134420E+03 -0.61753560815E+03  0.16955323291E+03  0.76535039510E+03  0.00000000000E+00 0. -1.
        -11    1    3    3    0    0  0.26127008838E+02 -0.29309094071E+02 -0.11251701842E+02  0.40844147444E+02  0.00000000000E+00 0.  1.
          4    1    6    6  502    0  0.19722797057E+03  0.52131453409E+02  0.79398316298E+02  0.21890786519E+03  0.00000000000E+00 0. -1.
          3    1    5    5  503    0 -0.34300553735E+03  0.33869202165E+03 -0.26841577414E+03  0.55173554534E+03  0.00000000000E+00 0. -1.
         -2    1    5    5    0  503 -0.32677431804E+03  0.25447725381E+03 -0.16490389842E+03  0.44579527067E+03  0.00000000000E+00 0.  1.
         -3    1    6    6    0  502  0.27303531788E+02  0.15439733471E+01 -0.18943128319E+02  0.33267233313E+02  0.00000000000E+00 0.  1.
<mgrwt>
<rscale>  0 0.20446734E+04</rscale>
<asrwt>0</asrwt>
<pdfrwt beam="1">  1        1 0.14164135E+00 0.20446734E+04</pdfrwt>
<pdfrwt beam="2">  1       -1 0.17465103E+00 0.20446734E+04</pdfrwt>
<totfact> 0.36798333E+00</totfact>
</mgrwt>
</event>
<event>
12    1  0.1496989E-007  0.1170727E+04  0.7818608E-02  0.9138872E-01
          1   -1    0    0  501    0  0.00000000000E+00  0.00000000000E+00  0.66119242651E+03  0.66119242651E+03  0.00000000000E+00 0. -1.
         -1   -1    0    0    0  501 -0.00000000000E+00 -0.00000000000E+00 -0.51823083305E+03  0.51823083305E+03  0.00000000000E+00 0.  1.
         23    2    1    2    0    0  0.10984173060E+03 -0.43911366579E+02 -0.15395522734E+03  0.21602471396E+03  0.94715632935E+02 0.  0.
        254    2    1    2    0    0 -0.10984173060E+03  0.43911366579E+02  0.29691682080E+03  0.96339854560E+03  0.90883647885E+03 0.  0.
        -24    2    4    4    0    0 -0.33683827725E+03 -0.29850856906E+03  0.29675590397E+03  0.54497140016E+03  0.79764463428E+02 0.  0.
         24    2    4    4    0    0  0.22699654665E+03  0.34241993564E+03  0.16091682774E+00  0.41842714544E+03  0.79387691923E+02 0.  0.
         11    1    3    3    0    0  0.10932925907E+03 -0.65425440235E+02 -0.11556163577E+03  0.17201124027E+03  0.00000000000E+00 0.  1.
        -11    1    3    3    0    0  0.51247152293E+00  0.21514073656E+02 -0.38393591570E+02  0.44013473687E+02  0.00000000000E+00 0. -1.
          2    1    6    6  502    0  0.60799567918E+02  0.43889430934E+02  0.14826040119E+02  0.76437432403E+02  0.00000000000E+00 0. -1.
          3    1    5    5  503    0 -0.67457584725E+01  0.31680486990E+00  0.19037598088E+02  0.20199895140E+02  0.00000000000E+00 0. -1.
         -4    1    5    5    0  503 -0.33009251878E+03 -0.29882537393E+03  0.27771830589E+03  0.52477150502E+03  0.00000000000E+00 0.  1.
         -1    1    6    6    0  502  0.16619697874E+03  0.29853050470E+03 -0.14665123292E+02  0.34198971303E+03  0.00000000000E+00 0.  1.
<mgrwt>
<rscale>  0 0.11707268E+04</rscale>
<asrwt>0</asrwt>
<pdfrwt beam="1">  1        1 0.10172191E+00 0.11707268E+04</pdfrwt>
<pdfrwt beam="2">  1       -1 0.79727821E-01 0.11707268E+04</pdfrwt>
<totfact> 0.46292759E+01</totfact>
</mgrwt>
</event>
<event>
12    1  0.1496989E-007  0.1993660E+04  0.7818608E-02  0.8609590E-01
          1   -1    0    0  501    0  0.00000000000E+00  0.00000000000E+00  0.12375041820E+04  0.12375041820E+04  0.00000000000E+00 0. -1.
         -1   -1    0    0    0  501 -0.00000000000E+00 -0.00000000000E+00 -0.80296308263E+03  0.80296308263E+03  0.00000000000E+00 0.  1.
         23    2    1    2    0    0  0.68549034214E+02 -0.52856919774E+03 -0.42339180646E+03  0.68695155049E+03  0.92506454078E+02 0.  0.
        254    2    1    2    0    0 -0.68549034214E+02  0.52856919774E+03  0.85793290579E+03  0.13535157141E+04  0.90103915042E+03 0.  0.
        -24    2    4    4    0    0  0.27778937343E+03  0.43149760702E+02  0.65825012708E+03  0.71968918439E+03  0.75036354466E+02 0.  0.
         24    2    4    4    0    0 -0.34633840764E+03  0.48541943704E+03  0.19968277871E+03  0.63382652971E+03  0.79249827690E+02 0.  0.
         13    1    3    3    0    0  0.53729970487E+02 -0.47661119170E+03 -0.41071994071E+03  0.63145546753E+03  0.00000000000E+00 0.  1.
        -13    1    3    3    0    0  0.14819063727E+02 -0.51958006046E+02 -0.12671865753E+02  0.55496082958E+02  0.00000000000E+00 0. -1.
          4    1    6    6  502    0 -0.31575557464E+03  0.39788148099E+03  0.18102604247E+03  0.53924176756E+03  0.00000000000E+00 0. -1.
          3    1    5    5  503    0  0.20589609438E+03  0.26763906507E+02  0.39420340037E+03  0.44553993001E+03  0.00000000000E+00 0. -1.
         -4    1    5    5    0  503  0.71893279045E+02  0.16385854194E+02  0.26404672671E+03  0.27414925438E+03  0.00000000000E+00 0.  1.
         -3    1    6    6    0  502 -0.30582832999E+02  0.87537956050E+02  0.18656736248E+02  0.94584762151E+02  0.00000000000E+00 0.  1.
<mgrwt>
<rscale>  0 0.19936601E+04</rscale>
<asrwt>0</asrwt>
<pdfrwt beam="1">  1        1 0.19038526E+00 0.19936601E+04</pdfrwt>
<pdfrwt beam="2">  1       -1 0.12353278E+00 0.19936601E+04</pdfrwt>
<totfact> 0.53675360E+00</totfact>
</mgrwt>
</event>
<event>
12    1  0.1496989E-007  0.1236055E+04  0.7818608E-02  0.9081870E-01
          2   -1    0    0  501    0  0.00000000000E+00  0.00000000000E+00  0.92238103763E+03  0.92238103763E+03  0.00000000000E+00 0. -1.
         -2   -1    0    0    0  501 -0.00000000000E+00 -0.00000000000E+00 -0.41410002631E+03  0.41410002631E+03  0.00000000000E+00 0.  1.
         23    2    1    2    0    0  0.15400362711E+03 -0.15287631764E+03 -0.56945572225E+02  0.24620867520E+03  0.10142794433E+03 0.  0.
        254    2    1    2    0    0 -0.15400362711E+03  0.15287631764E+03  0.56522658354E+03  0.10902723887E+04  0.90671081678E+03 0.  0.
        -24    2    4    4    0    0  0.37482702722E+03  0.65360449513E+02  0.21573596242E+03  0.44466986839E+03  0.80137367513E+02 0.  0.
         24    2    4    4    0    0 -0.52883065433E+03  0.87515868126E+02  0.34949062112E+03  0.64560252036E+03  0.85662313249E+02 0.  0.
         11    1    3    3    0    0  0.10800405222E+02 -0.55584777247E+02  0.15234570520E+02  0.58637942951E+02  0.00000000000E+00 0. -1.
        -11    1    3    3    0    0  0.14320322188E+03 -0.97291540392E+02 -0.72180142746E+02  0.18757073225E+03  0.00000000000E+00 0.  1.
          4    1    6    6  502    0 -0.89182072460E+02 -0.82950880260E+01  0.85967688165E+02  0.12414787127E+03  0.00000000000E+00 0. -1.
          3    1    5    5  503    0  0.22224947129E+03  0.44037243704E+02  0.17218254193E+03  0.28457149202E+03  0.00000000000E+00 0. -1.
         -4    1    5    5    0  503  0.15257755593E+03  0.21323205809E+02  0.43553420492E+02  0.16009837637E+03  0.00000000000E+00 0.  1.
         -3    1    6    6    0  502 -0.43964858187E+03  0.95810956152E+02  0.26352293295E+03  0.52145464908E+03  0.00000000000E+00 0.  1.
<mgrwt>
<rscale>  0 0.12360550E+04</rscale>
<asrwt>0</asrwt>
<pdfrwt beam="1">  1        2 0.14190478E+00 0.12360550E+04</pdfrwt>
<pdfrwt beam="2">  1       -2 0.63707696E-01 0.12360550E+04</pdfrwt>
<totfact> 0.63565427E+01</totfact>
</mgrwt>
</event>
<event>
12    1  0.1496989E-007  0.2536615E+04  0.7818608E-02  0.8390056E-01
         -2   -1    0    0    0  501 -0.00000000000E+00  0.00000000000E+00  0.14125052911E+04  0.14125052911E+04  0.00000000000E+00 0.  1.
          2   -1    0    0  501    0  0.00000000000E+00 -0.00000000000E+00 -0.11388299415E+04  0.11388299415E+04  0.00000000000E+00 0. -1.
         23    2    1    2    0    0  0.28912828072E+03  0.10465234618E+04  0.25060430621E+03  0.11179948589E+04  0.91123363656E+02 0.  0.
        254    2    1    2    0    0 -0.28912828072E+03 -0.10465234618E+04  0.23071043426E+02  0.14333403737E+04  0.93548160592E+03 0.  0.
        -24    2    4    4    0    0  0.23333146318E+03 -0.74711953261E+03 -0.15179065265E+03  0.80123802062E+03  0.79440516958E+02 0.  0.
         24    2    4    4    0    0 -0.52245974390E+03 -0.29940392916E+03  0.17486169608E+03  0.63210235305E+03  0.79811497866E+02 0.  0.
         13    1    3    3    0    0  0.67515460062E+02  0.15862435098E+03  0.64891448190E+02  0.18420348020E+03  0.00000000000E+00 0. -1.
        -13    1    3    3    0    0  0.22161282066E+03  0.88789911079E+03  0.18571285802E+03  0.93379137866E+03  0.00000000000E+00 0.  1.
          4    1    6    6  502    0 -0.50340046935E+03 -0.26715895676E+03  0.16649701304E+03  0.59372316451E+03  0.00000000000E+00 0. -1.
          3    1    5    5  503    0  0.20694176745E+03 -0.57053649829E+03 -0.13629034445E+03  0.62202238624E+03  0.00000000000E+00 0. -1.
         -4    1    5    5    0  503  0.26389695728E+02 -0.17658303432E+03 -0.15500308205E+02  0.17921563438E+03  0.00000000000E+00 0.  1.
         -3    1    6    6    0  502 -0.19059274548E+02 -0.32244972400E+02  0.83646830379E+01  0.38379188550E+02  0.00000000000E+00 0.  1.
<mgrwt>
<rscale>  0 0.25366145E+04</rscale>
<asrwt>0</asrwt>
<pdfrwt beam="1">  1        2 0.17520461E+00 0.25366145E+04</pdfrwt>
<pdfrwt beam="2">  1       -2 0.21730851E+00 0.25366145E+04</pdfrwt>
<totfact> 0.18850449E+00</totfact>
</mgrwt>
</event>
<event>
12    1  0.1496989E-007  0.1818228E+04  0.7818608E-02  0.8696665E-01
         -2   -1    0    0    0  501 -0.00000000000E+00  0.00000000000E+00  0.20289163482E+04  0.20289163482E+04  0.00000000000E+00 0.  1.
          2   -1    0    0  501    0  0.00000000000E+00 -0.00000000000E+00 -0.40735467571E+03  0.40735467571E+03  0.00000000000E+00 0. -1.
         23    2    1    2    0    0  0.47568687028E+03 -0.35712211332E+03  0.10960802141E+04  0.12503625471E+04  0.90556397702E+02 0.  0.
        254    2    1    2    0    0 -0.47568687028E+03  0.35712211332E+03  0.52548145845E+03  0.11859084768E+04  0.88115489549E+03 0.  0.
        -24    2    4    4    0    0  0.19996220469E+03 -0.18119677310E+01 -0.54413146605E+02  0.22277394169E+03  0.81726813485E+02 0.  0.
         24    2    4    4    0    0 -0.67564907497E+03  0.35893408105E+03  0.57989460505E+03  0.96313453513E+03  0.77556642084E+02 0.  0.
         13    1    3    3    0    0  0.46174966784E+03 -0.33327596846E+03  0.10713368254E+04  0.12132799431E+04  0.00000000000E+00 0.  1.
        -13    1    3    3    0    0  0.13937202441E+02 -0.23846144858E+02  0.24743388675E+02  0.37082604002E+02  0.00000000000E+00 0. -1.
          2    1    6    6  502    0 -0.61207382794E+03  0.31699733772E+03  0.49219963772E+03  0.84698415944E+03  0.00000000000E+00 0. -1.
          3    1    5    5  503    0  0.93296539163E+02  0.31942821299E+02 -0.57550629071E+00  0.98615005246E+02  0.00000000000E+00 0. -1.
         -4    1    5    5    0  503  0.10666566553E+03 -0.33754789030E+02 -0.53837640314E+02  0.12415893645E+03  0.00000000000E+00 0.  1.
         -1    1    6    6    0  502 -0.63575247036E+02  0.41936743330E+02  0.87694967335E+02  0.11615037569E+03  0.00000000000E+00 0.  1.
<mgrwt>
<rscale>  0 0.18182283E+04</rscale>
<asrwt>0</asrwt>
<pdfrwt beam="1">  1        2 0.62669951E-01 0.18182283E+04</pdfrwt>
<pdfrwt beam="2">  1       -2 0.31214097E+00 0.18182283E+04</pdfrwt>
<totfact> 0.19700464E+00</totfact>
</mgrwt>
</event>
<event>
12    1  0.1496989E-007  0.1536057E+04  0.7818608E-02  0.8860823E-01
         -1   -1    0    0    0  501 -0.00000000000E+00  0.00000000000E+00  0.72894459296E+03  0.72894459296E+03  0.00000000000E+00 0.  1.
          1   -1    0    0  501    0  0.00000000000E+00 -0.00000000000E+00 -0.80920773233E+03  0.80920773233E+03  0.00000000000E+00 0. -1.
         23    2    1    2    0    0 -0.40385279047E+02  0.48321497502E+03  0.29612326135E+02  0.49408935360E+03  0.90109470318E+02 0.  0.
        254    2    1    2    0    0  0.40385279047E+02 -0.48321497502E+03 -0.10987546551E+03  0.10440629717E+04  0.91807798583E+03 0.  0.
        -24    2    4    4    0    0 -0.18429119338E+03  0.19403851378E+03  0.96111615785E+02  0.29710220097E+03  0.86128313250E+02 0.  0.
         24    2    4    4    0    0  0.22467647243E+03 -0.67725348880E+03 -0.20598708129E+03  0.74696077071E+03  0.79799185309E+02 0.  0.
         13    1    3    3    0    0  0.78848702179E+01  0.16443797131E+01 -0.38955289742E+01  0.89470838256E+01  0.00000000000E+00 0. -1.
        -13    1    3    3    0    0 -0.48270149264E+02  0.48157059530E+03  0.33507855109E+02  0.48514226978E+03  0.00000000000E+00 0.  1.
          2    1    6    6  502    0  0.15613214328E+02 -0.82514220612E+02 -0.49248056215E+02  0.97353685630E+02  0.00000000000E+00 0. -1.
          3    1    5    5  503    0 -0.28679519615E+02  0.23506376889E+02  0.49058211634E+02  0.61496119622E+02  0.00000000000E+00 0. -1.
         -4    1    5    5    0  503 -0.15561167377E+03  0.17053213689E+03  0.47053404150E+02  0.23560608135E+03  0.00000000000E+00 0.  1.
         -1    1    6    6    0  502  0.20906325810E+03 -0.59473926818E+03 -0.15673902508E+03  0.64960708508E+03  0.00000000000E+00 0.  1.
<mgrwt>
<rscale>  0 0.15360568E+04</rscale>
<asrwt>0</asrwt>
<pdfrwt beam="1">  1        1 0.12449350E+00 0.15360568E+04</pdfrwt>
<pdfrwt beam="2">  1       -1 0.11214532E+00 0.15360568E+04</pdfrwt>
<totfact> 0.15265810E+01</totfact>
</mgrwt>
</event>
<event>
12    1  0.1496989E-007  0.1881210E+04  0.7818608E-02  0.8664266E-01
         -1   -1    0    0    0  501 -0.00000000000E+00  0.00000000000E+00  0.39237259565E+03  0.39237259565E+03  0.00000000000E+00 0.  1.
          1   -1    0    0  501    0  0.00000000000E+00 -0.00000000000E+00 -0.22548407351E+04  0.22548407351E+04  0.00000000000E+00 0. -1.
         23    2    1    2    0    0  0.20671145279E+03  0.84471191350E+02 -0.16805293326E+04  0.16977268962E+04  0.90734609203E+02 0.  0.
        254    2    1    2    0    0 -0.20671145279E+03 -0.84471191350E+02 -0.18193880680E+03  0.94948643455E+03  0.90474181571E+03 0.  0.
        -24    2    4    4    0    0 -0.21019903351E+03 -0.45360426001E+02  0.34546767489E+03  0.41473953539E+03  0.80123441558E+02 0.  0.
         24    2    4    4    0    0  0.34875807231E+01 -0.39110765349E+02 -0.52740648169E+03  0.53474689916E+03  0.79087508805E+02 0.  0.
         13    1    3    3    0    0  0.73004455113E+02  0.19737645232E+02 -0.90106003085E+03  0.90422807095E+03  0.00000000000E+00 0.  1.
        -13    1    3    3    0    0  0.13370699768E+03  0.64733546118E+02 -0.77946930177E+03  0.79349882522E+03  0.00000000000E+00 0. -1.
          4    1    6    6  502    0  0.28598242495E+01 -0.16399133869E+02 -0.49437887773E+03  0.49465905928E+03  0.00000000000E+00 0. -1.
          1    1    5    5  503    0 -0.14845780876E+03 -0.50220284629E+02  0.29803806246E+03  0.33673206655E+03  0.00000000000E+00 0. -1.
         -2    1    5    5    0  503 -0.61741224748E+02  0.48598586277E+01  0.47429612431E+02  0.78007468839E+02  0.00000000000E+00 0.  1.
         -3    1    6    6    0  502  0.62775647360E+00 -0.22711631480E+02 -0.33027603957E+02  0.40087839874E+02  0.00000000000E+00 0.  1.
<mgrwt>
<rscale>  0 0.18812099E+04</rscale>
<asrwt>0</asrwt>
<pdfrwt beam="1">  1        1 0.34689858E+00 0.18812099E+04</pdfrwt>
<pdfrwt beam="2">  1       -1 0.60365015E-01 0.18812099E+04</pdfrwt>
<totfact> 0.52133963E+00</totfact>
</mgrwt>
</event>
<event>
12    1  0.1496989E-007  0.1662606E+04  0.7818608E-02  0.8782984E-01
         -1   -1    0    0    0  501 -0.00000000000E+00  0.00000000000E+00  0.99369831173E+03  0.99369831173E+03  0.00000000000E+00 0.  1.
          1   -1    0    0  501    0  0.00000000000E+00 -0.00000000000E+00 -0.69544737710E+03  0.69544737710E+03  0.00000000000E+00 0. -1.
         23    2    1    2    0    0 -0.36590664969E+03 -0.40758493305E+03  0.29617245060E+03  0.62974026680E+03  0.94029405979E+02 0.  0.
        254    2    1    2    0    0  0.36590664969E+03  0.40758493305E+03  0.20784840306E+01  0.10594054220E+04  0.90681992380E+03 0.  0.
        -24    2    4    4    0    0  0.28963983395E+02 -0.26256888161E+03  0.11098301533E+03  0.29749808298E+03  0.80040925504E+02 0.  0.
         24    2    4    4    0    0  0.33694266630E+03  0.67015381467E+03 -0.10890453130E+03  0.76190733906E+03  0.77499036738E+02 0.  0.
         13    1    3    3    0    0 -0.32314206483E+03 -0.38747364337E+03  0.29037337166E+03  0.58212826193E+03  0.00000000000E+00 0.  1.
        -13    1    3    3    0    0 -0.42764584861E+02 -0.20111289689E+02  0.57990789471E+01  0.47612004872E+02  0.00000000000E+00 0. -1.
          4    1    6    6  502    0  0.25716673895E+03  0.55544798543E+03 -0.65427534599E+02  0.61557936810E+03  0.00000000000E+00 0. -1.
          3    1    5    5  503    0  0.36487676402E+02 -0.25330867804E+03  0.11988561597E+03  0.28261139010E+03  0.00000000000E+00 0. -1.
         -4    1    5    5    0  503 -0.75236930064E+01 -0.92602035741E+01 -0.89026006333E+01  0.14886692874E+02  0.00000000000E+00 0.  1.
         -3    1    6    6    0  502  0.79775927348E+02  0.11470582923E+03 -0.43476996704E+02  0.14632797096E+03  0.00000000000E+00 0.  1.
<mgrwt>
<rscale>  0 0.16626062E+04</rscale>
<asrwt>0</asrwt>
<pdfrwt beam="1">  1        1 0.10699190E+00 0.16626062E+04</pdfrwt>
<pdfrwt beam="2">  1       -1 0.15287666E+00 0.16626062E+04</pdfrwt>
<totfact> 0.87046991E+00</totfact>
</mgrwt>
</event>
<event>
12    1  0.1496989E-007  0.2243613E+04  0.7818608E-02  0.8500492E-01
         -2   -1    0    0    0  501 -0.00000000000E+00  0.00000000000E+00  0.92316689739E+03  0.92316689739E+03  0.00000000000E+00 0.  1.
          2   -1    0    0  501    0  0.00000000000E+00 -0.00000000000E+00 -0.13631874657E+04  0.13631874657E+04  0.00000000000E+00 0. -1.
         23    2    1    2    0    0 -0.15176410736E+02 -0.74338209207E+03  0.39908710516E+03  0.84891142275E+03  0.92373307401E+02 0.  0.
        254    2    1    2    0    0  0.15176410736E+02  0.74338209207E+03 -0.83910767344E+03  0.14374429403E+04  0.89960728140E+03 0.  0.
        -24    2    4    4    0    0 -0.28988117274E+03 -0.48121659657E+02 -0.30960157277E+03  0.43430893503E+03  0.80151910418E+02 0.  0.
         24    2    4    4    0    0  0.30505758348E+03  0.79150375173E+03 -0.52950610067E+03  0.10031340053E+04  0.79767184060E+02 0.  0.
         11    1    3    3    0    0  0.17339821927E+02 -0.25534329654E+03  0.95133180811E+02  0.27304063911E+03  0.00000000000E+00 0. -1.
        -11    1    3    3    0    0 -0.32516232663E+02 -0.48803879553E+03  0.30395392435E+03  0.57587078364E+03  0.00000000000E+00 0.  1.
          2    1    6    6  502    0  0.30674640446E+03  0.79110026706E+03 -0.53091198283E+03  0.10008998565E+04  0.00000000000E+00 0. -1.
          3    1    5    5  503    0 -0.18957489669E+03 -0.50372461401E+02 -0.24942387062E+03  0.31731418745E+03  0.00000000000E+00 0. -1.
         -4    1    5    5    0  503 -0.10030627606E+03  0.22508017440E+01 -0.60177702152E+02  0.11699474758E+03  0.00000000000E+00 0.  1.
         -1    1    6    6    0  502 -0.16888209803E+01  0.40348467115E+00  0.14058821619E+01  0.22341487946E+01  0.00000000000E+00 0.  1.
<mgrwt>
<rscale>  0 0.22436128E+04</rscale>
<asrwt>0</asrwt>
<pdfrwt beam="1">  1        2 0.20972115E+00 0.22436128E+04</pdfrwt>
<pdfrwt beam="2">  1       -2 0.14202568E+00 0.22436128E+04</pdfrwt>
<totfact> 0.47881264E+00</totfact>
</mgrwt>
</event>
<event>
12    1  0.1496989E-007  0.1611214E+04  0.7818608E-02  0.8813688E-01
          2   -1    0    0  501    0  0.00000000000E+00  0.00000000000E+00  0.75404997040E+03  0.75404997040E+03  0.00000000000E+00 0. -1.
         -2   -1    0    0    0  501 -0.00000000000E+00 -0.00000000000E+00 -0.86068922995E+03  0.86068922995E+03  0.00000000000E+00 0.  1.
         23    2    1    2    0    0 -0.45834638982E+03  0.28503949568E+02  0.25979645484E+03  0.53530987806E+03  0.90380193653E+02 0.  0.
        254    2    1    2    0    0  0.45834638982E+03 -0.28503949568E+02 -0.36643571438E+03  0.10794293223E+04  0.90553776334E+03 0.  0.
        -24    2    4    4    0    0  0.29876476633E+03  0.42978130008E+02  0.27106176677E+03  0.41367848330E+03  0.80919100860E+02 0.  0.
         24    2    4    4    0    0  0.15958162348E+03 -0.71482079577E+02 -0.63749748115E+03  0.66575083898E+03  0.79026317608E+02 0.  0.
         13    1    3    3    0    0 -0.10019113544E+03  0.26460417923E+01  0.16532373745E+02  0.10158043385E+03  0.00000000000E+00 0.  1.
        -13    1    3    3    0    0 -0.35815525437E+03  0.25857907776E+02  0.24326408109E+03  0.43372944421E+03  0.00000000000E+00 0. -1.
          4    1    6    6  502    0  0.15460660191E+03 -0.69850657626E+02 -0.49704790347E+03  0.52520370721E+03  0.00000000000E+00 0. -1.
          1    1    5    5  503    0  0.24978557487E+03  0.53156004409E+02  0.25560325061E+03  0.36131899472E+03  0.00000000000E+00 0. -1.
         -2    1    5    5    0  503  0.48979191460E+02 -0.10177874401E+02  0.15458516156E+02  0.52359488587E+02  0.00000000000E+00 0.  1.
         -3    1    6    6    0  502  0.49750215692E+01 -0.16314219504E+01 -0.14044957768E+03  0.14054713177E+03  0.00000000000E+00 0.  1.
<mgrwt>
<rscale>  0 0.16112141E+04</rscale>
<asrwt>0</asrwt>
<pdfrwt beam="1">  1        2 0.11600769E+00 0.16112141E+04</pdfrwt>
<pdfrwt beam="2">  1       -2 0.13241373E+00 0.16112141E+04</pdfrwt>
<totfact> 0.14783729E+01</totfact>
</mgrwt>
</event>
<event>
12    1  0.1496989E-007  0.2318208E+04  0.7818608E-02  0.8470776E-01
         -1   -1    0    0    0  501 -0.00000000000E+00  0.00000000000E+00  0.53227282857E+03  0.53227282857E+03  0.00000000000E+00 0. -1.
          1   -1    0    0  501    0  0.00000000000E+00 -0.00000000000E+00 -0.25241231453E+04  0.25241231453E+04  0.00000000000E+00 0.  1.
         23    2    1    2    0    0  0.61637030946E+03  0.45981447806E+03 -0.16725569325E+04  0.18430982409E+04  0.90679218996E+02 0.  0.
        254    2    1    2    0    0 -0.61637030946E+03 -0.45981447806E+03 -0.31929338424E+03  0.12132977329E+04  0.88249725828E+03 0.  0.
        -24    2    4    4    0    0 -0.75470898354E+03 -0.10775320751E+03 -0.11430000667E+03  0.77516599713E+03  0.81372157540E+02 0.  0.
         24    2    4    4    0    0  0.13833867407E+03 -0.35206127055E+03 -0.20499337757E+03  0.43813173579E+03  0.82779261236E+02 0.  0.
         13    1    3    3    0    0  0.13861980821E+03  0.13256442283E+03 -0.34485702762E+03  0.39460758600E+03  0.00000000000E+00 0. -1.
        -13    1    3    3    0    0  0.47775050125E+03  0.32725005522E+03 -0.13276999048E+04  0.14484906549E+04  0.00000000000E+00 0.  1.
          2    1    6    6  502    0  0.27665104143E+02 -0.14655669050E+02 -0.24770095626E+02  0.39921225681E+02  0.00000000000E+00 0. -1.
          1    1    5    5  503    0 -0.13507147211E+03  0.47022298015E+01 -0.40536104464E+02  0.14110134410E+03  0.00000000000E+00 0. -1.
         -2    1    5    5    0  503 -0.61963751143E+03 -0.11245543731E+03 -0.73763902207E+02  0.63406465303E+03  0.00000000000E+00 0.  1.
         -1    1    6    6    0  502  0.11067356993E+03 -0.33740560150E+03 -0.18022328194E+03  0.39821051011E+03  0.00000000000E+00 0.  1.
<mgrwt>
<rscale>  0 0.23182081E+04</rscale>
<asrwt>0</asrwt>
<pdfrwt beam="1">  1        1 0.38832663E+00 0.23182081E+04</pdfrwt>
<pdfrwt beam="2">  1       -1 0.81888130E-01 0.23182081E+04</pdfrwt>
<totfact> 0.17453618E+00</totfact>
</mgrwt>
</event>
<event>
12    1  0.1496989E-007  0.4924762E+04  0.7818608E-02  0.7840219E-01
         -2   -1    0    0    0  501 -0.00000000000E+00  0.00000000000E+00  0.18256970091E+04  0.18256970091E+04  0.00000000000E+00 0. -1.
          2   -1    0    0  501    0  0.00000000000E+00 -0.00000000000E+00 -0.33210993272E+04  0.33210993272E+04  0.00000000000E+00 0.  1.
         23    2    1    2    0    0  0.16182104676E+04 -0.13871289021E+04  0.38050372492E+03  0.21670218750E+04  0.92027242187E+02 0.  0.
        254    2    1    2    0    0 -0.16182104676E+04  0.13871289021E+04 -0.18759060430E+04  0.29797744614E+04  0.90404681845E+03 0.  0.
        -24    2    4    4    0    0 -0.81147323850E+03  0.41059274469E+03 -0.31006402559E+03  0.96414593063E+03  0.79765009830E+02 0.  0.
         24    2    4    4    0    0 -0.80673722913E+03  0.97653615740E+03 -0.15658420174E+04  0.20156285307E+04  0.80307701539E+02 0.  0.
         11    1    3    3    0    0  0.33022384906E+03 -0.24570607557E+03  0.96557266074E+02  0.42277957814E+03  0.00000000000E+00 0.  1.
        -11    1    3    3    0    0  0.12879866186E+04 -0.11414228265E+04  0.28394645885E+03  0.17442422968E+04  0.00000000000E+00 0. -1.
          2    1    6    6  502    0 -0.17731987608E+03  0.16929818732E+03 -0.28219365409E+03  0.37381475773E+03  0.00000000000E+00 0. -1.
          1    1    5    5  503    0 -0.25595308062E+01  0.96287922865E+01 -0.51133738782E+01  0.11198724537E+02  0.00000000000E+00 0. -1.
         -2    1    5    5    0  503 -0.80891370769E+03  0.40096395240E+03 -0.30495065171E+03  0.95294720609E+03  0.00000000000E+00 0.  1.
         -1    1    6    6    0  502 -0.62941735305E+03  0.80723797008E+03 -0.12836483633E+04  0.16418137730E+04  0.00000000000E+00 0.  1.
<mgrwt>
<rscale>  0 0.49247624E+04</rscale>
<asrwt>0</asrwt>
<pdfrwt beam="1">  1        2 0.51093835E+00 0.49247624E+04</pdfrwt>
<pdfrwt beam="2">  1       -2 0.28087647E+00 0.49247624E+04</pdfrwt>
<totfact> 0.32804283E-02</totfact>
</mgrwt>
</event>
<event>
12    1  0.1496989E-007  0.2194376E+04  0.7818608E-02  0.8520773E-01
         -1   -1    0    0    0  501 -0.00000000000E+00  0.00000000000E+00  0.36514763312E+03  0.36514763312E+03  0.00000000000E+00 0.  1.
          1   -1    0    0  501    0  0.00000000000E+00 -0.00000000000E+00 -0.32968082397E+04  0.32968082397E+04  0.00000000000E+00 0. -1.
         23    2    1    2    0    0  0.60905887334E+03 -0.61211858051E+03 -0.75884934440E+03  0.11531253677E+04  0.90575484274E+02 0.  0.
        254    2    1    2    0    0 -0.60905887334E+03  0.61211858051E+03 -0.21728112622E+04  0.25088305051E+04  0.90965919687E+03 0.  0.
        -24    2    4    4    0    0 -0.42755311365E+02  0.60231344116E+03 -0.69567681446E+03  0.92503727067E+03  0.84369567433E+02 0.  0.
         24    2    4    4    0    0 -0.56630356197E+03  0.98051393562E+01 -0.14771344477E+04  0.15837932344E+04  0.75358925880E+02 0.  0.
         11    1    3    3    0    0  0.60058555312E+03 -0.59249735705E+03 -0.72152345720E+03  0.11101136086E+04  0.00000000000E+00 0.  1.
        -11    1    3    3    0    0  0.84733202200E+01 -0.19621223468E+02 -0.37325887192E+02  0.43011759097E+02  0.00000000000E+00 0. -1.
          2    1    6    6  502    0 -0.37818257726E+02  0.28183237463E+01 -0.56690661706E+02  0.68205532700E+02  0.00000000000E+00 0. -1.
          3    1    5    5  503    0  0.24461666111E+02  0.22671814829E+03 -0.25222505195E+03  0.34002495306E+03  0.00000000000E+00 0. -1.
         -4    1    5    5    0  503 -0.67216977476E+02  0.37559529287E+03 -0.44345176250E+03  0.58501231761E+03  0.00000000000E+00 0.  1.
         -1    1    6    6    0  502 -0.52848530425E+03  0.69868156099E+01 -0.14204437860E+04  0.15155877017E+04  0.00000000000E+00 0.  1.
<mgrwt>
<rscale>  0 0.21943762E+04</rscale>
<asrwt>0</asrwt>
<pdfrwt beam="1">  1        1 0.50720126E+00 0.21943762E+04</pdfrwt>
<pdfrwt beam="2">  1       -1 0.56176560E-01 0.21943762E+04</pdfrwt>
<totfact> 0.10522894E+00</totfact>
</mgrwt>
</event>
<event>
12    1  0.1496989E-007  0.1480183E+04  0.7818608E-02  0.8897739E-01
          2   -1    0    0  501    0  0.00000000000E+00  0.00000000000E+00  0.64633871054E+03  0.64633871054E+03  0.00000000000E+00 0.  1.
         -2   -1    0    0    0  501 -0.00000000000E+00 -0.00000000000E+00 -0.84744306710E+03  0.84744306710E+03  0.00000000000E+00 0. -1.
         23    2    1    2    0    0  0.33195165822E+03  0.14704877674E+03  0.21603066987E+03  0.43235259465E+03  0.91892707203E+02 0.  0.
        254    2    1    2    0    0 -0.33195165822E+03 -0.14704877674E+03 -0.41713502643E+03  0.10614291830E+04  0.90598842934E+03 0.  0.
        -24    2    4    4    0    0 -0.94211119279E+02 -0.46056524462E+03 -0.45369265388E+03  0.65823973062E+03  0.80289720559E+02 0.  0.
         24    2    4    4    0    0 -0.23774053894E+03  0.31351646788E+03  0.36557627448E+02  0.40318945237E+03  0.80075807158E+02 0.  0.
         13    1    3    3    0    0  0.29093826511E+03  0.91573729080E+02  0.18477715281E+03  0.35661382217E+03  0.00000000000E+00 0.  1.
        -13    1    3    3    0    0  0.41013393107E+02  0.55475047660E+02  0.31253517061E+02  0.75738772473E+02  0.00000000000E+00 0. -1.
          4    1    6    6  502    0 -0.21188854279E+03  0.22834834156E+03  0.16479094980E+02  0.31194756006E+03  0.00000000000E+00 0. -1.
          1    1    5    5  503    0 -0.91461519226E+02 -0.40957012170E+03 -0.36637804240E+03  0.55708685503E+03  0.00000000000E+00 0. -1.
         -2    1    5    5    0  503 -0.27496000528E+01 -0.50995122918E+02 -0.87314611481E+02  0.10115287559E+03  0.00000000000E+00 0.  1.
         -3    1    6    6    0  502 -0.25851996152E+02  0.85168126324E+02  0.20078532468E+02  0.91241892312E+02  0.00000000000E+00 0.  1.
<mgrwt>
<rscale>  0 0.14801828E+04</rscale>
<asrwt>0</asrwt>
<pdfrwt beam="1">  1        2 0.99436726E-01 0.14801828E+04</pdfrwt>
<pdfrwt beam="2">  1       -2 0.13037586E+00 0.14801828E+04</pdfrwt>
<totfact> 0.18882033E+01</totfact>
</mgrwt>
</event>
<event>
12    1  0.1496989E-007  0.1315856E+04  0.7818608E-02  0.9017085E-01
          1   -1    0    0  501    0  0.00000000000E+00  0.00000000000E+00  0.84262144428E+03  0.84262144428E+03  0.00000000000E+00 0. -1.
         -1   -1    0    0    0  501 -0.00000000000E+00 -0.00000000000E+00 -0.51371750159E+03  0.51371750159E+03  0.00000000000E+00 0.  1.
         23    2    1    2    0    0 -0.21490767880E+03 -0.23795066143E+03 -0.12037126525E+02  0.33333302132E+03  0.90333731261E+02 0.  0.
        254    2    1    2    0    0  0.21490767880E+03  0.23795066143E+03  0.34094106921E+03  0.10230059246E+04  0.90966723659E+03 0.  0.
        -24    2    4    4    0    0  0.42916618189E+03  0.59842374992E+02  0.52165119594E+03  0.68280675545E+03  0.79626462510E+02 0.  0.
         24    2    4    4    0    0 -0.21425850309E+03  0.17810828644E+03 -0.18071012673E+03  0.34019916911E+03  0.73824500804E+02 0.  0.
         13    1    3    3    0    0 -0.88443463086E+02 -0.44606428582E+02 -0.24247023265E+02  0.10197988905E+03  0.00000000000E+00 0. -1.
        -13    1    3    3    0    0 -0.12646421571E+03 -0.19334423285E+03  0.12209896740E+02  0.23135313227E+03  0.00000000000E+00 0.  1.
          2    1    6    6  502    0 -0.13562482707E+03  0.88129259952E+02 -0.14012108540E+03  0.21399714659E+03  0.00000000000E+00 0. -1.
          1    1    5    5  503    0  0.33314104177E+03  0.78160278751E+02  0.39014222459E+03  0.51894406086E+03  0.00000000000E+00 0. -1.
         -2    1    5    5    0  503  0.96025140114E+02 -0.18317903759E+02  0.13150897135E+03  0.16386269459E+03  0.00000000000E+00 0.  1.
         -1    1    6    6    0  502 -0.78633676021E+02  0.89979026484E+02 -0.40589041332E+02  0.12620202252E+03  0.00000000000E+00 0.  1.
<mgrwt>
<rscale>  0 0.13158562E+04</rscale>
<asrwt>0</asrwt>
<pdfrwt beam="1">  1        1 0.12963407E+00 0.13158562E+04</pdfrwt>
<pdfrwt beam="2">  1       -1 0.79033462E-01 0.13158562E+04</pdfrwt>
<totfact> 0.31930656E+01</totfact>
</mgrwt>
</event>
<event>
12    1  0.1496989E-007  0.1688922E+04  0.7818608E-02  0.8767708E-01
         -1   -1    0    0    0  501 -0.00000000000E+00  0.00000000000E+00  0.18248821079E+04  0.18248821079E+04  0.00000000000E+00 0.  1.
          1   -1    0    0  501    0  0.00000000000E+00 -0.00000000000E+00 -0.39077301911E+03  0.39077301911E+03  0.00000000000E+00 0. -1.
         23    2    1    2    0    0 -0.33790194971E+03  0.23554333373E+03  0.10707511828E+04  0.11506028995E+04  0.87866643411E+02 0.  0.
        254    2    1    2    0    0  0.33790194971E+03 -0.23554333373E+03  0.36335790595E+03  0.10650522275E+04  0.91249596705E+03 0.  0.
        -24    2    4    4    0    0  0.51814724415E+03 -0.17656643719E+03  0.55500874006E+03  0.78360190907E+03  0.79655363832E+02 0.  0.
         24    2    4    4    0    0 -0.18024529443E+03 -0.58976896540E+02 -0.19165083412E+03  0.28145031847E+03  0.80731648426E+02 0.  0.
         13    1    3    3    0    0  0.98824976460E+00 -0.28659612911E+01  0.33749261185E+02  0.33885144271E+02  0.00000000000E+00 0. -1.
        -13    1    3    3    0    0 -0.33889019948E+03  0.23840929503E+03  0.10370019217E+04  0.11167177552E+04  0.00000000000E+00 0.  1.
          4    1    6    6  502    0 -0.65318495044E+02  0.33807441197E+01 -0.10789300085E+03  0.12616986509E+03  0.00000000000E+00 0. -1.
          3    1    5    5  503    0  0.13278119928E+03 -0.67953211470E+02  0.19223517258E+03  0.24331635253E+03  0.00000000000E+00 0. -1.
         -4    1    5    5    0  503  0.38536604487E+03 -0.10861322572E+03  0.36277356748E+03  0.54028555654E+03  0.00000000000E+00 0.  1.
         -3    1    6    6    0  502 -0.11492679939E+03 -0.62357640660E+02 -0.83757833267E+02  0.15528045337E+03  0.00000000000E+00 0.  1.
<mgrwt>
<rscale>  0 0.16889224E+04</rscale>
<asrwt>0</asrwt>
<pdfrwt beam="1">  1        1 0.60118927E-01 0.16889224E+04</pdfrwt>
<pdfrwt beam="2">  1       -1 0.28075109E+00 0.16889224E+04</pdfrwt>
<totfact> 0.25971153E+00</totfact>
</mgrwt>
</event>
<event>
12    1  0.1496989E-007  0.2464143E+04  0.7818608E-02  0.8415872E-01
          2   -1    0    0  501    0  0.00000000000E+00  0.00000000000E+00  0.19106158177E+04  0.19106158177E+04  0.00000000000E+00 0. -1.
         -2   -1    0    0    0  501 -0.00000000000E+00 -0.00000000000E+00 -0.79450811087E+03  0.79450811087E+03  0.00000000000E+00 0.  1.
         23    2    1    2    0    0  0.59587309034E+03 -0.64730098765E+03 -0.17394336159E+03  0.90135439759E+03  0.90111867152E+02 0.  0.
        254    2    1    2    0    0 -0.59587309034E+03  0.64730098765E+03  0.12900510684E+04  0.18037695309E+04  0.90293380340E+03 0.  0.
        -24    2    4    4    0    0 -0.13241330729E+03 -0.55767012273E+02 -0.90410351695E+02  0.18486716475E+03  0.73202413238E+02 0.  0.
         24    2    4    4    0    0 -0.46345978305E+03  0.70306799993E+03  0.13804614201E+04  0.16189023662E+04  0.77920189556E+02 0.  0.
         13    1    3    3    0    0  0.74041249447E+02 -0.49064440209E+02 -0.34838842114E+02  0.95410538373E+02  0.00000000000E+00 0. -1.
        -13    1    3    3    0    0  0.52183184089E+03 -0.59823654745E+03 -0.13910451947E+03  0.80594385921E+03  0.00000000000E+00 0.  1.
          2    1    6    6  502    0 -0.46505886302E+03  0.68770660036E+03  0.13530572669E+04  0.15874457728E+04  0.00000000000E+00 0. -1.
          3    1    5    5  503    0 -0.13855222912E+03 -0.39876229163E+02 -0.82091232912E+02  0.16590902437E+03  0.00000000000E+00 0. -1.
         -4    1    5    5    0  503  0.61389218363E+01 -0.15890783110E+02 -0.83191187825E+01  0.18958140375E+02  0.00000000000E+00 0.  1.
         -1    1    6    6    0  502  0.15990799661E+01  0.15361399565E+02  0.27404153212E+02  0.31456593372E+02  0.00000000000E+00 0.  1.
<mgrwt>
<rscale>  0 0.24641427E+04</rscale>
<asrwt>0</asrwt>
<pdfrwt beam="1">  1        2 0.29394089E+00 0.24641427E+04</pdfrwt>
<pdfrwt beam="2">  1       -2 0.12223202E+00 0.24641427E+04</pdfrwt>
<totfact> 0.33985119E+00</totfact>
</mgrwt>
</event>
<event>
12    1  0.1496989E-007  0.2329363E+04  0.7818608E-02  0.8466433E-01
         -1   -1    0    0    0  501 -0.00000000000E+00  0.00000000000E+00  0.51663192905E+03  0.51663192905E+03  0.00000000000E+00 0.  1.
          1   -1    0    0  501    0  0.00000000000E+00 -0.00000000000E+00 -0.26256270295E+04  0.26256270295E+04  0.00000000000E+00 0. -1.
         23    2    1    2    0    0  0.39196560691E+03 -0.12342734102E+03  0.31713007454E+03  0.52724833586E+03  0.92455275535E+02 0.  0.
        254    2    1    2    0    0 -0.39196560691E+03  0.12342734102E+03 -0.24261251750E+04  0.26150106227E+04  0.88505697364E+03 0.  0.
        -24    2    4    4    0    0  0.10138800031E+03 -0.11647317557E+03 -0.16604600096E+04  0.16695976011E+04  0.81136790952E+02 0.  0.
         24    2    4    4    0    0 -0.49335360722E+03  0.23990051659E+03 -0.76566516543E+03  0.94541302164E+03  0.81317872096E+02 0.  0.
         13    1    3    3    0    0 -0.26525352187E+01  0.39869319288E+01 -0.61913134814E+00  0.48285497738E+01  0.00000000000E+00 0. -1.
        -13    1    3    3    0    0  0.39461814213E+03 -0.12741427295E+03  0.31774920589E+03  0.52241978609E+03  0.00000000000E+00 0.  1.
          2    1    6    6  502    0 -0.91552839692E+02  0.80742365926E+02 -0.15522193909E+03  0.19747177643E+03  0.00000000000E+00 0. -1.
          3    1    5    5  503    0  0.70592196173E+01 -0.67546622823E+02 -0.69253962999E+03  0.69586170892E+03  0.00000000000E+00 0. -1.
         -4    1    5    5    0  503  0.94328780689E+02 -0.48926552749E+02 -0.96792037962E+03  0.97373589218E+03  0.00000000000E+00 0.  1.
         -3    1    6    6    0  502 -0.40180076753E+03  0.15915815067E+03 -0.61044322634E+03  0.74794124522E+03  0.00000000000E+00 0.  1.
<mgrwt>
<rscale>  0 0.23293628E+04</rscale>
<asrwt>0</asrwt>
<pdfrwt beam="1">  1        1 0.40394262E+00 0.23293628E+04</pdfrwt>
<pdfrwt beam="2">  1       -1 0.79481835E-01 0.23293628E+04</pdfrwt>
<totfact> 0.15786655E+00</totfact>
</mgrwt>
</event>
<event>
12    1  0.1496989E-007  0.1635243E+04  0.7818608E-02  0.8799184E-01
          1   -1    0    0  501    0  0.00000000000E+00  0.00000000000E+00  0.17734129284E+04  0.17734129284E+04  0.00000000000E+00 0. -1.
         -1   -1    0    0    0  501 -0.00000000000E+00 -0.00000000000E+00 -0.37695971258E+03  0.37695971258E+03  0.00000000000E+00 0.  1.
         23    2    1    2    0    0 -0.42005272612E+03 -0.11760836360E+03  0.13042585329E+01  0.44619491648E+03  0.93873225662E+02 0.  0.
        254    2    1    2    0    0  0.42005272612E+03  0.11760836360E+03  0.13951489573E+04  0.17041777245E+04  0.87607367483E+03 0.  0.
        -24    2    4    4    0    0 -0.49354795476E+02 -0.30556297139E+03  0.64806030309E+03  0.72218445787E+03  0.75918439355E+02 0.  0.
         24    2    4    4    0    0  0.46940752160E+03  0.42317133499E+03  0.74708865420E+03  0.98199326662E+03  0.82170057576E+02 0.  0.
         11    1    3    3    0    0 -0.82262552335E+02  0.84329935956E+01 -0.19825216649E+02  0.85036945575E+02  0.00000000000E+00 0. -1.
        -11    1    3    3    0    0 -0.33779017378E+03 -0.12604135719E+03  0.21129475182E+02  0.36115797091E+03  0.00000000000E+00 0.  1.
          2    1    6    6  502    0  0.11293955076E+03  0.13051161397E+03  0.15945614364E+03  0.23497847828E+03  0.00000000000E+00 0. -1.
          3    1    5    5  503    0  0.25957783832E+01 -0.47082382983E+02  0.16797841832E+03  0.17447130960E+03  0.00000000000E+00 0. -1.
         -4    1    5    5    0  503 -0.51950573859E+02 -0.25848058841E+03  0.48008188477E+03  0.54771314828E+03  0.00000000000E+00 0.  1.
         -1    1    6    6    0  502  0.35646797083E+03  0.29265972102E+03  0.58763251056E+03  0.74701478834E+03  0.00000000000E+00 0.  1.
<mgrwt>
<rscale>  0 0.16352434E+04</rscale>
<asrwt>0</asrwt>
<pdfrwt beam="1">  1        1 0.27283275E+00 0.16352434E+04</pdfrwt>
<pdfrwt beam="2">  1       -1 0.57993803E-01 0.16352434E+04</pdfrwt>
<totfact> 0.12241169E+01</totfact>
</mgrwt>
</event>
<event>
12    1  0.1496989E-007  0.1693909E+04  0.7818608E-02  0.8764846E-01
          2   -1    0    0  501    0  0.00000000000E+00  0.00000000000E+00  0.16322862700E+04  0.16322862700E+04  0.00000000000E+00 0. -1.
         -2   -1    0    0    0  501 -0.00000000000E+00 -0.00000000000E+00 -0.43946468627E+03  0.43946468627E+03  0.00000000000E+00 0.  1.
         23    2    1    2    0    0 -0.49202055874E+03 -0.35990833052E+03  0.47297479835E+03  0.77711192376E+03  0.92625836393E+02 0.  0.
        254    2    1    2    0    0  0.49202055874E+03  0.35990833052E+03  0.71984678533E+03  0.12946390325E+04  0.88673140995E+03 0.  0.
        -24    2    4    4    0    0 -0.20314452142E+02  0.52600217744E+03  0.35617764915E+03  0.63992466561E+03  0.74498941333E+02 0.  0.
         24    2    4    4    0    0  0.51233501089E+03 -0.16609384691E+03  0.36366913618E+03  0.65471436685E+03  0.79506805933E+02 0.  0.
         11    1    3    3    0    0 -0.44110464833E+03 -0.28509400873E+03  0.38818248391E+03  0.65309841939E+03  0.00000000000E+00 0. -1.
        -11    1    3    3    0    0 -0.50915910417E+02 -0.74814321793E+02  0.84792314438E+02  0.12401350437E+03  0.00000000000E+00 0.  1.
          4    1    6    6  502    0  0.60605443366E+02  0.44032970687E+01  0.29713975666E+02  0.67641179325E+02  0.00000000000E+00 0. -1.
          3    1    5    5  503    0 -0.22362959232E+02  0.11072303287E+03  0.10716782660E+03  0.15570688813E+03  0.00000000000E+00 0. -1.
         -4    1    5    5    0  503  0.20485070906E+01  0.41527914457E+03  0.24900982256E+03  0.48421777748E+03  0.00000000000E+00 0.  1.
         -3    1    6    6    0  502  0.45172956752E+03 -0.17049714398E+03  0.33395516052E+03  0.58707318753E+03  0.00000000000E+00 0.  1.
<mgrwt>
<rscale>  0 0.16939093E+04</rscale>
<asrwt>0</asrwt>
<pdfrwt beam="1">  1        2 0.25112096E+00 0.16939093E+04</pdfrwt>
<pdfrwt beam="2">  1       -2 0.67609953E-01 0.16939093E+04</pdfrwt>
<totfact> 0.20418004E+01</totfact>
</mgrwt>
</event>
<event>
12    1  0.1496989E-007  0.1660309E+04  0.7818608E-02  0.8784331E-01
         -1   -1    0    0    0  501 -0.00000000000E+00  0.00000000000E+00  0.57112257719E+03  0.57112257719E+03  0.00000000000E+00 0.  1.
          1   -1    0    0  501    0  0.00000000000E+00 -0.00000000000E+00 -0.12066701559E+04  0.12066701559E+04  0.00000000000E+00 0. -1.
         23    2    1    2    0    0  0.18000977047E+03 -0.13395951702E+03 -0.67217303314E+03  0.71446946806E+03  0.91111824984E+02 0.  0.
        254    2    1    2    0    0 -0.18000977047E+03  0.13395951702E+03  0.36625454395E+02  0.10633232651E+04  0.10387330131E+04 0.  0.
        -24    2    4    4    0    0 -0.19003603570E+03 -0.58931527612E+02  0.50611448463E+03  0.54951558769E+03  0.78923315700E+02 0.  0.
         24    2    4    4    0    0  0.10026265230E+02  0.19289104464E+03 -0.46948903023E+03  0.51380767736E+03  0.79189006252E+02 0.  0.
         11    1    3    3    0    0  0.18378727875E+03 -0.13622323802E+03 -0.59953927786E+03  0.64170232983E+03  0.00000000000E+00 0. -1.
        -11    1    3    3    0    0 -0.37775082815E+01  0.22637209970E+01 -0.72633755274E+02  0.72767138234E+02  0.00000000000E+00 0.  1.
          4    1    6    6  502    0 -0.20864593210E+02  0.31538665913E+02 -0.45865104900E+02  0.59444314655E+02  0.00000000000E+00 0. -1.
          3    1    5    5  503    0 -0.73637754355E+02  0.14870521556E+02  0.15273696959E+03  0.17021231788E+03  0.00000000000E+00 0. -1.
         -4    1    5    5    0  503 -0.11639828134E+03 -0.73802049168E+02  0.35337751504E+03  0.37930326982E+03  0.00000000000E+00 0.  1.
         -3    1    6    6    0  502  0.30890858440E+02  0.16135237872E+03 -0.42362392533E+03  0.45436336271E+03  0.00000000000E+00 0.  1.
<mgrwt>
<rscale>  0 0.16603091E+04</rscale>
<asrwt>0</asrwt>
<pdfrwt beam="1">  1        1 0.18564156E+00 0.16603091E+04</pdfrwt>
<pdfrwt beam="2">  1       -1 0.87865012E-01 0.16603091E+04</pdfrwt>
<totfact> 0.12848997E+01</totfact>
</mgrwt>
</event>
<event>
12    1  0.1496989E-007  0.2540977E+04  0.7818608E-02  0.8388531E-01
          2   -1    0    0  501    0  0.00000000000E+00  0.00000000000E+00  0.14615812321E+04  0.14615812321E+04  0.00000000000E+00 0.  1.
         -2   -1    0    0    0  501 -0.00000000000E+00 -0.00000000000E+00 -0.11043798938E+04  0.11043798938E+04  0.00000000000E+00 0. -1.
         23    2    1    2    0    0 -0.38691961370E+03 -0.10143244036E+04 -0.70686922729E+02  0.10917492813E+04  0.91427943152E+02 0.  0.
        254    2    1    2    0    0  0.38691961370E+03  0.10143244036E+04  0.42788826095E+03  0.14742118446E+04  0.90091698601E+03 0.  0.
        -24    2    4    4    0    0 -0.15979039035E+03  0.32513477126E+02  0.28608793667E+03  0.33872477924E+03  0.79360402720E+02 0.  0.
         24    2    4    4    0    0  0.54671000406E+03  0.98181092651E+03  0.14180032429E+03  0.11354870654E+04  0.79868765721E+02 0.  0.
         13    1    3    3    0    0 -0.37994960329E+03 -0.97730058469E+03 -0.83689231953E+02  0.10518944916E+04  0.00000000000E+00 0. -1.
        -13    1    3    3    0    0 -0.69700104156E+01 -0.37023818951E+02  0.13002309224E+02  0.39854789675E+02  0.00000000000E+00 0.  1.
          4    1    6    6  502    0  0.21694336383E+03  0.43103499671E+03  0.95161693623E+02  0.49184483267E+03  0.00000000000E+00 0. -1.
          3    1    5    5  503    0 -0.20878155533E+02 -0.23276077008E+02  0.58200112101E+02  0.66067588029E+02  0.00000000000E+00 0. -1.
         -4    1    5    5    0  503 -0.13891223482E+03  0.55789554134E+02  0.22788782457E+03  0.27265719121E+03  0.00000000000E+00 0.  1.
         -3    1    6    6    0  502  0.32976664023E+03  0.55077592981E+03  0.46638630663E+02  0.64364223271E+03  0.00000000000E+00 0.  1.
<mgrwt>
<rscale>  0 0.25409769E+04</rscale>
<asrwt>0</asrwt>
<pdfrwt beam="1">  1        2 0.22485865E+00 0.25409769E+04</pdfrwt>
<pdfrwt beam="2">  1       -2 0.16990460E+00 0.25409769E+04</pdfrwt>
<totfact> 0.25327613E+00</totfact>
</mgrwt>
</event>
<event>
12    1  0.1496989E-007  0.1333967E+04  0.7818608E-02  0.9003054E-01
          1   -1    0    0  501    0  0.00000000000E+00  0.00000000000E+00  0.20608215503E+03  0.20608215503E+03  0.00000000000E+00 0. -1.
         -1   -1    0    0    0  501 -0.00000000000E+00 -0.00000000000E+00 -0.21586888650E+04  0.21586888650E+04  0.00000000000E+00 0.  1.
         23    2    1    2    0    0 -0.12493947109E+03 -0.18173561428E+02  0.48521484188E+02  0.16233213276E+03  0.89762114106E+02 0.  0.
        254    2    1    2    0    0  0.12493947109E+03  0.18173561428E+02 -0.20011281942E+04  0.22024388873E+04  0.91119858039E+03 0.  0.
        -24    2    4    4    0    0 -0.69729379425E+02 -0.40789089839E+03 -0.11867203024E+04  0.12593813935E+04  0.80617906155E+02 0.  0.
         24    2    4    4    0    0  0.19466885051E+03  0.42606445982E+03 -0.81440789174E+03  0.94305749375E+03  0.81672131869E+02 0.  0.
         13    1    3    3    0    0 -0.72972693217E+02  0.99469520316E+01 -0.15447109893E+02  0.75250043283E+02  0.00000000000E+00 0.  1.
        -13    1    3    3    0    0 -0.51966777870E+02 -0.28120513459E+02  0.63968594081E+02  0.87082089479E+02  0.00000000000E+00 0. -1.
          4    1    6    6  502    0  0.14455509773E+03  0.32306548836E+03 -0.53942416674E+03  0.64517123131E+03  0.00000000000E+00 0. -1.
          3    1    5    5  503    0 -0.15375906466E+02 -0.87965692429E+01 -0.71278769826E+02  0.73446995568E+02  0.00000000000E+00 0. -1.
         -2    1    5    5    0  503 -0.54353472960E+02 -0.39909432915E+03 -0.11154415326E+04  0.11859343980E+04  0.00000000000E+00 0.  1.
         -3    1    6    6    0  502  0.50113752785E+02  0.10299897146E+03 -0.27498372499E+03  0.29788626244E+03  0.00000000000E+00 0.  1.
<mgrwt>
<rscale>  0 0.13339674E+04</rscale>
<asrwt>0</asrwt>
<pdfrwt beam="1">  1        1 0.31704947E-01 0.13339674E+04</pdfrwt>
<pdfrwt beam="2">  1       -1 0.33210598E+00 0.13339674E+04</pdfrwt>
<totfact> 0.28781326E+00</totfact>
</mgrwt>
</event>
<event>
12    1  0.1496989E-007  0.1836210E+04  0.7818608E-02  0.8687277E-01
         -2   -1    0    0    0  501 -0.00000000000E+00  0.00000000000E+00  0.25149387205E+03  0.25149387205E+03  0.00000000000E+00 0.  1.
          2   -1    0    0  501    0  0.00000000000E+00 -0.00000000000E+00 -0.33516384753E+04  0.33516384753E+04  0.00000000000E+00 0. -1.
         23    2    1    2    0    0  0.57515788795E+03 -0.31661200457E+03 -0.71811973734E+03  0.97732880283E+03  0.91792560586E+02 0.  0.
        254    2    1    2    0    0 -0.57515788795E+03  0.31661200457E+03 -0.23820248659E+04  0.26258035445E+04  0.88867993964E+03 0.  0.
        -24    2    4    4    0    0 -0.32717281372E+03  0.10029078702E+03 -0.22284560084E+04  0.22559879619E+04  0.79782271583E+02 0.  0.
         24    2    4    4    0    0 -0.24798507423E+03  0.21632121755E+03 -0.15356885746E+03  0.36981558257E+03  0.69919274393E+02 0.  0.
         13    1    3    3    0    0  0.58713687149E+02 -0.59603229367E+01 -0.82226876505E+02  0.10121305117E+03  0.00000000000E+00 0. -1.
        -13    1    3    3    0    0  0.51644420080E+03 -0.31065168164E+03 -0.63589286083E+03  0.87611575166E+03  0.00000000000E+00 0.  1.
          2    1    6    6  502    0 -0.21505217192E+03  0.15062353712E+03 -0.12713780753E+03  0.29171717242E+03  0.00000000000E+00 0. -1.
          1    1    5    5  503    0 -0.30767539063E+03  0.10728510549E+03 -0.19762175517E+04  0.20029004098E+04  0.00000000000E+00 0. -1.
         -2    1    5    5    0  503 -0.19497423089E+02 -0.69943184654E+01 -0.25223845669E+03  0.25308755211E+03  0.00000000000E+00 0.  1.
         -1    1    6    6    0  502 -0.32932902307E+02  0.65697680425E+02 -0.26431049930E+02  0.78098410151E+02  0.00000000000E+00 0.  1.
<mgrwt>
<rscale>  0 0.18362097E+04</rscale>
<asrwt>0</asrwt>
<pdfrwt beam="1">  1        2 0.51563666E+00 0.18362097E+04</pdfrwt>
<pdfrwt beam="2">  1       -2 0.38691367E-01 0.18362097E+04</pdfrwt>
<totfact> 0.61482063E+00</totfact>
</mgrwt>
</event>
<event>
12    1  0.1496989E-007  0.1381157E+04  0.7818608E-02  0.8967572E-01
          1   -1    0    0  501    0  0.00000000000E+00  0.00000000000E+00  0.18627301226E+04  0.18627301226E+04  0.00000000000E+00 0. -1.
         -1   -1    0    0    0  501 -0.00000000000E+00 -0.00000000000E+00 -0.25602139964E+03  0.25602139964E+03  0.00000000000E+00 0.  1.
         23    2    1    2    0    0  0.54683179505E+02  0.33040723716E+03  0.78773617609E+03  0.86069073453E+03  0.90005915929E+02 0.  0.
        254    2    1    2    0    0 -0.54683179505E+02 -0.33040723716E+03  0.81897254685E+03  0.12580607877E+04  0.89433870572E+03 0.  0.
        -24    2    4    4    0    0  0.39965638721E+03 -0.39790318253E+02  0.36300974962E+03  0.54730853561E+03  0.80386924136E+02 0.  0.
         24    2    4    4    0    0 -0.45433956671E+03 -0.29061691891E+03  0.45596279724E+03  0.71075225209E+03  0.79900287539E+02 0.  0.
         13    1    3    3    0    0  0.27546921535E+02  0.21449642535E+03  0.60604432028E+03  0.64347281801E+03  0.00000000000E+00 0. -1.
        -13    1    3    3    0    0  0.27136257970E+02  0.11591081181E+03  0.18169185581E+03  0.21721791652E+03  0.00000000000E+00 0.  1.
          2    1    6    6  502    0 -0.41102198086E+02 -0.22087687818E+02  0.72944714971E+02  0.86592078638E+02  0.00000000000E+00 0. -1.
          3    1    5    5  503    0  0.20351979194E+02 -0.16179648151E+02  0.44087146460E+02  0.51182619651E+02  0.00000000000E+00 0. -1.
         -4    1    5    5    0  503  0.37930440801E+03 -0.23610670102E+02  0.31892260316E+03  0.49612591596E+03  0.00000000000E+00 0.  1.
         -1    1    6    6    0  502 -0.41323736863E+03 -0.26852923109E+03  0.38301808227E+03  0.62416017345E+03  0.00000000000E+00 0.  1.
<mgrwt>
<rscale>  0 0.13811572E+04</rscale>
<asrwt>0</asrwt>
<pdfrwt beam="1">  1        1 0.28657386E+00 0.13811572E+04</pdfrwt>
<pdfrwt beam="2">  1       -1 0.39387909E-01 0.13811572E+04</pdfrwt>
<totfact> 0.22606743E+01</totfact>
</mgrwt>
</event>
<event>
12    1  0.1496989E-007  0.1549253E+04  0.7818608E-02  0.8852345E-01
          2   -1    0    0  501    0  0.00000000000E+00  0.00000000000E+00  0.69681598536E+03  0.69681598536E+03  0.00000000000E+00 0. -1.
         -2   -1    0    0    0  501 -0.00000000000E+00 -0.00000000000E+00 -0.86112533752E+03  0.86112533752E+03  0.00000000000E+00 0.  1.
         23    2    1    2    0    0  0.86295000137E+02  0.41544932179E+03  0.23621986343E+03  0.49386952645E+03  0.89790418487E+02 0.  0.
        254    2    1    2    0    0 -0.86295000137E+02 -0.41544932179E+03 -0.40052921558E+03  0.10640717964E+04  0.88982030175E+03 0.  0.
        -24    2    4    4    0    0  0.16428280312E+03  0.20246984976E+03 -0.26347544037E+03  0.37935361201E+03  0.80665827969E+02 0.  0.
         24    2    4    4    0    0 -0.25057780326E+03 -0.61791917155E+03 -0.13705377521E+03  0.68471818443E+03  0.73769348144E+02 0.  0.
         13    1    3    3    0    0  0.65406756025E+02  0.11661096764E+03  0.83309986830E+02  0.15753322003E+03  0.00000000000E+00 0.  1.
        -13    1    3    3    0    0  0.20888244112E+02  0.29883835415E+03  0.15290987660E+03  0.33633630642E+03  0.00000000000E+00 0. -1.
          4    1    6    6  502    0 -0.71945918103E+01 -0.43628618751E+02  0.64565454448E+01  0.44686748646E+02  0.00000000000E+00 0. -1.
          3    1    5    5  503    0  0.45810031452E+02  0.29071999277E+02 -0.20008721517E+02  0.57828099228E+02  0.00000000000E+00 0. -1.
         -4    1    5    5    0  503  0.11847277167E+03  0.17339785049E+03 -0.24346671885E+03  0.32152551278E+03  0.00000000000E+00 0.  1.
         -3    1    6    6    0  502 -0.24338321145E+03 -0.57429055280E+03 -0.14351032066E+03  0.64003143578E+03  0.00000000000E+00 0.  1.
<mgrwt>
<rscale>  0 0.15492526E+04</rscale>
<asrwt>0</asrwt>
<pdfrwt beam="1">  1        2 0.10720246E+00 0.15492526E+04</pdfrwt>
<pdfrwt beam="2">  1       -2 0.13248082E+00 0.15492526E+04</pdfrwt>
<totfact> 0.16415658E+01</totfact>
</mgrwt>
</event>
<event>
12    1  0.1496989E-007  0.1602631E+04  0.7818608E-02  0.8818933E-01
         -2   -1    0    0    0  501 -0.00000000000E+00  0.00000000000E+00  0.15165436650E+04  0.15165436650E+04  0.00000000000E+00 0.  1.
          2   -1    0    0  501    0  0.00000000000E+00 -0.00000000000E+00 -0.42340147439E+03  0.42340147439E+03  0.00000000000E+00 0. -1.
         23    2    1    2    0    0 -0.28971137408E+03 -0.51528271920E+02  0.93634416981E+03  0.98557621472E+03  0.89622695757E+02 0.  0.
        254    2    1    2    0    0  0.28971137408E+03  0.51528271920E+02  0.15679802084E+03  0.95436892470E+03  0.89422960252E+03 0.  0.
        -24    2    4    4    0    0 -0.14625088073E+03 -0.16131940038E+03 -0.23206413841E+03  0.32755403122E+03  0.77618361084E+02 0.  0.
         24    2    4    4    0    0  0.43596225481E+03  0.21284767230E+03  0.38886215925E+03  0.62681489348E+03  0.79472715920E+02 0.  0.
         13    1    3    3    0    0 -0.12598971222E+03  0.88707362336E+01  0.29469219116E+03  0.32061750588E+03  0.00000000000E+00 0. -1.
        -13    1    3    3    0    0 -0.16372166186E+03 -0.60399008154E+02  0.64165197865E+03  0.66495870884E+03  0.00000000000E+00 0.  1.
          4    1    6    6  502    0  0.27680108215E+03  0.17326038913E+03  0.27787880347E+03  0.42878273163E+03  0.00000000000E+00 0. -1.
          1    1    5    5  503    0 -0.14855673206E+03 -0.15553971633E+03 -0.23667639357E+03  0.31980841338E+03  0.00000000000E+00 0. -1.
         -2    1    5    5    0  503  0.23058513271E+01 -0.57796840470E+01  0.46122551584E+01  0.77456178367E+01  0.00000000000E+00 0.  1.
         -3    1    6    6    0  502  0.15916117266E+03  0.39587283167E+02  0.11098335578E+03  0.19803216186E+03  0.00000000000E+00 0.  1.
<mgrwt>
<rscale>  0 0.16026314E+04</rscale>
<asrwt>0</asrwt>
<pdfrwt beam="1">  1        2 0.65138689E-01 0.16026314E+04</pdfrwt>
<pdfrwt beam="2">  1       -2 0.23331441E+00 0.16026314E+04</pdfrwt>
<totfact> 0.58248227E+00</totfact>
</mgrwt>
</event>
<event>
12    1  0.1496989E-007  0.1370978E+04  0.7818608E-02  0.8975098E-01
         -1   -1    0    0    0  501 -0.00000000000E+00  0.00000000000E+00  0.50962106920E+03  0.50962106920E+03  0.00000000000E+00 0.  1.
          1   -1    0    0  501    0  0.00000000000E+00 -0.00000000000E+00 -0.92204810279E+03  0.92204810279E+03  0.00000000000E+00 0. -1.
         23    2    1    2    0    0 -0.31629936952E+03 -0.47838485048E+02  0.11134901015E+03  0.35079407548E+03  0.91236338810E+02 0.  0.
        254    2    1    2    0    0  0.31629936952E+03  0.47838485048E+02 -0.52377604375E+03  0.10808750965E+04  0.88972794631E+03 0.  0.
        -24    2    4    4    0    0 -0.25752532140E+03 -0.11266697463E+03 -0.13550175202E+02  0.29254967267E+03  0.79928501811E+02 0.  0.
         24    2    4    4    0    0  0.57382469092E+03  0.16050545968E+03 -0.51022586855E+03  0.78832542384E+03  0.78036904324E+02 0.  0.
         11    1    3    3    0    0 -0.70998412375E+02  0.54236079626E+01 -0.10139164388E+02  0.71923520058E+02  0.00000000000E+00 0. -1.
        -11    1    3    3    0    0 -0.24530095715E+03 -0.53262093011E+02  0.12148817454E+03  0.27887055542E+03  0.00000000000E+00 0.  1.
          2    1    6    6  502    0  0.48362046445E+03  0.12989675342E+03 -0.38869981323E+03  0.63391597629E+03  0.00000000000E+00 0. -1.
          3    1    5    5  503    0 -0.21490595306E+03 -0.84979706965E+02 -0.41124235495E+02  0.23472818749E+03  0.00000000000E+00 0. -1.
         -4    1    5    5    0  503 -0.42619368335E+02 -0.27687267664E+02  0.27574060293E+02  0.57821485185E+02  0.00000000000E+00 0.  1.
         -1    1    6    6    0  502  0.90204226465E+02  0.30608706256E+02 -0.12152605532E+03  0.15440944755E+03  0.00000000000E+00 0.  1.
<mgrwt>
<rscale>  0 0.13709780E+04</rscale>
<asrwt>0</asrwt>
<pdfrwt beam="1">  1        1 0.14185355E+00 0.13709780E+04</pdfrwt>
<pdfrwt beam="2">  1       -1 0.78403241E-01 0.13709780E+04</pdfrwt>
<totfact> 0.27786819E+01</totfact>
</mgrwt>
</event>
<event>
12    1  0.1496989E-007  0.3502668E+04  0.7818608E-02  0.8113158E-01
          2   -1    0    0  501    0  0.00000000000E+00  0.00000000000E+00  0.25196614710E+04  0.25196614710E+04  0.00000000000E+00 0. -1.
         -2   -1    0    0    0  501 -0.00000000000E+00 -0.00000000000E+00 -0.12172949044E+04  0.12172949044E+04  0.00000000000E+00 0.  1.
         23    2    1    2    0    0  0.69147198271E+03 -0.54009146907E+03  0.20822149948E+04  0.22613533072E+04  0.90924130690E+02 0.  0.
        254    2    1    2    0    0 -0.69147198271E+03  0.54009146907E+03 -0.77984842822E+03  0.14756030683E+04  0.89409649716E+03 0.  0.
        -24    2    4    4    0    0 -0.15067419674E+03  0.48211830361E+03 -0.77170907096E+03  0.92562912987E+03  0.78189664459E+02 0.  0.
         24    2    4    4    0    0 -0.54079778597E+03  0.57973165468E+02 -0.81393572517E+01  0.54997393839E+03  0.81129221283E+02 0.  0.
         11    1    3    3    0    0  0.28926931089E+03 -0.17386404902E+03  0.83958869343E+03  0.90488375822E+03  0.00000000000E+00 0. -1.
        -11    1    3    3    0    0  0.40220267182E+03 -0.36622742006E+03  0.12426263013E+04  0.13564695489E+04  0.00000000000E+00 0.  1.
          2    1    6    6  502    0 -0.35159829964E+03  0.75706584080E+01  0.19575392658E+02  0.35222418312E+03  0.00000000000E+00 0. -1.
          3    1    5    5  503    0 -0.10929400533E+03  0.33080364471E+03 -0.46393593831E+03  0.58018340704E+03  0.00000000000E+00 0. -1.
         -4    1    5    5    0  503 -0.41380191412E+02  0.15131465890E+03 -0.30777313265E+03  0.34544572283E+03  0.00000000000E+00 0.  1.
         -1    1    6    6    0  502 -0.18919948633E+03  0.50402507060E+02 -0.27714749909E+02  0.19774975527E+03  0.00000000000E+00 0.  1.
<mgrwt>
<rscale>  0 0.35026682E+04</rscale>
<asrwt>0</asrwt>
<pdfrwt beam="1">  1        2 0.38764023E+00 0.35026682E+04</pdfrwt>
<pdfrwt beam="2">  1       -2 0.18727614E+00 0.35026682E+04</pdfrwt>
<totfact> 0.45036405E-01</totfact>
</mgrwt>
</event>
<event>
12    1  0.1496989E-007  0.1967313E+04  0.7818608E-02  0.8622057E-01
         -2   -1    0    0    0  501 -0.00000000000E+00  0.00000000000E+00  0.74939307458E+03  0.74939307458E+03  0.00000000000E+00 0.  1.
          2   -1    0    0  501    0  0.00000000000E+00 -0.00000000000E+00 -0.12911510937E+04  0.12911510937E+04  0.00000000000E+00 0. -1.
         23    2    1    2    0    0  0.48548818446E+03  0.99555429609E+02 -0.84045511496E+03  0.97994308629E+03  0.91178897181E+02 0.  0.
        254    2    1    2    0    0 -0.48548818446E+03 -0.99555429609E+02  0.29869709588E+03  0.10606010819E+04  0.88884455285E+03 0.  0.
        -24    2    4    4    0    0 -0.29070532155E+03 -0.20198893292E+03 -0.26604037504E+03  0.44918360751E+03  0.75361257353E+02 0.  0.
         24    2    4    4    0    0 -0.19478286291E+03  0.10243350331E+03  0.56473747092E+03  0.61141747443E+03  0.80435879402E+02 0.  0.
         11    1    3    3    0    0  0.36883440293E+03  0.11438694228E+03 -0.65427446936E+03  0.75973565837E+03  0.00000000000E+00 0. -1.
        -11    1    3    3    0    0  0.11665378153E+03 -0.14831512672E+02 -0.18618064560E+03  0.22020742792E+03  0.00000000000E+00 0.  1.
          4    1    6    6  502    0 -0.27705832611E+02 -0.12403730256E+02  0.96827277091E+02  0.10147407193E+03  0.00000000000E+00 0. -1.
          3    1    5    5  503    0 -0.17282320620E+03 -0.15058819685E+03 -0.13722004000E+03  0.26715913799E+03  0.00000000000E+00 0. -1.
         -4    1    5    5    0  503 -0.11788211535E+03 -0.51400736070E+02 -0.12882033503E+03  0.18202446953E+03  0.00000000000E+00 0.  1.
         -3    1    6    6    0  502 -0.16707703030E+03  0.11483723357E+03  0.46791019383E+03  0.50994340250E+03  0.00000000000E+00 0.  1.
<mgrwt>
<rscale>  0 0.19673126E+04</rscale>
<asrwt>0</asrwt>
<pdfrwt beam="1">  1        2 0.19863863E+00 0.19673126E+04</pdfrwt>
<pdfrwt beam="2">  1       -2 0.11529124E+00 0.19673126E+04</pdfrwt>
<totfact> 0.91339326E+00</totfact>
</mgrwt>
</event>
<event>
12    1  0.1496989E-007  0.1929964E+04  0.7818608E-02  0.8640084E-01
         -3   -1    0    0    0  501 -0.00000000000E+00  0.00000000000E+00  0.33523833133E+03  0.33523833133E+03  0.00000000000E+00 0.  1.
          3   -1    0    0  501    0  0.00000000000E+00 -0.00000000000E+00 -0.27776959651E+04  0.27776959651E+04  0.00000000000E+00 0. -1.
         23    2    1    2    0    0  0.39933292493E+01 -0.82760355519E+01  0.25430110984E+03  0.26985218989E+03  0.89814867832E+02 0.  0.
        254    2    1    2    0    0 -0.39933292493E+01  0.82760355519E+01 -0.26967587436E+04  0.28430821066E+04  0.90029089955E+03 0.  0.
        -24    2    4    4    0    0 -0.12790778627E+03 -0.13396849898E+03 -0.77735076431E+02  0.21606834169E+03  0.79591618056E+02 0.  0.
         24    2    4    4    0    0  0.12391445702E+03  0.14224453454E+03 -0.26190236672E+04  0.26270137649E+04  0.79549048803E+02 0.  0.
         11    1    3    3    0    0  0.30495998958E+02 -0.34017381819E+02  0.84309970493E+02  0.95892436317E+02  0.00000000000E+00 0. -1.
        -11    1    3    3    0    0 -0.26502669708E+02  0.25741346267E+02  0.16999113934E+03  0.17395975358E+03  0.00000000000E+00 0.  1.
          2    1    6    6  502    0 -0.87637373210E+01  0.12202265819E+02 -0.37961204821E+03  0.37990920695E+03  0.00000000000E+00 0. -1.
          3    1    5    5  503    0 -0.24579507191E+02 -0.30171523717E+02  0.16112963501E+02  0.42120073717E+02  0.00000000000E+00 0. -1.
         -4    1    5    5    0  503 -0.10332827908E+03 -0.10379697527E+03 -0.93848039932E+02  0.17394826797E+03  0.00000000000E+00 0.  1.
         -1    1    6    6    0  502  0.13267819434E+03  0.13004226872E+03 -0.22394116190E+04  0.22471045579E+04  0.00000000000E+00 0.  1.
<mgrwt>
<rscale>  0 0.19299639E+04</rscale>
<asrwt>0</asrwt>
<pdfrwt beam="1">  1        3 0.42733783E+00 0.19299639E+04</pdfrwt>
<pdfrwt beam="2">  1       -3 0.51575130E-01 0.19299639E+04</pdfrwt>
<totfact> 0.72976510E-02</totfact>
</mgrwt>
</event>
<event>
12    1  0.1496989E-007  0.1543185E+04  0.7818608E-02  0.8856232E-01
          2   -1    0    0  501    0  0.00000000000E+00  0.00000000000E+00  0.11887790752E+04  0.11887790752E+04  0.00000000000E+00 0. -1.
         -2   -1    0    0    0  501 -0.00000000000E+00 -0.00000000000E+00 -0.50081236745E+03  0.50081236745E+03  0.00000000000E+00 0.  1.
         23    2    1    2    0    0  0.45617215335E+03  0.60072653237E+02 -0.94896814013E+01  0.46873490653E+03  0.88997760562E+02 0.  0.
        254    2    1    2    0    0 -0.45617215335E+03 -0.60072653237E+02  0.69745638914E+03  0.12208565361E+04  0.89013679279E+03 0.  0.
        -24    2    4    4    0    0 -0.22421093373E+03  0.22189465127E+03 -0.99735406366E+02  0.34044833194E+03  0.80312741038E+02 0.  0.
         24    2    4    4    0    0 -0.23196121962E+03 -0.28196730451E+03  0.79719179551E+03  0.88040820418E+03  0.79323886327E+02 0.  0.
         11    1    3    3    0    0  0.14870435689E+03  0.13170951246E+02 -0.44420512394E+02  0.15575506937E+03  0.00000000000E+00 0. -1.
        -11    1    3    3    0    0  0.30746779646E+03  0.46901701990E+02  0.34930830993E+02  0.31297983715E+03  0.00000000000E+00 0.  1.
          4    1    6    6  502    0 -0.17239144448E+03 -0.22115318130E+03  0.68012841974E+03  0.73566446636E+03  0.00000000000E+00 0. -1.
          1    1    5    5  503    0 -0.20472038269E+03  0.22665524164E+03 -0.92554703548E+02  0.31913853857E+03  0.00000000000E+00 0. -1.
         -2    1    5    5    0  503 -0.19490551041E+02 -0.47605903723E+01 -0.71807028181E+01  0.21309793372E+02  0.00000000000E+00 0.  1.
         -3    1    6    6    0  502 -0.59569775136E+02 -0.60814123204E+02  0.11706337577E+03  0.14474373782E+03  0.00000000000E+00 0.  1.
<mgrwt>
<rscale>  0 0.15431854E+04</rscale>
<asrwt>0</asrwt>
<pdfrwt beam="1">  1        2 0.18288909E+00 0.15431854E+04</pdfrwt>
<pdfrwt beam="2">  1       -2 0.77048057E-01 0.15431854E+04</pdfrwt>
<totfact> 0.27864173E+01</totfact>
</mgrwt>
</event>
<event>
12    1  0.1496989E-007  0.1086728E+04  0.7818608E-02  0.9218226E-01
         -2   -1    0    0    0  501 -0.00000000000E+00  0.00000000000E+00  0.64396765143E+03  0.64396765143E+03  0.00000000000E+00 0.  1.
          2   -1    0    0  501    0  0.00000000000E+00 -0.00000000000E+00 -0.45847672716E+03  0.45847672716E+03  0.00000000000E+00 0. -1.
         23    2    1    2    0    0  0.49074115145E+02  0.13725517814E+03  0.33694209719E+02  0.18153797802E+03  0.10282745253E+03 0.  0.
        254    2    1    2    0    0 -0.49074115145E+02 -0.13725517814E+03  0.15179671455E+03  0.92090640057E+03  0.89653728498E+03 0.  0.
        -24    2    4    4    0    0  0.17608444466E+03  0.30908722199E+03 -0.65754094999E+02  0.36970272999E+03  0.76261819440E+02 0.  0.
         24    2    4    4    0    0 -0.22515855980E+03 -0.44634240012E+03  0.21755080955E+03  0.55120367058E+03  0.81112369769E+02 0.  0.
         11    1    3    3    0    0  0.39600836663E+02  0.12905031157E+03  0.63518777849E+02  0.14918727935E+03  0.00000000000E+00 0.  1.
        -11    1    3    3    0    0  0.94732784824E+01  0.82048665681E+01 -0.29824568130E+02  0.32350698675E+02  0.00000000000E+00 0. -1.
          2    1    6    6  502    0 -0.89032533520E+02 -0.15609586899E+03  0.12008486126E+03  0.21613210369E+03  0.00000000000E+00 0. -1.
          3    1    5    5  503    0  0.10680727410E+03  0.11868625998E+03 -0.45811083348E+02  0.16611103957E+03  0.00000000000E+00 0. -1.
         -4    1    5    5    0  503  0.69277170559E+02  0.19040096201E+03 -0.19943011650E+02  0.20359169042E+03  0.00000000000E+00 0.  1.
         -1    1    6    6    0  502 -0.13612602628E+03 -0.29024653113E+03  0.97465948290E+02  0.33507156689E+03  0.00000000000E+00 0.  1.
<mgrwt>
<rscale>  0 0.10867275E+04</rscale>
<asrwt>0</asrwt>
<pdfrwt beam="1">  1        2 0.70534881E-01 0.10867275E+04</pdfrwt>
<pdfrwt beam="2">  1       -2 0.99071947E-01 0.10867275E+04</pdfrwt>
<totfact> 0.57134937E+01</totfact>
</mgrwt>
</event>
<event>
12    1  0.1496989E-007  0.1999391E+04  0.7818608E-02  0.8606906E-01
         -1   -1    0    0    0  501 -0.00000000000E+00  0.00000000000E+00  0.40565916366E+03  0.40565916366E+03  0.00000000000E+00 0.  1.
          1   -1    0    0  501    0  0.00000000000E+00 -0.00000000000E+00 -0.24636215463E+04  0.24636215463E+04  0.00000000000E+00 0. -1.
         23    2    1    2    0    0  0.45571646016E+03 -0.18838058384E+03  0.68863450023E+02  0.50588412219E+03  0.89508848196E+02 0.  0.
        254    2    1    2    0    0 -0.45571646016E+03  0.18838058384E+03 -0.21268258326E+04  0.23633965877E+04  0.90503622700E+03 0.  0.
        -24    2    4    4    0    0 -0.51874099167E+03 -0.50892746174E+02 -0.20112668688E+04  0.20792567018E+04  0.80198045072E+02 0.  0.
         24    2    4    4    0    0  0.63024531518E+02  0.23927333001E+03 -0.11555896384E+03  0.28413988594E+03  0.78471540267E+02 0.  0.
         11    1    3    3    0    0  0.29801436972E+03 -0.16624577612E+03  0.59184329087E+02  0.34634232696E+03  0.00000000000E+00 0.  1.
        -11    1    3    3    0    0  0.15770209044E+03 -0.22134807722E+02  0.96791209358E+01  0.15954179522E+03  0.00000000000E+00 0. -1.
          4    1    6    6  502    0  0.15629951466E+02  0.57763643054E+02  0.67107706161E+01  0.60216013518E+02  0.00000000000E+00 0. -1.
          3    1    5    5  503    0 -0.25628628310E+03  0.75231735393E+01 -0.10743990828E+04  0.11045689866E+04  0.00000000000E+00 0. -1.
         -4    1    5    5    0  503 -0.26245470857E+03 -0.58415919714E+02 -0.93686778594E+03  0.97468771515E+03  0.00000000000E+00 0.  1.
         -3    1    6    6    0  502  0.47394580052E+02  0.18150968696E+03 -0.12226973446E+03  0.22392387243E+03  0.00000000000E+00 0.  1.
<mgrwt>
<rscale>  0 0.19993906E+04</rscale>
<asrwt>0</asrwt>
<pdfrwt beam="1">  1        1 0.37901869E+00 0.19993906E+04</pdfrwt>
<pdfrwt beam="2">  1       -1 0.62409104E-01 0.19993906E+04</pdfrwt>
<totfact> 0.34700399E+00</totfact>
</mgrwt>
</event>
<event>
12    1  0.1496989E-007  0.1952164E+04  0.7818608E-02  0.8629318E-01
         -1   -1    0    0    0  501 -0.00000000000E+00  0.00000000000E+00  0.11917899989E+04  0.11917899989E+04  0.00000000000E+00 0.  1.
          1   -1    0    0  501    0  0.00000000000E+00 -0.00000000000E+00 -0.79941607729E+03  0.79941607729E+03  0.00000000000E+00 0. -1.
         23    2    1    2    0    0 -0.40670202996E+03 -0.36165064420E+03 -0.39426413045E+03  0.67847335797E+03  0.93188858171E+02 0.  0.
        254    2    1    2    0    0  0.40670202996E+03  0.36165064420E+03  0.78663805204E+03  0.13127327182E+04  0.89903839456E+03 0.  0.
        -24    2    4    4    0    0  0.13408543023E+03  0.58974802774E+03  0.71851617493E+03  0.94258992253E+03  0.80178735278E+02 0.  0.
         24    2    4    4    0    0  0.27261659974E+03 -0.22809738354E+03  0.68121877104E+02  0.37014279567E+03  0.77568500164E+02 0.  0.
         11    1    3    3    0    0 -0.11862455116E+03 -0.56262438176E+02 -0.76501799542E+02  0.15195318825E+03  0.00000000000E+00 0.  1.
        -11    1    3    3    0    0 -0.28807747880E+03 -0.30538820602E+03 -0.31776233091E+03  0.52652016972E+03  0.00000000000E+00 0. -1.
          4    1    6    6  502    0  0.15423063851E+03 -0.11053886379E+03 -0.47317766191E+00  0.18975287655E+03  0.00000000000E+00 0. -1.
          1    1    5    5  503    0  0.92900680701E+02  0.32185334385E+03  0.45061962100E+03  0.56149635284E+03  0.00000000000E+00 0. -1.
         -2    1    5    5    0  503  0.41184749529E+02  0.26789468388E+03  0.26789655393E+03  0.38109356969E+03  0.00000000000E+00 0.  1.
         -3    1    6    6    0  502  0.11838596123E+03 -0.11755851975E+03  0.68595054766E+02  0.18038991912E+03  0.00000000000E+00 0.  1.
<mgrwt>
<rscale>  0 0.19521640E+04</rscale>
<asrwt>0</asrwt>
<pdfrwt beam="1">  1        1 0.12298709E+00 0.19521640E+04</pdfrwt>
<pdfrwt beam="2">  1       -1 0.18335231E+00 0.19521640E+04</pdfrwt>
<totfact> 0.40598582E+00</totfact>
</mgrwt>
</event>
<event>
12    1  0.1496989E-007  0.1540010E+04  0.7818608E-02  0.8858274E-01
         -2   -1    0    0    0  501 -0.00000000000E+00  0.00000000000E+00  0.27078637430E+03  0.27078637430E+03  0.00000000000E+00 0. -1.
          2   -1    0    0  501    0  0.00000000000E+00 -0.00000000000E+00 -0.21895780109E+04  0.21895780109E+04  0.00000000000E+00 0.  1.
         23    2    1    2    0    0  0.11707141697E+03 -0.10454369338E+03  0.12469115623E+03  0.22019479608E+03  0.91119500022E+02 0.  0.
        254    2    1    2    0    0 -0.11707141697E+03  0.10454369338E+03 -0.20434827928E+04  0.22401695891E+04  0.90437976698E+03 0.  0.
        -24    2    4    4    0    0  0.14353921118E+03 -0.33169799834E+03 -0.11640015782E+04  0.12213343007E+04  0.78298995574E+02 0.  0.
         24    2    4    4    0    0 -0.26061062815E+03  0.43624169172E+03 -0.87948121462E+03  0.10188352884E+04  0.79457063793E+02 0.  0.
         11    1    3    3    0    0  0.10044560366E+03 -0.69343112524E+02  0.13286273525E+03  0.18041699745E+03  0.00000000000E+00 0. -1.
        -11    1    3    3    0    0  0.16625813307E+02 -0.35200580855E+02 -0.81715790224E+01  0.39777798637E+02  0.00000000000E+00 0.  1.
          4    1    6    6  502    0  0.49207379910E+01  0.16451933610E+02 -0.37717050971E+02  0.41442197286E+02  0.00000000000E+00 0. -1.
          3    1    5    5  503    0  0.10338897351E+02 -0.11296132013E+03 -0.33600555878E+03  0.35463627589E+03  0.00000000000E+00 0. -1.
         -4    1    5    5    0  503  0.13320031383E+03 -0.21873667821E+03 -0.82799601942E+03  0.86669802479E+03  0.00000000000E+00 0.  1.
         -3    1    6    6    0  502 -0.26553136614E+03  0.41978975811E+03 -0.84176416365E+03  0.97739309115E+03  0.00000000000E+00 0.  1.
<mgrwt>
<rscale>  0 0.15400102E+04</rscale>
<asrwt>0</asrwt>
<pdfrwt beam="1">  1        2 0.33685817E+00 0.15400102E+04</pdfrwt>
<pdfrwt beam="2">  1       -2 0.41659440E-01 0.15400102E+04</pdfrwt>
<totfact> 0.27551838E+01</totfact>
</mgrwt>
</event>
<event>
12    1  0.1838702E-007  0.3313503E+04  0.7818608E-02  0.8159468E-01
         -1   -1    0    0    0  501 -0.00000000000E+00  0.00000000000E+00  0.10991340208E+04  0.10991340208E+04  0.00000000000E+00 0.  1.
          1   -1    0    0  501    0  0.00000000000E+00 -0.00000000000E+00 -0.24972615624E+04  0.24972615624E+04  0.00000000000E+00 0. -1.
         23    2    1    2    0    0  0.15111974998E+02 -0.11129569193E+04  0.49474456632E+03  0.12215750647E+04  0.92584971524E+02 0.  0.
        254    2    1    2    0    0 -0.15111974998E+02  0.11129569193E+04 -0.18928721080E+04  0.23748205185E+04  0.90438166825E+03 0.  0.
        -24    2    4    4    0    0 -0.23130431142E+03  0.56586059952E+03 -0.32224917964E+03  0.69561048420E+03  0.79558213779E+02 0.  0.
         24    2    4    4    0    0  0.21619233642E+03  0.54709631975E+03 -0.15706229283E+04  0.16792100343E+04  0.82682808238E+02 0.  0.
         13    1    3    3    0    0 -0.21328883309E+02 -0.13972927444E+03  0.85344621686E+02  0.16511479598E+03  0.00000000000E+00 0. -1.
        -13    1    3    3    0    0  0.36440858308E+02 -0.97322764484E+03  0.40939994464E+03  0.10564602688E+04  0.00000000000E+00 0.  1.
          4    1    6    6  502    0 -0.37993358532E+01 -0.57380389338E+00 -0.99739585237E+01  0.10688500946E+02  0.00000000000E+00 0. -1.
          1    1    5    5  503    0 -0.52321062262E+02  0.85141866391E+02 -0.26034027099E+02  0.10326858930E+03  0.00000000000E+00 0. -1.
         -2    1    5    5    0  503 -0.17898324916E+03  0.48071873313E+03 -0.29621515254E+03  0.59234189490E+03  0.00000000000E+00 0.  1.
         -3    1    6    6    0  502  0.21999167227E+03  0.54767012365E+03 -0.15606489698E+04  0.16685215333E+04  0.00000000000E+00 0.  1.
<mgrwt>
<rscale>  0 0.33135028E+04</rscale>
<asrwt>0</asrwt>
<pdfrwt beam="1">  1        1 0.38419408E+00 0.33135028E+04</pdfrwt>
<pdfrwt beam="2">  1       -1 0.16909754E+00 0.33135028E+04</pdfrwt>
<totfact> 0.28166142E-01</totfact>
</mgrwt>
</event>
<event>
12    1  0.1496989E-007  0.1867785E+04  0.7818608E-02  0.8671060E-01
         -2   -1    0    0    0  501 -0.00000000000E+00  0.00000000000E+00  0.40133431083E+03  0.40133431083E+03  0.00000000000E+00 0.  1.
          2   -1    0    0  501    0  0.00000000000E+00 -0.00000000000E+00 -0.21731400485E+04  0.21731400485E+04  0.00000000000E+00 0. -1.
         23    2    1    2    0    0 -0.50067561745E+01 -0.18973404861E+03  0.26587885215E+03  0.33894819036E+03  0.90389351807E+02 0.  0.
        254    2    1    2    0    0  0.50067561745E+01  0.18973404861E+03 -0.20376845898E+04  0.22355261690E+04  0.89966365257E+03 0.  0.
        -24    2    4    4    0    0  0.24971359726E+02 -0.26132885498E+03 -0.15179857757E+04  0.15425952627E+04  0.80018684185E+02 0.  0.
         24    2    4    4    0    0 -0.19964603552E+02  0.45106290360E+03 -0.51969881407E+03  0.69293090629E+03  0.78803903144E+02 0.  0.
         13    1    3    3    0    0  0.29079282887E+02 -0.46472137822E+02  0.34793980260E+02  0.64929849447E+02  0.00000000000E+00 0. -1.
        -13    1    3    3    0    0 -0.34086039061E+02 -0.14326191079E+03  0.23108487189E+03  0.27401834091E+03  0.00000000000E+00 0.  1.
          2    1    6    6  502    0 -0.91238019331E+01  0.11745490027E+03 -0.86999101846E+02  0.14645047314E+03  0.00000000000E+00 0. -1.
          3    1    5    5  503    0 -0.22977860698E+02 -0.38709984497E+02 -0.19281258315E+03  0.19799782121E+03  0.00000000000E+00 0. -1.
         -4    1    5    5    0  503  0.47949220424E+02 -0.22261887049E+03 -0.13251731926E+04  0.13445974415E+04  0.00000000000E+00 0.  1.
         -1    1    6    6    0  502 -0.10840801619E+02  0.33360800332E+03 -0.43269971223E+03  0.54648043316E+03  0.00000000000E+00 0.  1.
<mgrwt>
<rscale>  0 0.18677855E+04</rscale>
<asrwt>0</asrwt>
<pdfrwt beam="1">  1        2 0.33432924E+00 0.18677855E+04</pdfrwt>
<pdfrwt beam="2">  1       -2 0.61743740E-01 0.18677855E+04</pdfrwt>
<totfact> 0.12236619E+01</totfact>
</mgrwt>
</event>
<event>
12    1  0.1496989E-007  0.1618392E+04  0.7818608E-02  0.8809328E-01
         -3   -1    0    0    0  501 -0.00000000000E+00  0.00000000000E+00  0.27448570028E+04  0.27448570028E+04  0.00000000000E+00 0.  1.
          3   -1    0    0  501    0  0.00000000000E+00 -0.00000000000E+00 -0.23855446055E+03  0.23855446055E+03  0.00000000000E+00 0. -1.
         23    2    1    2    0    0 -0.74851755762E+02  0.38432290603E+03  0.15504096885E+03  0.43253190603E+03  0.98687720978E+02 0.  0.
        254    2    1    2    0    0  0.74851755762E+02 -0.38432290603E+03  0.23512615734E+04  0.25508795573E+04  0.90843197209E+03 0.  0.
        -24    2    4    4    0    0  0.20510947949E+03  0.22880114905E+03  0.47763229156E+03  0.57370686169E+03  0.81160906993E+02 0.  0.
         24    2    4    4    0    0 -0.13025772373E+03 -0.61312405508E+03  0.18736292818E+04  0.19771726956E+04  0.76400268627E+02 0.  0.
         11    1    3    3    0    0 -0.59795821282E+02  0.92943628533E+02  0.59520214079E+02  0.12552575119E+03  0.00000000000E+00 0.  1.
        -11    1    3    3    0    0 -0.15055934480E+02  0.29137927750E+03  0.95520754768E+02  0.30700615484E+03  0.00000000000E+00 0. -1.
          2    1    6    6  502    0 -0.55812683785E+02 -0.36278369812E+03  0.11913912701E+04  0.12466516057E+04  0.00000000000E+00 0. -1.
          3    1    5    5  503    0  0.19441561005E+03  0.22316776482E+03  0.47729485442E+03  0.56161522304E+03  0.00000000000E+00 0. -1.
         -4    1    5    5    0  503  0.10693869441E+02  0.56333842290E+01  0.33743713695E+00  0.12091638653E+02  0.00000000000E+00 0.  1.
         -1    1    6    6    0  502 -0.74445039945E+02 -0.25034035695E+03  0.68223801165E+03  0.73052108993E+03  0.00000000000E+00 0.  1.
<mgrwt>
<rscale>  0 0.16183916E+04</rscale>
<asrwt>0</asrwt>
<pdfrwt beam="1">  1        3 0.36700688E-01 0.16183916E+04</pdfrwt>
<pdfrwt beam="2">  1       -3 0.42228567E+00 0.16183916E+04</pdfrwt>
<totfact> 0.14854368E-01</totfact>
</mgrwt>
</event>
<event>
12    1  0.1496989E-007  0.2106289E+04  0.7818608E-02  0.8558478E-01
          1   -1    0    0  501    0  0.00000000000E+00  0.00000000000E+00  0.93158479187E+03  0.93158479187E+03  0.00000000000E+00 0. -1.
         -1   -1    0    0    0  501 -0.00000000000E+00 -0.00000000000E+00 -0.11905660289E+04  0.11905660289E+04  0.00000000000E+00 0.  1.
         23    2    1    2    0    0  0.10978000313E+03 -0.47527857440E+03 -0.81553705439E+03  0.95472954129E+03  0.92013246640E+02 0.  0.
        254    2    1    2    0    0 -0.10978000313E+03  0.47527857440E+03  0.55655581735E+03  0.11674212795E+04  0.90287136050E+03 0.  0.
        -24    2    4    4    0    0 -0.32292985349E+03  0.61324098091E+03  0.56880768015E+03  0.90036658541E+03  0.82277701603E+02 0.  0.
         24    2    4    4    0    0  0.21314985036E+03 -0.13796240651E+03 -0.12251862806E+02  0.26705469408E+03  0.81863405554E+02 0.  0.
         11    1    3    3    0    0  0.12618363583E+03 -0.43414159799E+03 -0.74245037013E+03  0.86927198803E+03  0.00000000000E+00 0.  1.
        -11    1    3    3    0    0 -0.16403632703E+02 -0.41136976406E+02 -0.73086684253E+02  0.85457553258E+02  0.00000000000E+00 0. -1.
          2    1    6    6  502    0  0.21471157905E+03 -0.14048753802E+03 -0.22260107353E+01  0.25659845214E+03  0.00000000000E+00 0. -1.
          1    1    5    5  503    0 -0.21951924788E+03  0.39368518618E+03  0.41734185786E+03  0.61428898112E+03  0.00000000000E+00 0. -1.
         -2    1    5    5    0  503 -0.10341060561E+03  0.21955579473E+03  0.15146582229E+03  0.28607760429E+03  0.00000000000E+00 0.  1.
         -1    1    6    6    0  502 -0.15617286967E+01  0.25251315078E+01 -0.10025852070E+02  0.10456241934E+02  0.00000000000E+00 0.  1.
<mgrwt>
<rscale>  0 0.21062889E+04</rscale>
<asrwt>0</asrwt>
<pdfrwt beam="1">  1        1 0.14332074E+00 0.21062889E+04</pdfrwt>
<pdfrwt beam="2">  1       -1 0.18316400E+00 0.21062889E+04</pdfrwt>
<totfact> 0.31137365E+00</totfact>
</mgrwt>
</event>
<event>
12    1  0.1685787E-007  0.1541021E+04  0.7818608E-02  0.8857624E-01
          2   -1    0    0  501    0  0.00000000000E+00  0.00000000000E+00  0.16606435360E+04  0.16606435360E+04  0.00000000000E+00 0. -1.
         -2   -1    0    0    0  501 -0.00000000000E+00 -0.00000000000E+00 -0.35750375313E+03  0.35750375313E+03  0.00000000000E+00 0.  1.
         23    2    1    2    0    0 -0.40692429352E+03 -0.50348734498E+02  0.84112088108E+03  0.94010897208E+03  0.90543730199E+02 0.  0.
        254    2    1    2    0    0  0.40692429352E+03  0.50348734498E+02  0.46201890181E+03  0.10780383171E+04  0.88350595456E+03 0.  0.
        -24    2    4    4    0    0  0.11808720827E+03 -0.36860788637E+03  0.39480789902E+03  0.55867071158E+03  0.80145643655E+02 0.  0.
         24    2    4    4    0    0  0.28883708525E+03  0.41895662086E+03  0.67211002787E+02  0.51936760550E+03  0.79207820082E+02 0.  0.
         11    1    3    3    0    0 -0.23736320431E+02 -0.73637706459E+01  0.16616181636E+02  0.29895409646E+02  0.00000000000E+00 0.  1.
        -11    1    3    3    0    0 -0.38318797309E+03 -0.42984963852E+02  0.82450469944E+03  0.91021356243E+03  0.00000000000E+00 0. -1.
          2    1    6    6  502    0  0.22883861453E+03  0.36845653819E+03  0.36943616062E+02  0.43530697536E+03  0.00000000000E+00 0. -1.
          3    1    5    5  503    0  0.99196996055E+02 -0.35805090185E+03  0.38457891397E+03  0.53473491883E+03  0.00000000000E+00 0. -1.
         -4    1    5    5    0  503  0.18890212212E+02 -0.10556984513E+02  0.10228985058E+02  0.23935792753E+02  0.00000000000E+00 0.  1.
         -1    1    6    6    0  502  0.59998470721E+02  0.50500082677E+02  0.30267386725E+02  0.84060630133E+02  0.00000000000E+00 0.  1.
<mgrwt>
<rscale>  0 0.15410208E+04</rscale>
<asrwt>0</asrwt>
<pdfrwt beam="1">  1        2 0.25548362E+00 0.15410208E+04</pdfrwt>
<pdfrwt beam="2">  1       -2 0.55000578E-01 0.15410208E+04</pdfrwt>
<totfact> 0.30884192E+01</totfact>
</mgrwt>
</event>
<event>
12    1  0.1496989E-007  0.1708650E+04  0.7818608E-02  0.8756446E-01
         -1   -1    0    0    0  501 -0.00000000000E+00  0.00000000000E+00  0.12094536581E+04  0.12094536581E+04  0.00000000000E+00 0.  1.
          1   -1    0    0  501    0  0.00000000000E+00 -0.00000000000E+00 -0.60347160291E+03  0.60347160291E+03  0.00000000000E+00 0. -1.
         23    2    1    2    0    0  0.41746031168E+03 -0.10778481336E+02  0.70657572370E+03  0.82555316454E+03  0.88879056456E+02 0.  0.
        254    2    1    2    0    0 -0.41746031168E+03  0.10778481336E+02 -0.10059366853E+03  0.98737209644E+03  0.88904177809E+03 0.  0.
        -24    2    4    4    0    0 -0.45342792214E+03  0.69728851339E+02 -0.43464683668E+03  0.63703739058E+03  0.80248184296E+02 0.  0.
         24    2    4    4    0    0  0.35967610455E+02 -0.58950370003E+02  0.33405316815E+03  0.35033470586E+03  0.79837784623E+02 0.  0.
         11    1    3    3    0    0  0.75410456650E+02 -0.36277322295E+02  0.15053768911E+03  0.17223349537E+03  0.00000000000E+00 0. -1.
        -11    1    3    3    0    0  0.34204985503E+03  0.25498840958E+02  0.55603803458E+03  0.65331966917E+03  0.00000000000E+00 0.  1.
          2    1    6    6  502    0 -0.16185112132E+02  0.70665589465E+01  0.29572900293E+02  0.34444891374E+02  0.00000000000E+00 0. -1.
          3    1    5    5  503    0 -0.20083122905E+03  0.40935836447E+02 -0.24750981170E+03  0.32135654989E+03  0.00000000000E+00 0. -1.
         -4    1    5    5    0  503 -0.25259669308E+03  0.28793014893E+02 -0.18713702498E+03  0.31568084070E+03  0.00000000000E+00 0.  1.
         -1    1    6    6    0  502  0.52152722587E+02 -0.66016928950E+02  0.30448026786E+03  0.31588981448E+03  0.00000000000E+00 0.  1.
<mgrwt>
<rscale>  0 0.17086497E+04</rscale>
<asrwt>0</asrwt>
<pdfrwt beam="1">  1        1 0.92841785E-01 0.17086497E+04</pdfrwt>
<pdfrwt beam="2">  1       -1 0.18606979E+00 0.17086497E+04</pdfrwt>
<totfact> 0.60821330E+00</totfact>
</mgrwt>
</event>
<event>
12    1  0.1496989E-007  0.1180656E+04  0.7818608E-02  0.9129959E-01
         -2   -1    0    0    0  501 -0.00000000000E+00  0.00000000000E+00  0.94043118008E+02  0.94043118008E+02  0.00000000000E+00 0.  1.
          2   -1    0    0  501    0  0.00000000000E+00 -0.00000000000E+00 -0.37056111912E+04  0.37056111912E+04  0.00000000000E+00 0. -1.
         23    2    1    2    0    0  0.14937254232E+03 -0.74818934997E+02 -0.14956405257E+04  0.15076248412E+04  0.89900224278E+02 0.  0.
        254    2    1    2    0    0 -0.14937254232E+03  0.74818934997E+02 -0.21159275476E+04  0.22920294680E+04  0.86506627865E+03 0.  0.
        -24    2    4    4    0    0 -0.57405991779E+02 -0.38572980322E+03 -0.82317183720E+03  0.91430763774E+03  0.79143249123E+02 0.  0.
         24    2    4    4    0    0 -0.91966550542E+02  0.46054873821E+03 -0.12927557103E+04  0.13777218303E+04  0.79606082502E+02 0.  0.
         11    1    3    3    0    0  0.22398966030E+02 -0.17824551782E+02 -0.64817348845E+03  0.64880528624E+03  0.00000000000E+00 0.  1.
        -11    1    3    3    0    0  0.12697357629E+03 -0.56994383215E+02 -0.84746703721E+03  0.85881955494E+03  0.00000000000E+00 0. -1.
          2    1    6    6  502    0 -0.75520623687E+02  0.35883966477E+03 -0.10944455487E+04  0.11542444839E+04  0.00000000000E+00 0. -1.
          3    1    5    5  503    0 -0.67852876668E+02 -0.22831328705E+03 -0.44971638355E+03  0.50889664525E+03  0.00000000000E+00 0. -1.
         -4    1    5    5    0  503  0.10446884889E+02 -0.15741651617E+03 -0.37345545366E+03  0.40541099249E+03  0.00000000000E+00 0.  1.
         -1    1    6    6    0  502 -0.16445926855E+02  0.10170907344E+03 -0.19831016169E+03  0.22347734641E+03  0.00000000000E+00 0.  1.
<mgrwt>
<rscale>  0 0.11806561E+04</rscale>
<asrwt>0</asrwt>
<pdfrwt beam="1">  1        2 0.57009409E+00 0.11806561E+04</pdfrwt>
<pdfrwt beam="2">  1       -2 0.14468171E-01 0.11806561E+04</pdfrwt>
<totfact> 0.22024725E+01</totfact>
</mgrwt>
</event>
<event>
12    1  0.1496989E-007  0.2396036E+04  0.7818608E-02  0.8440989E-01
         -1   -1    0    0    0  501 -0.00000000000E+00  0.00000000000E+00  0.10038486128E+04  0.10038486128E+04  0.00000000000E+00 0.  1.
          1   -1    0    0  501    0  0.00000000000E+00 -0.00000000000E+00 -0.14297441867E+04  0.14297441867E+04  0.00000000000E+00 0. -1.
         23    2    1    2    0    0 -0.26802507895E+03 -0.10972774350E+03  0.81884868642E+03  0.87374431158E+03  0.95070132737E+02 0.  0.
        254    2    1    2    0    0  0.26802507895E+03  0.10972774350E+03 -0.12447442603E+04  0.15598484879E+04  0.89434971410E+03 0.  0.
        -24    2    4    4    0    0  0.49240403212E+03 -0.37279435014E+02 -0.32041876615E+03  0.59404768041E+03  0.79830907387E+02 0.  0.
         24    2    4    4    0    0 -0.22437895317E+03  0.14700717851E+03 -0.92432549412E+03  0.96580080750E+03  0.80228146673E+02 0.  0.
         11    1    3    3    0    0 -0.17958534627E+03 -0.26540336137E+02  0.44231577954E+03  0.47811979133E+03  0.00000000000E+00 0.  1.
        -11    1    3    3    0    0 -0.88439732680E+02 -0.83187407359E+02  0.37653290688E+03  0.39562452025E+03  0.00000000000E+00 0. -1.
          4    1    6    6  502    0 -0.64864175618E+02  0.88273422357E+02 -0.33548733137E+03  0.35291827366E+03  0.00000000000E+00 0. -1.
          3    1    5    5  503    0  0.32111569773E+03 -0.60403971327E+02 -0.22367087573E+03  0.39597044300E+03  0.00000000000E+00 0. -1.
         -2    1    5    5    0  503  0.17128833439E+03  0.23124536313E+02 -0.96747890411E+02  0.19807723741E+03  0.00000000000E+00 0.  1.
         -3    1    6    6    0  502 -0.15951477756E+03  0.58733756153E+02 -0.58883816275E+03  0.61288253384E+03  0.00000000000E+00 0.  1.
<mgrwt>
<rscale>  0 0.23960357E+04</rscale>
<asrwt>0</asrwt>
<pdfrwt beam="1">  1        1 0.21996064E+00 0.23960357E+04</pdfrwt>
<pdfrwt beam="2">  1       -1 0.15443825E+00 0.23960357E+04</pdfrwt>
<totfact> 0.21157948E+00</totfact>
</mgrwt>
</event>
<event>
12    1  0.1496989E-007  0.2332504E+04  0.7818608E-02  0.8465215E-01
          2   -1    0    0  501    0  0.00000000000E+00  0.00000000000E+00  0.97230630312E+03  0.97230630312E+03  0.00000000000E+00 0. -1.
         -2   -1    0    0    0  501 -0.00000000000E+00 -0.00000000000E+00 -0.13988835888E+04  0.13988835888E+04  0.00000000000E+00 0.  1.
         23    2    1    2    0    0 -0.26294475674E+03 -0.38795721029E+03 -0.10713241259E+04  0.11729400313E+04  0.91663471461E+02 0.  0.
        254    2    1    2    0    0  0.26294475674E+03  0.38795721029E+03  0.64474684023E+03  0.11982498607E+04  0.89468066847E+03 0.  0.
        -24    2    4    4    0    0  0.51142431799E+03  0.14762178346E+03  0.98747890165E+02  0.54719265361E+03  0.79508681054E+02 0.  0.
         24    2    4    4    0    0 -0.24847956125E+03  0.24033542683E+03  0.54599895006E+03  0.65105720708E+03  0.79103878985E+02 0.  0.
         11    1    3    3    0    0 -0.34007013473E+02 -0.21345338808E+02 -0.51486269695E+02  0.65291166487E+02  0.00000000000E+00 0. -1.
        -11    1    3    3    0    0 -0.22893774327E+03 -0.36661187148E+03 -0.10198378562E+04  0.11076488648E+04  0.00000000000E+00 0.  1.
          4    1    6    6  502    0 -0.23766212842E+03  0.24291363193E+03  0.54095861955E+03  0.63884782846E+03  0.00000000000E+00 0. -1.
          1    1    5    5  503    0  0.40775529875E+03  0.83229926847E+02  0.75225449018E+02  0.42290716779E+03  0.00000000000E+00 0. -1.
         -2    1    5    5    0  503  0.10366901924E+03  0.64391856616E+02  0.23522441147E+02  0.12428548582E+03  0.00000000000E+00 0.  1.
         -1    1    6    6    0  502 -0.10817432833E+02 -0.25782051004E+01  0.50403305162E+01  0.12209378622E+02  0.00000000000E+00 0.  1.
<mgrwt>
<rscale>  0 0.23325037E+04</rscale>
<asrwt>0</asrwt>
<pdfrwt beam="1">  1        2 0.14958559E+00 0.23325037E+04</pdfrwt>
<pdfrwt beam="2">  1       -2 0.21521286E+00 0.23325037E+04</pdfrwt>
<totfact> 0.25158651E+00</totfact>
</mgrwt>
</event>
<event>
12    1  0.1496989E-007  0.2466710E+04  0.7818608E-02  0.8414942E-01
          2   -1    0    0  501    0  0.00000000000E+00  0.00000000000E+00  0.22360205276E+04  0.22360205276E+04  0.00000000000E+00 0. -1.
         -2   -1    0    0    0  501 -0.00000000000E+00 -0.00000000000E+00 -0.68030015052E+03  0.68030015052E+03  0.00000000000E+00 0.  1.
         23    2    1    2    0    0 -0.93083937586E+03  0.50202313079E+03  0.81959008993E+03  0.13410548878E+04  0.90615279845E+02 0.  0.
        254    2    1    2    0    0  0.93083937586E+03 -0.50202313079E+03  0.73613028718E+03  0.15752657904E+04  0.90613759616E+03 0.  0.
        -24    2    4    4    0    0  0.62301744417E+03  0.85394731978E+02  0.79155158362E+02  0.63883657203E+03  0.80022688475E+02 0.  0.
         24    2    4    4    0    0  0.30782193169E+03 -0.58741786277E+03  0.65697512882E+03  0.93642921837E+03  0.73954540061E+02 0.  0.
         11    1    3    3    0    0 -0.65523740702E+02  0.10710615822E+02  0.50909328989E+02  0.83665032510E+02  0.00000000000E+00 0.  1.
        -11    1    3    3    0    0 -0.86531563516E+03  0.49131251497E+03  0.76868076094E+03  0.12573898552E+04  0.00000000000E+00 0. -1.
          2    1    6    6  502    0  0.18718209561E+03 -0.41028579328E+03  0.41062968882E+03  0.60990844430E+03  0.00000000000E+00 0. -1.
          3    1    5    5  503    0  0.54889793695E+03  0.92969334657E+02  0.88645983754E+02  0.56372897106E+03  0.00000000000E+00 0. -1.
         -4    1    5    5    0  503  0.74119507222E+02 -0.75746026787E+01 -0.94908253920E+01  0.75107600968E+02  0.00000000000E+00 0.  1.
         -1    1    6    6    0  502  0.12063983608E+03 -0.17713206949E+03  0.24634544000E+03  0.32652077407E+03  0.00000000000E+00 0.  1.
<mgrwt>
<rscale>  0 0.24667104E+04</rscale>
<asrwt>0</asrwt>
<pdfrwt beam="1">  1        2 0.34400316E+00 0.24667104E+04</pdfrwt>
<pdfrwt beam="2">  1       -2 0.10466156E+00 0.24667104E+04</pdfrwt>
<totfact> 0.32644005E+00</totfact>
</mgrwt>
</event>
<event>
12    1  0.1496989E-007  0.1363841E+04  0.7818608E-02  0.8980416E-01
         -1   -1    0    0    0  501 -0.00000000000E+00  0.00000000000E+00  0.23849019126E+03  0.23849019126E+03  0.00000000000E+00 0.  1.
          1   -1    0    0  501    0  0.00000000000E+00 -0.00000000000E+00 -0.19498314907E+04  0.19498314907E+04  0.00000000000E+00 0. -1.
         23    2    1    2    0    0 -0.36263164117E+03  0.10064181093E+03 -0.51108249661E+03  0.64136001295E+03  0.92232676330E+02 0.  0.
        254    2    1    2    0    0  0.36263164117E+03 -0.10064181093E+03 -0.12002588029E+04  0.15469616691E+04  0.90046584074E+03 0.  0.
        -24    2    4    4    0    0  0.26128627560E+03  0.38474950139E+03 -0.63009153554E+03  0.78729281250E+03  0.80696547746E+02 0.  0.
         24    2    4    4    0    0  0.10134536557E+03 -0.48539131233E+03 -0.57016726734E+03  0.75966885655E+03  0.78297188079E+02 0.  0.
         11    1    3    3    0    0 -0.25336558866E+03  0.36704027695E+02 -0.38757477595E+03  0.46449490214E+03  0.00000000000E+00 0. -1.
        -11    1    3    3    0    0 -0.10926605252E+03  0.63937783238E+02 -0.12350772065E+03  0.17686511080E+03  0.00000000000E+00 0.  1.
          4    1    6    6  502    0  0.99474002361E+01 -0.23895104463E+03 -0.27244052613E+03  0.36251950676E+03  0.00000000000E+00 0. -1.
          3    1    5    5  503    0  0.14107114698E+03  0.16040883682E+03 -0.33825201997E+03  0.40005811135E+03  0.00000000000E+00 0. -1.
         -4    1    5    5    0  503  0.12021512862E+03  0.22434066458E+03 -0.29183951557E+03  0.38723470116E+03  0.00000000000E+00 0.  1.
         -3    1    6    6    0  502  0.91397965334E+02 -0.24644026770E+03 -0.29772674120E+03  0.39714934979E+03  0.00000000000E+00 0.  1.
<mgrwt>
<rscale>  0 0.13638412E+04</rscale>
<asrwt>0</asrwt>
<pdfrwt beam="1">  1        1 0.29997407E+00 0.13638412E+04</pdfrwt>
<pdfrwt beam="2">  1       -1 0.36690799E-01 0.13638412E+04</pdfrwt>
<totfact> 0.22481419E+01</totfact>
</mgrwt>
</event>
<event>
12    1  0.1496989E-007  0.2482290E+04  0.7818608E-02  0.8409322E-01
         -2   -1    0    0    0  501 -0.00000000000E+00  0.00000000000E+00  0.54323491323E+03  0.54323491323E+03  0.00000000000E+00 0. -1.
          2   -1    0    0  501    0  0.00000000000E+00 -0.00000000000E+00 -0.28356798742E+04  0.28356798742E+04  0.00000000000E+00 0.  1.
         23    2    1    2    0    0  0.36924148857E+03 -0.10010355757E+04 -0.11490076208E+04  0.15704892882E+04  0.88354916280E+02 0.  0.
        254    2    1    2    0    0 -0.36924148857E+03  0.10010355757E+04 -0.11434373401E+04  0.18084254992E+04  0.90804313476E+03 0.  0.
        -24    2    4    4    0    0 -0.46246079018E+03  0.10362483555E+03 -0.27596559341E+03  0.55430848328E+03  0.80577893357E+02 0.  0.
         24    2    4    4    0    0  0.93219301615E+02  0.89741074010E+03 -0.86747174673E+03  0.12541170159E+04  0.79160491958E+02 0.  0.
         11    1    3    3    0    0  0.25995821347E+03 -0.63405504086E+03 -0.68564147953E+03  0.96938553014E+03  0.00000000000E+00 0. -1.
        -11    1    3    3    0    0  0.10928327509E+03 -0.36698053479E+03 -0.46336614126E+03  0.60110375810E+03  0.00000000000E+00 0.  1.
          4    1    6    6  502    0  0.10102100827E+03  0.85984791959E+03 -0.84433416526E+03  0.12093154558E+04  0.00000000000E+00 0. -1.
          1    1    5    5  503    0 -0.43074305030E+03  0.11391593179E+03 -0.26828572991E+03  0.52009003814E+03  0.00000000000E+00 0. -1.
         -4    1    5    5    0  503 -0.31717739877E+02 -0.10291096239E+02 -0.76798635018E+01  0.34218445144E+02  0.00000000000E+00 0.  1.
         -3    1    6    6    0  502 -0.78017066592E+01  0.37562820506E+02 -0.23137581465E+02  0.44801560098E+02  0.00000000000E+00 0.  1.
<mgrwt>
<rscale>  0 0.24822895E+04</rscale>
<asrwt>0</asrwt>
<pdfrwt beam="1">  1        2 0.43625845E+00 0.24822895E+04</pdfrwt>
<pdfrwt beam="2">  1       -2 0.83574601E-01 0.24822895E+04</pdfrwt>
<totfact> 0.24603893E+00</totfact>
</mgrwt>
</event>
<event>
12    1  0.1496989E-007  0.1138785E+04  0.7818608E-02  0.9168193E-01
          1   -1    0    0  501    0  0.00000000000E+00  0.00000000000E+00  0.64798907689E+03  0.64798907689E+03  0.00000000000E+00 0. -1.
         -1   -1    0    0    0  501 -0.00000000000E+00 -0.00000000000E+00 -0.50032911943E+03  0.50032911943E+03  0.00000000000E+00 0.  1.
         23    2    1    2    0    0 -0.10894486755E+03 -0.40323473054E+02 -0.16343789511E+03  0.21952475335E+03  0.89354379452E+02 0.  0.
        254    2    1    2    0    0  0.10894486755E+03  0.40323473054E+02  0.31109785257E+03  0.92879344297E+03  0.86739865067E+03 0.  0.
        -24    2    4    4    0    0 -0.21943722808E+03 -0.21744625107E+03  0.38246862295E+03  0.49841973323E+03  0.81880484611E+02 0.  0.
         24    2    4    4    0    0  0.32838209564E+03  0.25776972412E+03 -0.71370770380E+02  0.43037370973E+03  0.76470332531E+02 0.  0.
         11    1    3    3    0    0 -0.87291821900E+02 -0.98971752546E+01 -0.52208562094E+02  0.10219368965E+03  0.00000000000E+00 0.  1.
        -11    1    3    3    0    0 -0.21653045655E+02 -0.30426297800E+02 -0.11122933302E+03  0.11733106370E+03  0.00000000000E+00 0. -1.
          4    1    6    6  502    0  0.32785938556E+03  0.26107465412E+03 -0.66331734329E+02  0.42432493528E+03  0.00000000000E+00 0. -1.
          3    1    5    5  503    0 -0.17006175374E+03 -0.16895541358E+03  0.23586280521E+03  0.33630075044E+03  0.00000000000E+00 0. -1.
         -4    1    5    5    0  503 -0.49375474342E+02 -0.48490837491E+02  0.14660581774E+03  0.16211898280E+03  0.00000000000E+00 0.  1.
         -3    1    6    6    0  502  0.52271008083E+00 -0.33049299954E+01 -0.50390360512E+01  0.60487744567E+01  0.00000000000E+00 0.  1.
<mgrwt>
<rscale>  0 0.11387850E+04</rscale>
<asrwt>0</asrwt>
<pdfrwt beam="1">  1        1 0.99690628E-01 0.11387850E+04</pdfrwt>
<pdfrwt beam="2">  1       -1 0.76973710E-01 0.11387850E+04</pdfrwt>
<totfact> 0.51507539E+01</totfact>
</mgrwt>
</event>
<event>
12    1  0.1496989E-007  0.1167790E+04  0.7818608E-02  0.9141526E-01
         -1   -1    0    0    0  501 -0.00000000000E+00  0.00000000000E+00  0.14985432992E+03  0.14985432992E+03  0.00000000000E+00 0.  1.
          1   -1    0    0  501    0  0.00000000000E+00 -0.00000000000E+00 -0.22750998545E+04  0.22750998545E+04  0.00000000000E+00 0. -1.
         23    2    1    2    0    0  0.10852465414E+03  0.57627323439E+02 -0.80325215868E+03  0.81767118224E+03  0.90959457358E+02 0.  0.
        254    2    1    2    0    0 -0.10852465414E+03 -0.57627323439E+02 -0.13219933659E+04  0.16072830022E+04  0.90586625979E+03 0.  0.
        -24    2    4    4    0    0 -0.46544192551E+03 -0.15856941446E+03 -0.96464024334E+03  0.10855948863E+04  0.78771904393E+02 0.  0.
         24    2    4    4    0    0  0.35691727137E+03  0.10094209103E+03 -0.35735312255E+03  0.52168811584E+03  0.82933658215E+02 0.  0.
         13    1    3    3    0    0  0.12267228105E+03  0.38871083634E+02 -0.70510238558E+03  0.71674878712E+03  0.00000000000E+00 0. -1.
        -13    1    3    3    0    0 -0.14147626906E+02  0.18756239805E+02 -0.98149773096E+02  0.10092239512E+03  0.00000000000E+00 0.  1.
          2    1    6    6  502    0  0.10330178686E+02  0.11885669614E+01  0.40080247240E+01  0.11144036311E+02  0.00000000000E+00 0. -1.
          1    1    5    5  503    0 -0.24354614825E+03 -0.11111336296E+03 -0.58440164569E+03  0.64279560456E+03  0.00000000000E+00 0. -1.
         -2    1    5    5    0  503 -0.22189577727E+03 -0.47456051501E+02 -0.38023859765E+03  0.44279928177E+03  0.00000000000E+00 0.  1.
         -1    1    6    6    0  502  0.34658709269E+03  0.99753524064E+02 -0.36136114728E+03  0.51054407953E+03  0.00000000000E+00 0.  1.
<mgrwt>
<rscale>  0 0.11677903E+04</rscale>
<asrwt>0</asrwt>
<pdfrwt beam="1">  1        1 0.35001533E+00 0.11677903E+04</pdfrwt>
<pdfrwt beam="2">  1       -1 0.23054514E-01 0.11677903E+04</pdfrwt>
<totfact> 0.31034100E+01</totfact>
</mgrwt>
</event>
<event>
12    1  0.1496989E-007  0.1389131E+04  0.7818608E-02  0.8961724E-01
         -1   -1    0    0    0  501 -0.00000000000E+00  0.00000000000E+00  0.17839782959E+03  0.17839782959E+03  0.00000000000E+00 0.  1.
          1   -1    0    0  501    0  0.00000000000E+00 -0.00000000000E+00 -0.27041880643E+04  0.27041880643E+04  0.00000000000E+00 0. -1.
         23    2    1    2    0    0  0.33729229723E+03 -0.19153172897E+03 -0.53859670571E+03  0.66996312734E+03  0.91179403477E+02 0.  0.
        254    2    1    2    0    0 -0.33729229723E+03  0.19153172897E+03 -0.19871935290E+04  0.22126227665E+04  0.89236253192E+03 0.  0.
        -24    2    4    4    0    0  0.21352279098E+03  0.13772698142E+02 -0.12524265542E+04  0.12736131079E+04  0.87956839288E+02 0.  0.
         24    2    4    4    0    0 -0.55081508821E+03  0.17775903083E+03 -0.73476697480E+03  0.93900965860E+03  0.82831740595E+02 0.  0.
         13    1    3    3    0    0  0.22317591622E+03 -0.13030295700E+03 -0.28179232855E+03  0.38235228078E+03  0.00000000000E+00 0. -1.
        -13    1    3    3    0    0  0.11411638100E+03 -0.61228771964E+02 -0.25680437716E+03  0.28761084656E+03  0.00000000000E+00 0.  1.
          2    1    6    6  502    0 -0.18837624638E+03  0.20136231191E+02 -0.23617288265E+03  0.30276840738E+03  0.00000000000E+00 0. -1.
          3    1    5    5  503    0  0.20264784114E+02  0.21799353392E+02 -0.31723118663E+03  0.31862438553E+03  0.00000000000E+00 0. -1.
         -2    1    5    5    0  503  0.19325800687E+03 -0.80266552502E+01 -0.93519536756E+03  0.95498872240E+03  0.00000000000E+00 0.  1.
         -1    1    6    6    0  502 -0.36243884183E+03  0.15762279963E+03 -0.49859409215E+03  0.63624125122E+03  0.00000000000E+00 0.  1.
<mgrwt>
<rscale>  0 0.13891311E+04</rscale>
<asrwt>0</asrwt>
<pdfrwt beam="1">  1        1 0.41602897E+00 0.13891311E+04</pdfrwt>
<pdfrwt beam="2">  1       -1 0.27445817E-01 0.13891311E+04</pdfrwt>
<totfact> 0.11399021E+01</totfact>
</mgrwt>
</event>
<event>
12    1  0.1496989E-007  0.2154946E+04  0.7818608E-02  0.8537418E-01
          2   -1    0    0  501    0  0.00000000000E+00  0.00000000000E+00  0.35352893622E+04  0.35352893622E+04  0.00000000000E+00 0. -1.
         -2   -1    0    0    0  501 -0.00000000000E+00 -0.00000000000E+00 -0.32838848375E+03  0.32838848375E+03  0.00000000000E+00 0.  1.
         23    2    1    2    0    0 -0.50241648346E+03 -0.21410614789E+03  0.25848344037E+04  0.26433358916E+04  0.87131945244E+02 0.  0.
        254    2    1    2    0    0  0.50241648346E+03  0.21410614789E+03  0.62206647479E+03  0.12203419544E+04  0.89666271316E+03 0.  0.
        -24    2    4    4    0    0  0.12467011716E+03  0.32489088951E+03 -0.11978091015E+03  0.37674303701E+03  0.80567495326E+02 0.  0.
         24    2    4    4    0    0  0.37774636630E+03 -0.11078474161E+03  0.74184738495E+03  0.84359891738E+03  0.79724617488E+02 0.  0.
         11    1    3    3    0    0 -0.29546582818E+03 -0.79358750227E+02  0.14610603536E+04  0.14927475418E+04  0.00000000000E+00 0. -1.
        -11    1    3    3    0    0 -0.20695065528E+03 -0.13474739766E+03  0.11237740501E+04  0.11505883497E+04  0.00000000000E+00 0.  1.
          2    1    6    6  502    0  0.23519837005E+02 -0.10121889721E+01  0.15881290456E+02  0.28397581689E+02  0.00000000000E+00 0. -1.
          3    1    5    5  503    0  0.78741974921E+02  0.26246651234E+03 -0.64400039621E+02  0.28148949149E+03  0.00000000000E+00 0. -1.
         -4    1    5    5    0  503  0.45928142238E+02  0.62424377163E+02 -0.55380870531E+02  0.95253545521E+02  0.00000000000E+00 0.  1.
         -1    1    6    6    0  502  0.35422652929E+03 -0.10977255264E+03  0.72596609449E+03  0.81520133569E+03  0.00000000000E+00 0.  1.
<mgrwt>
<rscale>  0 0.21549462E+04</rscale>
<asrwt>0</asrwt>
<pdfrwt beam="1">  1        2 0.54389064E+00 0.21549462E+04</pdfrwt>
<pdfrwt beam="2">  1       -2 0.50521308E-01 0.21549462E+04</pdfrwt>
<totfact> 0.26205950E+00</totfact>
</mgrwt>
</event>
<event>
12    1  0.2406851E-007  0.1393578E+04  0.7818608E-02  0.8958480E-01
          2   -1    0    0  501    0  0.00000000000E+00  0.00000000000E+00  0.91553517109E+03  0.91553517109E+03  0.00000000000E+00 0. -1.
         -2   -1    0    0    0  501 -0.00000000000E+00 -0.00000000000E+00 -0.53030743917E+03  0.53030743917E+03  0.00000000000E+00 0.  1.
         23    2    1    2    0    0 -0.31327459656E+02  0.16781309400E+03  0.48890623188E+03  0.52558138310E+03  0.89798900022E+02 0.  0.
        254    2    1    2    0    0  0.31327459656E+02 -0.16781309400E+03 -0.10367849995E+03  0.92026122716E+03  0.89832558164E+03 0.  0.
        -24    2    4    4    0    0  0.23503064700E+03  0.29865627633E+03  0.25784756808E+02  0.38896092097E+03  0.78681433257E+02 0.  0.
         24    2    4    4    0    0 -0.20370318734E+03 -0.46646937033E+03 -0.12946325676E+03  0.53130030619E+03  0.80191137392E+02 0.  0.
         13    1    3    3    0    0 -0.13232967936E+01  0.49222986222E+01 -0.34216130846E+01  0.61390206247E+01  0.00000000000E+00 0.  1.
        -13    1    3    3    0    0 -0.30004162862E+02  0.16289079538E+03  0.49232784496E+03  0.51944236247E+03  0.00000000000E+00 0. -1.
          4    1    6    6  502    0 -0.17192827679E+03 -0.36862276003E+03 -0.13420567452E+03  0.42831441097E+03  0.00000000000E+00 0. -1.
          1    1    5    5  503    0  0.17223600425E+03  0.19120612160E+03  0.50049220047E+02  0.26216396878E+03  0.00000000000E+00 0. -1.
         -2    1    5    5    0  503  0.62794642745E+02  0.10745015473E+03 -0.24264463239E+02  0.12679695219E+03  0.00000000000E+00 0.  1.
         -3    1    6    6    0  502 -0.31774910553E+02 -0.97846610306E+02  0.47424177564E+01  0.10298589522E+03  0.00000000000E+00 0.  1.
<mgrwt>
<rscale>  0 0.13935783E+04</rscale>
<asrwt>0</asrwt>
<pdfrwt beam="1">  1        2 0.14085156E+00 0.13935783E+04</pdfrwt>
<pdfrwt beam="2">  1       -2 0.81585760E-01 0.13935783E+04</pdfrwt>
<totfact> 0.36869110E+01</totfact>
</mgrwt>
</event>
<event>
12    1  0.1496989E-007  0.1785761E+04  0.7818608E-02  0.8713908E-01
          2   -1    0    0  501    0  0.00000000000E+00  0.00000000000E+00  0.13811989452E+04  0.13811989452E+04  0.00000000000E+00 0. -1.
         -2   -1    0    0    0  501 -0.00000000000E+00 -0.00000000000E+00 -0.57720569443E+03  0.57720569443E+03  0.00000000000E+00 0.  1.
         23    2    1    2    0    0 -0.46602842852E+03 -0.37808758086E+03 -0.77033741780E+01  0.60679325537E+03  0.89476241578E+02 0.  0.
        254    2    1    2    0    0  0.46602842852E+03  0.37808758086E+03  0.81169662494E+03  0.13516113843E+04  0.89881544719E+03 0.  0.
        -24    2    4    4    0    0  0.11564873953E+03  0.42939541420E+03 -0.12337508406E+02  0.45113763267E+03  0.74952630466E+02 0.  0.
         24    2    4    4    0    0  0.35037968898E+03 -0.51307833334E+02  0.82403413335E+03  0.90047375158E+03  0.80139279632E+02 0.  0.
         13    1    3    3    0    0 -0.35003226540E+03 -0.23964091851E+03  0.16704239496E+02  0.42453431930E+03  0.00000000000E+00 0.  1.
        -13    1    3    3    0    0 -0.11599616311E+03 -0.13844666235E+03 -0.24407613674E+02  0.18225893607E+03  0.00000000000E+00 0. -1.
          4    1    6    6  502    0 -0.23834654703E+01 -0.58770224770E+01  0.26073083468E+02  0.26833299879E+02  0.00000000000E+00 0. -1.
          3    1    5    5  503    0 -0.37872715183E+01  0.57037420593E+02 -0.18385102741E+02  0.60046838187E+02  0.00000000000E+00 0. -1.
         -2    1    5    5    0  503  0.11943601105E+03  0.37235799360E+03  0.60475943356E+01  0.39109079449E+03  0.00000000000E+00 0.  1.
         -3    1    6    6    0  502  0.35276315445E+03 -0.45430810857E+02  0.79796104988E+03  0.87364045170E+03  0.00000000000E+00 0.  1.
<mgrwt>
<rscale>  0 0.17857613E+04</rscale>
<asrwt>0</asrwt>
<pdfrwt beam="1">  1        2 0.21249214E+00 0.17857613E+04</pdfrwt>
<pdfrwt beam="2">  1       -2 0.88800877E-01 0.17857613E+04</pdfrwt>
<totfact> 0.15284165E+01</totfact>
</mgrwt>
</event>
<event>
12    1  0.1496989E-007  0.1743403E+04  0.7818608E-02  0.8736990E-01
          2   -1    0    0  501    0  0.00000000000E+00  0.00000000000E+00  0.27661881704E+04  0.27661881704E+04  0.00000000000E+00 0. -1.
         -2   -1    0    0    0  501 -0.00000000000E+00 -0.00000000000E+00 -0.27469692107E+03  0.27469692107E+03  0.00000000000E+00 0.  1.
         23    2    1    2    0    0 -0.47963123137E+03 -0.26946097604E+03  0.14470248438E+04  0.15508366013E+04  0.92509078378E+02 0.  0.
        254    2    1    2    0    0  0.47963123137E+03  0.26946097604E+03  0.10444664056E+04  0.14900484902E+04  0.90921894786E+03 0.  0.
        -24    2    4    4    0    0  0.53614468941E+03 -0.59254915040E+02  0.20407923354E+03  0.58214091187E+03  0.79230264233E+02 0.  0.
         24    2    4    4    0    0 -0.56513458045E+02  0.32871589108E+03  0.84038717202E+03  0.90790757834E+03  0.82447946828E+02 0.  0.
         11    1    3    3    0    0 -0.25311619092E+03 -0.16894579887E+03  0.90632487364E+03  0.95605191577E+03  0.00000000000E+00 0. -1.
        -11    1    3    3    0    0 -0.22651504044E+03 -0.10051517717E+03  0.54069997015E+03  0.59478468551E+03  0.00000000000E+00 0.  1.
          2    1    6    6  502    0 -0.22839839637E+01  0.60202154223E+00  0.54492373088E+02  0.54543539832E+02  0.00000000000E+00 0. -1.
          3    1    5    5  503    0  0.16488135409E+03 -0.41469751192E+02  0.33980777169E+02  0.17337904835E+03  0.00000000000E+00 0. -1.
         -4    1    5    5    0  503  0.37126333532E+03 -0.17785163849E+02  0.17009845637E+03  0.40876186352E+03  0.00000000000E+00 0.  1.
         -1    1    6    6    0  502 -0.54229474082E+02  0.32811386954E+03  0.78589479893E+03  0.85336403851E+03  0.00000000000E+00 0.  1.
<mgrwt>
<rscale>  0 0.17434028E+04</rscale>
<asrwt>0</asrwt>
<pdfrwt beam="1">  1        2 0.42556739E+00 0.17434028E+04</pdfrwt>
<pdfrwt beam="2">  1       -2 0.42261067E-01 0.17434028E+04</pdfrwt>
<totfact> 0.12232277E+01</totfact>
</mgrwt>
</event>
<event>
12    1  0.1496989E-007  0.1666560E+04  0.7818608E-02  0.8780669E-01
          2   -1    0    0  501    0  0.00000000000E+00  0.00000000000E+00  0.89744369750E+03  0.89744369750E+03  0.00000000000E+00 0. -1.
         -2   -1    0    0    0  501 -0.00000000000E+00 -0.00000000000E+00 -0.77370411134E+03  0.77370411134E+03  0.00000000000E+00 0.  1.
         23    2    1    2    0    0  0.31337516237E+03  0.47621188080E+03  0.39172282112E+01  0.57797805067E+03  0.95192093019E+02 0.  0.
        254    2    1    2    0    0 -0.31337516237E+03 -0.47621188080E+03  0.11982235795E+03  0.10931697582E+04  0.92503025623E+03 0.  0.
        -24    2    4    4    0    0  0.12918486376E+03 -0.59977075225E+03  0.36752498000E+02  0.61969214573E+03  0.79081762015E+02 0.  0.
         24    2    4    4    0    0 -0.44256002613E+03  0.12355887146E+03  0.83069859948E+02  0.47347761245E+03  0.78449196408E+02 0.  0.
         11    1    3    3    0    0  0.20281291565E+03  0.29858697590E+03 -0.43156222012E+02  0.36352403006E+03  0.00000000000E+00 0. -1.
        -11    1    3    3    0    0  0.11056224672E+03  0.17762490490E+03  0.47073450223E+02  0.21445402061E+03  0.00000000000E+00 0.  1.
          4    1    6    6  502    0 -0.14237021770E+02  0.19713239980E+02  0.11770941296E+02  0.27015915280E+02  0.00000000000E+00 0. -1.
          1    1    5    5  503    0  0.38489038391E+02 -0.34014564011E+03  0.40130730403E+02  0.34466061290E+03  0.00000000000E+00 0. -1.
         -2    1    5    5    0  503  0.90695825370E+02 -0.25962511214E+03 -0.33782324030E+01  0.27503153283E+03  0.00000000000E+00 0.  1.
         -3    1    6    6    0  502 -0.42832300436E+03  0.10384563148E+03  0.71298918652E+02  0.44646169717E+03  0.00000000000E+00 0.  1.
<mgrwt>
<rscale>  0 0.16665604E+04</rscale>
<asrwt>0</asrwt>
<pdfrwt beam="1">  1        2 0.13806826E+00 0.16665604E+04</pdfrwt>
<pdfrwt beam="2">  1       -2 0.11903140E+00 0.16665604E+04</pdfrwt>
<totfact> 0.15217104E+01</totfact>
</mgrwt>
</event>
<event>
12    1  0.1496989E-007  0.2631248E+04  0.7818608E-02  0.8357664E-01
          1   -1    0    0  501    0  0.00000000000E+00  0.00000000000E+00  0.17954742554E+04  0.17954742554E+04  0.00000000000E+00 0. -1.
         -1   -1    0    0    0  501 -0.00000000000E+00 -0.00000000000E+00 -0.96401620415E+03  0.96401620415E+03  0.00000000000E+00 0.  1.
         23    2    1    2    0    0 -0.17713884786E+03  0.55301089076E+02  0.15720440740E+04  0.15854927805E+04  0.89601365217E+02 0.  0.
        254    2    1    2    0    0  0.17713884786E+03 -0.55301089076E+02 -0.74058602275E+03  0.11739976790E+04  0.89183323071E+03 0.  0.
        -24    2    4    4    0    0 -0.67431143608E+02  0.10825689988E+03  0.16237265238E+03  0.22101952445E+03  0.78855795278E+02 0.  0.
         24    2    4    4    0    0  0.24456999146E+03 -0.16355798895E+03 -0.90295867513E+03  0.95297815457E+03  0.79166265759E+02 0.  0.
         13    1    3    3    0    0 -0.17401453066E+03  0.42281204030E+02  0.12078816663E+04  0.12210843038E+04  0.00000000000E+00 0. -1.
        -13    1    3    3    0    0 -0.31243171953E+01  0.13019885046E+02  0.36416240772E+03  0.36440847679E+03  0.00000000000E+00 0.  1.
          4    1    6    6  502    0  0.13704582295E+03 -0.87650563007E+02 -0.37321328680E+03  0.40712692889E+03  0.00000000000E+00 0. -1.
          3    1    5    5  503    0 -0.68082599424E+02  0.80535060101E+02  0.75146597713E+02  0.12949188159E+03  0.00000000000E+00 0. -1.
         -4    1    5    5    0  503  0.65145581638E+00  0.27721839776E+02  0.87226054665E+02  0.91527642861E+02  0.00000000000E+00 0.  1.
         -3    1    6    6    0  502  0.10752416852E+03 -0.75907425945E+02 -0.52974538832E+03  0.54585122568E+03  0.00000000000E+00 0.  1.
<mgrwt>
<rscale>  0 0.26312478E+04</rscale>
<asrwt>0</asrwt>
<pdfrwt beam="1">  1        1 0.27622681E+00 0.26312478E+04</pdfrwt>
<pdfrwt beam="2">  1       -1 0.14831019E+00 0.26312478E+04</pdfrwt>
<totfact> 0.12963116E+00</totfact>
</mgrwt>
</event>
<event>
12    1  0.1496989E-007  0.2194374E+04  0.7818608E-02  0.8520773E-01
         -2   -1    0    0    0  501 -0.00000000000E+00  0.00000000000E+00  0.97667377811E+03  0.97667377811E+03  0.00000000000E+00 0.  1.
          2   -1    0    0  501    0  0.00000000000E+00 -0.00000000000E+00 -0.12325708542E+04  0.12325708542E+04  0.00000000000E+00 0. -1.
         23    2    1    2    0    0 -0.37571051773E+03  0.75492407990E+03  0.24325683097E+03  0.88236221475E+03  0.91216405691E+02 0.  0.
        254    2    1    2    0    0  0.37571051773E+03 -0.75492407990E+03 -0.49915390704E+03  0.13268824175E+04  0.89464717487E+03 0.  0.
        -24    2    4    4    0    0  0.51059165283E+03 -0.29631345722E+03 -0.58434925977E+03  0.83447434531E+03  0.79861597232E+02 0.  0.
         24    2    4    4    0    0 -0.13488113511E+03 -0.45861062268E+03  0.85195352728E+02  0.49240807223E+03  0.81797540461E+02 0.  0.
         11    1    3    3    0    0 -0.20459586529E+03  0.48261432386E+03  0.18258528640E+03  0.55507967041E+03  0.00000000000E+00 0.  1.
        -11    1    3    3    0    0 -0.17111465244E+03  0.27230975604E+03  0.60671544563E+02  0.32728254434E+03  0.00000000000E+00 0. -1.
          2    1    6    6  502    0 -0.68953248028E+02 -0.32390616330E+03  0.29685454150E+02  0.33249207393E+03  0.00000000000E+00 0. -1.
          1    1    5    5  503    0  0.23352062794E+03 -0.90064658855E+02 -0.24934679546E+03  0.35329499127E+03  0.00000000000E+00 0. -1.
         -2    1    5    5    0  503  0.27707102489E+03 -0.20624879837E+03 -0.33500246431E+03  0.48117935404E+03  0.00000000000E+00 0.  1.
         -1    1    6    6    0  502 -0.65927887077E+02 -0.13470445938E+03  0.55509898579E+02  0.15991599829E+03  0.00000000000E+00 0.  1.
<mgrwt>
<rscale>  0 0.21943743E+04</rscale>
<asrwt>0</asrwt>
<pdfrwt beam="1">  1        2 0.18962628E+00 0.21943743E+04</pdfrwt>
<pdfrwt beam="2">  1       -2 0.15025751E+00 0.21943743E+04</pdfrwt>
<totfact> 0.49407298E+00</totfact>
</mgrwt>
</event>
<event>
12    1  0.1496989E-007  0.1259074E+04  0.7818608E-02  0.9062665E-01
          1   -1    0    0  501    0  0.00000000000E+00  0.00000000000E+00  0.12162433169E+04  0.12162433169E+04  0.00000000000E+00 0. -1.
         -1   -1    0    0    0  501 -0.00000000000E+00 -0.00000000000E+00 -0.32585321542E+03  0.32585321542E+03  0.00000000000E+00 0.  1.
         23    2    1    2    0    0 -0.62314400610E+02 -0.31023272552E+02 -0.13310191467E+03  0.17562058408E+03  0.90999680779E+02 0.  0.
        254    2    1    2    0    0  0.62314400610E+02  0.31023272552E+02  0.10234920161E+04  0.13664759482E+04  0.90270431594E+03 0.  0.
        -24    2    4    4    0    0 -0.15205405002E+03 -0.14830462621E+03 -0.67983199502E+02  0.23702367289E+03  0.80273344347E+02 0.  0.
         24    2    4    4    0    0  0.21436845063E+03  0.17932789876E+03  0.10914752156E+04  0.11294522753E+04  0.78942814771E+02 0.  0.
         11    1    3    3    0    0 -0.61238253409E+02  0.89061197112E+01 -0.11738135308E+03  0.13269447879E+03  0.00000000000E+00 0.  1.
        -11    1    3    3    0    0 -0.10761472012E+01 -0.39929392263E+02 -0.15720561586E+02  0.42926105296E+02  0.00000000000E+00 0. -1.
          4    1    6    6  502    0  0.49687254247E+01  0.30262371212E+02  0.17259420121E+03  0.17529762587E+03  0.00000000000E+00 0. -1.
          3    1    5    5  503    0 -0.24644894496E+02 -0.89435831747E+01 -0.37498086206E+02  0.45754398410E+02  0.00000000000E+00 0. -1.
         -4    1    5    5    0  503 -0.12740915552E+03 -0.13936104304E+03 -0.30485113296E+02  0.19126927448E+03  0.00000000000E+00 0.  1.
         -3    1    6    6    0  502  0.20939972521E+03  0.14906552755E+03  0.91888101443E+03  0.95415464947E+03  0.00000000000E+00 0.  1.
<mgrwt>
<rscale>  0 0.12590739E+04</rscale>
<asrwt>0</asrwt>
<pdfrwt beam="1">  1        1 0.18711435E+00 0.12590739E+04</pdfrwt>
<pdfrwt beam="2">  1       -1 0.50131265E-01 0.12590739E+04</pdfrwt>
<totfact> 0.40914105E+01</totfact>
</mgrwt>
</event>
<event>
12    1  0.1496989E-007  0.1383160E+04  0.7818608E-02  0.8966100E-01
          2   -1    0    0  501    0  0.00000000000E+00  0.00000000000E+00  0.14709249252E+04  0.14709249252E+04  0.00000000000E+00 0. -1.
         -2   -1    0    0    0  501 -0.00000000000E+00 -0.00000000000E+00 -0.32515770860E+03  0.32515770860E+03  0.00000000000E+00 0.  1.
         23    2    1    2    0    0  0.15050616989E+03 -0.48617354012E+02 -0.12854703477E+03  0.22646633501E+03  0.98726422306E+02 0.  0.
        254    2    1    2    0    0 -0.15050616989E+03  0.48617354012E+02  0.12743142513E+04  0.15696162988E+04  0.90266425646E+03 0.  0.
        -24    2    4    4    0    0 -0.10852740396E+03  0.46285565078E+03  0.78904527798E+03  0.92490814197E+03  0.82759105282E+02 0.  0.
         24    2    4    4    0    0 -0.41978765929E+02 -0.41423829676E+03  0.48526897335E+03  0.64470815679E+03  0.82504834051E+02 0.  0.
         13    1    3    3    0    0  0.91129210245E+02 -0.53204463443E+02 -0.12931688961E+03  0.16690747685E+03  0.00000000000E+00 0.  1.
        -13    1    3    3    0    0  0.59376959644E+02  0.45871094302E+01  0.76985484130E+00  0.59558858165E+02  0.00000000000E+00 0. -1.
          2    1    6    6  502    0 -0.53262258427E+02 -0.38188840870E+03  0.46787026783E+03  0.60628228771E+03  0.00000000000E+00 0. -1.
          1    1    5    5  503    0 -0.54595932354E+02  0.22303157430E+03  0.30232627888E+03  0.37963795630E+03  0.00000000000E+00 0. -1.
         -2    1    5    5    0  503 -0.53931471606E+02  0.23982407647E+03  0.48671899911E+03  0.54527018566E+03  0.00000000000E+00 0.  1.
         -1    1    6    6    0  502  0.11283492498E+02 -0.32349888067E+02  0.17398705518E+02  0.38425869080E+02  0.00000000000E+00 0.  1.
<mgrwt>
<rscale>  0 0.13831595E+04</rscale>
<asrwt>0</asrwt>
<pdfrwt beam="1">  1        2 0.22629614E+00 0.13831595E+04</pdfrwt>
<pdfrwt beam="2">  1       -2 0.50024264E-01 0.13831595E+04</pdfrwt>
<totfact> 0.48559648E+01</totfact>
</mgrwt>
</event>
<event>
12    1  0.1496989E-007  0.2162611E+04  0.7818608E-02  0.8534153E-01
         -2   -1    0    0    0  501 -0.00000000000E+00  0.00000000000E+00  0.87512934225E+03  0.87512934225E+03  0.00000000000E+00 0.  1.
          2   -1    0    0  501    0  0.00000000000E+00 -0.00000000000E+00 -0.13360561878E+04  0.13360561878E+04  0.00000000000E+00 0. -1.
         23    2    1    2    0    0 -0.25537605918E+03  0.26429210724E+03  0.63714552730E+03  0.74123749714E+03  0.91713437671E+02 0.  0.
        254    2    1    2    0    0  0.25537605918E+03 -0.26429210724E+03 -0.10980723729E+04  0.14699480329E+04  0.90549270228E+03 0.  0.
        -24    2    4    4    0    0  0.82177173482E+02 -0.18314743304E+03 -0.12136954175E+04  0.12327085274E+04  0.78852248147E+02 0.  0.
         24    2    4    4    0    0  0.17319888570E+03 -0.81144674205E+02  0.11562304467E+03  0.23723950547E+03  0.79571240649E+02 0.  0.
         13    1    3    3    0    0 -0.36414814101E+02  0.84539622927E+02  0.20223205300E+03  0.22219538652E+03  0.00000000000E+00 0. -1.
        -13    1    3    3    0    0 -0.21896124508E+03  0.17975248432E+03  0.43491347430E+03  0.51904211062E+03  0.00000000000E+00 0.  1.
          2    1    6    6  502    0 -0.72260550588E+01 -0.11854678653E+02  0.79104813235E+01  0.15978892091E+02  0.00000000000E+00 0. -1.
          3    1    5    5  503    0  0.26125028999E+02 -0.14918645459E+02 -0.84950750029E+02  0.90120547341E+02  0.00000000000E+00 0. -1.
         -4    1    5    5    0  503  0.56052144483E+02 -0.16822878758E+03 -0.11287446675E+04  0.11425879801E+04  0.00000000000E+00 0.  1.
         -1    1    6    6    0  502  0.18042494076E+03 -0.69289995553E+02  0.10771256335E+03  0.22126061338E+03  0.00000000000E+00 0.  1.
<mgrwt>
<rscale>  0 0.21626114E+04</rscale>
<asrwt>0</asrwt>
<pdfrwt beam="1">  1        2 0.20554711E+00 0.21626114E+04</pdfrwt>
<pdfrwt beam="2">  1       -2 0.13463528E+00 0.21626114E+04</pdfrwt>
<totfact> 0.57381608E+00</totfact>
</mgrwt>
</event>
<event>
12    1  0.1496989E-007  0.1553676E+04  0.7818608E-02  0.8849523E-01
         -2   -1    0    0    0  501 -0.00000000000E+00  0.00000000000E+00  0.24872859484E+03  0.24872859484E+03  0.00000000000E+00 0.  1.
          2   -1    0    0  501    0  0.00000000000E+00 -0.00000000000E+00 -0.24262482561E+04  0.24262482561E+04  0.00000000000E+00 0. -1.
         23    2    1    2    0    0 -0.37203371831E+03  0.43532251607E+02 -0.14200435142E+03  0.41763875914E+03  0.11812177115E+03 0.  0.
        254    2    1    2    0    0  0.37203371831E+03 -0.43532251607E+02 -0.20355153098E+04  0.22573380918E+04  0.90108187173E+03 0.  0.
        -24    2    4    4    0    0  0.57926367757E+03 -0.15331449191E+03 -0.83352197457E+03  0.10299720625E+04  0.83855983363E+02 0.  0.
         24    2    4    4    0    0 -0.20722995926E+03  0.10978224030E+03 -0.12019933352E+04  0.12273660292E+04  0.81504573052E+02 0.  0.
         13    1    3    3    0    0 -0.21274898028E+03  0.18229190370E+02 -0.18171194008E+02  0.21430031331E+03  0.00000000000E+00 0.  1.
        -13    1    3    3    0    0 -0.15928473803E+03  0.25303061237E+02 -0.12383315741E+03  0.20333844583E+03  0.00000000000E+00 0. -1.
          2    1    6    6  502    0 -0.35559237027E+01  0.28321607478E+02 -0.16115520124E+03  0.16366354796E+03  0.00000000000E+00 0. -1.
          1    1    5    5  503    0  0.12370472788E+03 -0.68438905123E+02 -0.20821279897E+03  0.25167302813E+03  0.00000000000E+00 0. -1.
         -2    1    5    5    0  503  0.45555894969E+03 -0.84875586784E+02 -0.62530917560E+03  0.77829903441E+03  0.00000000000E+00 0.  1.
         -1    1    6    6    0  502 -0.20367403556E+03  0.81460632822E+02 -0.10408381340E+04  0.10637024813E+04  0.00000000000E+00 0.  1.
<mgrwt>
<rscale>  0 0.15536761E+04</rscale>
<asrwt>0</asrwt>
<pdfrwt beam="1">  1        2 0.37326897E+00 0.15536761E+04</pdfrwt>
<pdfrwt beam="2">  1       -2 0.38265937E-01 0.15536761E+04</pdfrwt>
<totfact> 0.23876887E+01</totfact>
</mgrwt>
</event>
<event>
12    1  0.1496989E-007  0.1630332E+04  0.7818608E-02  0.8802127E-01
          2   -1    0    0  501    0  0.00000000000E+00  0.00000000000E+00  0.96522770814E+03  0.96522770814E+03  0.00000000000E+00 0. -1.
         -2   -1    0    0    0  501 -0.00000000000E+00 -0.00000000000E+00 -0.68843419722E+03  0.68843419722E+03  0.00000000000E+00 0.  1.
         23    2    1    2    0    0  0.19417303151E+03 -0.30879274596E+03 -0.33085571034E+03  0.49970568400E+03  0.84759326560E+02 0.  0.
        254    2    1    2    0    0 -0.19417303151E+03  0.30879274596E+03  0.60764922127E+03  0.11539562214E+04  0.91067077398E+03 0.  0.
        -24    2    4    4    0    0 -0.37299542789E+03 -0.12547304063E+03  0.53876909333E+03  0.67207927984E+03  0.80928050197E+02 0.  0.
         24    2    4    4    0    0  0.17882239639E+03  0.43426578659E+03  0.68880127939E+02  0.48187694151E+03  0.83046323735E+02 0.  0.
         13    1    3    3    0    0  0.17215423496E+03 -0.21549231102E+03 -0.27110755446E+03  0.38674710447E+03  0.00000000000E+00 0.  1.
        -13    1    3    3    0    0  0.22018796543E+02 -0.93300434933E+02 -0.59748155878E+02  0.11295857954E+03  0.00000000000E+00 0. -1.
          2    1    6    6  502    0 -0.74850179647E+01  0.41229077141E+02  0.37599039351E+01  0.42071358113E+02  0.00000000000E+00 0. -1.
          1    1    5    5  503    0 -0.42019552712E+02 -0.43999546618E+02  0.77103920791E+02  0.98217195613E+02  0.00000000000E+00 0. -1.
         -2    1    5    5    0  503 -0.33097587518E+03 -0.81473494016E+02  0.46166517254E+03  0.57386208423E+03  0.00000000000E+00 0.  1.
         -1    1    6    6    0  502  0.18630741435E+03  0.39303670945E+03  0.65120224004E+02  0.43980558340E+03  0.00000000000E+00 0.  1.
<mgrwt>
<rscale>  0 0.16303322E+04</rscale>
<asrwt>0</asrwt>
<pdfrwt beam="1">  1        2 0.14849657E+00 0.16303322E+04</pdfrwt>
<pdfrwt beam="2">  1       -2 0.10591295E+00 0.16303322E+04</pdfrwt>
<totfact> 0.18277101E+01</totfact>
</mgrwt>
</event>
<event>
12    1  0.1496989E-007  0.1197962E+04  0.7818608E-02  0.9114642E-01
          2   -1    0    0  501    0  0.00000000000E+00  0.00000000000E+00  0.13110303227E+04  0.13110303227E+04  0.00000000000E+00 0. -1.
         -2   -1    0    0    0  501 -0.00000000000E+00 -0.00000000000E+00 -0.27366149685E+03  0.27366149685E+03  0.00000000000E+00 0.  1.
         23    2    1    2    0    0 -0.13572313264E+03 -0.11892688927E+02 -0.18853869745E+02  0.16562818032E+03  0.92276871038E+02 0.  0.
        254    2    1    2    0    0  0.13572313264E+03  0.11892688927E+02  0.10562226956E+04  0.14190636393E+04  0.93785554579E+03 0.  0.
        -24    2    4    4    0    0 -0.55020222018E+02  0.12196490088E+03 -0.13538949668E+03  0.20461581174E+03  0.75064323901E+02 0.  0.
         24    2    4    4    0    0  0.19074335465E+03 -0.11007221195E+03  0.11916121923E+04  0.12144478275E+04  0.80280693556E+02 0.  0.
         11    1    3    3    0    0 -0.14424994679E+03 -0.27409252133E+02 -0.17530363413E+02  0.14787368898E+03  0.00000000000E+00 0.  1.
        -11    1    3    3    0    0  0.85268141591E+01  0.15516563207E+02 -0.13235063324E+01  0.17754491332E+02  0.00000000000E+00 0. -1.
          4    1    6    6  502    0  0.17786103980E+03 -0.69158291946E+02  0.93507910603E+03  0.95435336923E+03  0.00000000000E+00 0. -1.
          1    1    5    5  503    0 -0.61897522101E+02  0.57160709738E+02 -0.98917784838E+02  0.12993605403E+03  0.00000000000E+00 0. -1.
         -2    1    5    5    0  503  0.68773000835E+01  0.64804191140E+02 -0.36471711847E+02  0.74679757705E+02  0.00000000000E+00 0.  1.
         -3    1    6    6    0  502  0.12882314853E+02 -0.40913920005E+02  0.25653308629E+03  0.26009445831E+03  0.00000000000E+00 0.  1.
<mgrwt>
<rscale>  0 0.11979625E+04</rscale>
<asrwt>0</asrwt>
<pdfrwt beam="1">  1        2 0.20169697E+00 0.11979625E+04</pdfrwt>
<pdfrwt beam="2">  1       -2 0.42101770E-01 0.11979625E+04</pdfrwt>
<totfact> 0.85898514E+01</totfact>
</mgrwt>
</event>
<event>
12    1  0.1496989E-007  0.3443436E+04  0.7818608E-02  0.8127327E-01
          2   -1    0    0  501    0  0.00000000000E+00  0.00000000000E+00  0.29161685199E+04  0.29161685199E+04  0.00000000000E+00 0. -1.
         -2   -1    0    0    0  501 -0.00000000000E+00 -0.00000000000E+00 -0.10165096150E+04  0.10165096150E+04  0.00000000000E+00 0.  1.
         23    2    1    2    0    0 -0.13679988450E+04  0.55306028878E+03  0.17152382104E+03  0.14883358193E+04  0.91796332560E+02 0.  0.
        254    2    1    2    0    0  0.13679988450E+04 -0.55306028878E+03  0.17281350839E+04  0.24443423156E+04  0.90058978712E+03 0.  0.
        -24    2    4    4    0    0  0.33031129756E+03  0.10898337363E+03  0.46735476377E+02  0.35903482499E+03  0.75755341632E+02 0.  0.
         24    2    4    4    0    0  0.10376875475E+04 -0.66204366240E+03  0.16813996075E+04  0.20853074906E+04  0.79406757632E+02 0.  0.
         13    1    3    3    0    0 -0.10505366147E+04  0.46058174816E+03  0.15211134023E+03  0.11571087180E+04  0.00000000000E+00 0.  1.
        -13    1    3    3    0    0 -0.31746223036E+03  0.92478540617E+02  0.19412480812E+02  0.33122710123E+03  0.00000000000E+00 0. -1.
          4    1    6    6  502    0  0.11697740446E+03 -0.90879208094E+02  0.16704335090E+03  0.22326268094E+03  0.00000000000E+00 0. -1.
          1    1    5    5  503    0  0.53953654140E+02 -0.99944489671E+01  0.11869243217E+02  0.56140580152E+02  0.00000000000E+00 0. -1.
         -2    1    5    5    0  503  0.27635764342E+03  0.11897782259E+03  0.34866233160E+02  0.30289424484E+03  0.00000000000E+00 0.  1.
         -3    1    6    6    0  502  0.92071014302E+03 -0.57116445431E+03  0.15143562566E+04  0.18620448097E+04  0.00000000000E+00 0.  1.
<mgrwt>
<rscale>  0 0.34434363E+04</rscale>
<asrwt>0</asrwt>
<pdfrwt beam="1">  1        2 0.44864131E+00 0.34434363E+04</pdfrwt>
<pdfrwt beam="2">  1       -2 0.15638610E+00 0.34434363E+04</pdfrwt>
<totfact> 0.43414215E-01</totfact>
</mgrwt>
</event>
<event>
12    1  0.1496989E-007  0.1724640E+04  0.7818608E-02  0.8747435E-01
         -1   -1    0    0    0  501 -0.00000000000E+00  0.00000000000E+00  0.34152231147E+03  0.34152231147E+03  0.00000000000E+00 0.  1.
          1   -1    0    0  501    0  0.00000000000E+00 -0.00000000000E+00 -0.21772971740E+04  0.21772971740E+04  0.00000000000E+00 0. -1.
         23    2    1    2    0    0 -0.45659714453E+03 -0.34427991622E+03 -0.10316267246E+04  0.11830300590E+04  0.91086818309E+02 0.  0.
        254    2    1    2    0    0  0.45659714453E+03  0.34427991622E+03 -0.80414813792E+03  0.13357894265E+04  0.90037189594E+03 0.  0.
        -24    2    4    4    0    0  0.59710401105E+02  0.53449655195E+02 -0.82909455089E+03  0.83692695008E+03  0.81404839048E+02 0.  0.
         24    2    4    4    0    0  0.39688674343E+03  0.29083026103E+03  0.24946412966E+02  0.49886247637E+03  0.78358911269E+02 0.  0.
         11    1    3    3    0    0 -0.80706179710E+02 -0.93072588068E+02 -0.28011579286E+03  0.30600792719E+03  0.00000000000E+00 0. -1.
        -11    1    3    3    0    0 -0.37589096482E+03 -0.25120732815E+03 -0.75151093171E+03  0.87702213178E+03  0.00000000000E+00 0.  1.
          2    1    6    6  502    0  0.37453754707E+02  0.27051655102E+01  0.52368299433E+00  0.37554971788E+02  0.00000000000E+00 0. -1.
          1    1    5    5  503    0  0.39555880695E+01  0.43054254697E+02 -0.17056000582E+03  0.17595462798E+03  0.00000000000E+00 0. -1.
         -2    1    5    5    0  503  0.55754813036E+02  0.10395400498E+02 -0.65853454507E+03  0.66097232210E+03  0.00000000000E+00 0.  1.
         -1    1    6    6    0  502  0.35943298872E+03  0.28812509552E+03  0.24422729971E+02  0.46130750458E+03  0.00000000000E+00 0.  1.
<mgrwt>
<rscale>  0 0.17246397E+04</rscale>
<asrwt>0</asrwt>
<pdfrwt beam="1">  1        1 0.33496880E+00 0.17246397E+04</pdfrwt>
<pdfrwt beam="2">  1       -1 0.52541893E-01 0.17246397E+04</pdfrwt>
<totfact> 0.78296577E+00</totfact>
</mgrwt>
</event>
<event>
12    1  0.1496989E-007  0.1796622E+04  0.7818608E-02  0.8708098E-01
          1   -1    0    0  501    0  0.00000000000E+00  0.00000000000E+00  0.14291354180E+04  0.14291354180E+04  0.00000000000E+00 0. -1.
         -1   -1    0    0    0  501 -0.00000000000E+00 -0.00000000000E+00 -0.56465064292E+03  0.56465064292E+03  0.00000000000E+00 0.  1.
         23    2    1    2    0    0 -0.50749293210E+03  0.21855198113E+03  0.74464060911E+03  0.93170086060E+03  0.90900012790E+02 0.  0.
        254    2    1    2    0    0  0.50749293210E+03 -0.21855198113E+03  0.11984416602E+03  0.10620852004E+04  0.89908192292E+03 0.  0.
        -24    2    4    4    0    0  0.12920264765E+03 -0.50238261625E+03  0.22411612385E+03  0.57082656326E+03  0.80828900036E+02 0.  0.
         24    2    4    4    0    0  0.37829028445E+03  0.28383063512E+03 -0.10427195783E+03  0.49125863711E+03  0.82456282945E+02 0.  0.
         11    1    3    3    0    0 -0.30833331759E+03  0.11072585445E+03  0.50514910878E+03  0.60208410681E+03  0.00000000000E+00 0. -1.
        -11    1    3    3    0    0 -0.19915961451E+03  0.10782612668E+03  0.23949150033E+03  0.32961675379E+03  0.00000000000E+00 0.  1.
          4    1    6    6  502    0  0.28768507410E+03  0.20697102130E+03 -0.41328788845E+02  0.35680215009E+03  0.00000000000E+00 0. -1.
          3    1    5    5  503    0  0.21285681041E+02 -0.20808940144E+03  0.63409880149E+02  0.21857514065E+03  0.00000000000E+00 0. -1.
         -4    1    5    5    0  503  0.10791696661E+03 -0.29429321481E+03  0.16070624370E+03  0.35225142261E+03  0.00000000000E+00 0.  1.
         -3    1    6    6    0  502  0.90605210348E+02  0.76859613819E+02 -0.62943168989E+02  0.13445648702E+03  0.00000000000E+00 0.  1.
<mgrwt>
<rscale>  0 0.17966215E+04</rscale>
<asrwt>0</asrwt>
<pdfrwt beam="1">  1        1 0.21986699E+00 0.17966215E+04</pdfrwt>
<pdfrwt beam="2">  1       -1 0.86869330E-01 0.17966215E+04</pdfrwt>
<totfact> 0.90330630E+00</totfact>
</mgrwt>
</event>
<event>
12    1  0.1496989E-007  0.1492140E+04  0.7818608E-02  0.8889696E-01
         -1   -1    0    0    0  501 -0.00000000000E+00  0.00000000000E+00  0.63001800159E+03  0.63001800159E+03  0.00000000000E+00 0.  1.
          1   -1    0    0  501    0  0.00000000000E+00 -0.00000000000E+00 -0.88349946228E+03  0.88349946228E+03  0.00000000000E+00 0. -1.
         23    2    1    2    0    0 -0.30525041916E+03  0.37334340136E+03 -0.49685434072E+02  0.49338466514E+03  0.91633354699E+02 0.  0.
        254    2    1    2    0    0  0.30525041916E+03 -0.37334340136E+03 -0.20379602662E+03  0.10201327987E+04  0.87554268477E+03 0.  0.
        -24    2    4    4    0    0 -0.23473702323E+03 -0.23845710046E+03 -0.29210640256E+03  0.45150696372E+03  0.81050163683E+02 0.  0.
         24    2    4    4    0    0  0.53998744239E+03 -0.13488630090E+03  0.88310375937E+02  0.56862583502E+03  0.75867421469E+02 0.  0.
         11    1    3    3    0    0 -0.71277795482E+02  0.78449405389E+02 -0.49412935881E+02  0.11694644743E+03  0.00000000000E+00 0. -1.
        -11    1    3    3    0    0 -0.23397262368E+03  0.29489399598E+03 -0.27249819060E+00  0.37643821771E+03  0.00000000000E+00 0.  1.
          2    1    6    6  502    0  0.47206460660E+03 -0.95583104449E+02  0.90723773535E+02  0.49011419664E+03  0.00000000000E+00 0. -1.
          3    1    5    5  503    0 -0.22172549046E+03 -0.18731034257E+03 -0.23248274458E+03  0.37188114241E+03  0.00000000000E+00 0. -1.
         -4    1    5    5    0  503 -0.13011532771E+02 -0.51146757891E+02 -0.59623657981E+02  0.79625821308E+02  0.00000000000E+00 0.  1.
         -1    1    6    6    0  502  0.67922835792E+02 -0.39303196452E+02 -0.24133975980E+01  0.78511638382E+02  0.00000000000E+00 0.  1.
<mgrwt>
<rscale>  0 0.14921402E+04</rscale>
<asrwt>0</asrwt>
<pdfrwt beam="1">  1        1 0.13592299E+00 0.14921402E+04</pdfrwt>
<pdfrwt beam="2">  1       -1 0.96925846E-01 0.14921402E+04</pdfrwt>
<totfact> 0.18604992E+01</totfact>
</mgrwt>
</event>
<event>
12    1  0.1496989E-007  0.2593502E+04  0.7818608E-02  0.8370412E-01
          1   -1    0    0  501    0  0.00000000000E+00  0.00000000000E+00  0.29899834113E+04  0.29899834113E+04  0.00000000000E+00 0. -1.
         -1   -1    0    0    0  501 -0.00000000000E+00 -0.00000000000E+00 -0.56239890234E+03  0.56239890234E+03  0.00000000000E+00 0.  1.
         23    2    1    2    0    0  0.62391737984E+03  0.18787641284E+03 -0.21150644599E+03  0.69123508709E+03  0.92198294762E+02 0.  0.
        254    2    1    2    0    0 -0.62391737984E+03 -0.18787641284E+03  0.26390909549E+04  0.28611472265E+04  0.89263202954E+03 0.  0.
        -24    2    4    4    0    0 -0.76136644796E+03 -0.30722319274E+03  0.24544154316E+04  0.25893602800E+04  0.81034501201E+02 0.  0.
         24    2    4    4    0    0  0.13744906812E+03  0.11934677990E+03  0.18467552332E+03  0.27178694655E+03  0.81407586884E+02 0.  0.
         13    1    3    3    0    0  0.60896696281E+03  0.19474787879E+03 -0.21477502014E+03  0.67445964102E+03  0.00000000000E+00 0.  1.
        -13    1    3    3    0    0  0.14950417031E+02 -0.68714659501E+01  0.32685741581E+01  0.16775446067E+02  0.00000000000E+00 0. -1.
          4    1    6    6  502    0  0.13284093062E+03  0.10319296576E+03  0.19037927177E+03  0.25404678339E+03  0.00000000000E+00 0. -1.
          3    1    5    5  503    0 -0.52258775324E+03 -0.18850854296E+03  0.15557455044E+04  0.16519617142E+04  0.00000000000E+00 0. -1.
         -4    1    5    5    0  503 -0.23877869472E+03 -0.11871464978E+03  0.89866992720E+03  0.93739856581E+03  0.00000000000E+00 0.  1.
         -3    1    6    6    0  502  0.46081375028E+01  0.16153814136E+02 -0.57037484565E+01  0.17740163157E+02  0.00000000000E+00 0.  1.
<mgrwt>
<rscale>  0 0.25935022E+04</rscale>
<asrwt>0</asrwt>
<pdfrwt beam="1">  1        1 0.45999744E+00 0.25935022E+04</pdfrwt>
<pdfrwt beam="2">  1       -1 0.86522910E-01 0.25935022E+04</pdfrwt>
<totfact> 0.70541568E-01</totfact>
</mgrwt>
</event>
<event>
12    1  0.1496989E-007  0.1924848E+04  0.7818608E-02  0.8642586E-01
          2   -1    0    0  501    0  0.00000000000E+00  0.00000000000E+00  0.32809256443E+04  0.32809256443E+04  0.00000000000E+00 0.  1.
         -2   -1    0    0    0  501 -0.00000000000E+00 -0.00000000000E+00 -0.28231666690E+03  0.28231666690E+03  0.00000000000E+00 0. -1.
         23    2    1    2    0    0  0.59500965675E+03  0.12904626174E+03  0.37009711430E+03  0.71823346238E+03  0.90542825012E+02 0.  0.
        254    2    1    2    0    0 -0.59500965675E+03 -0.12904626174E+03  0.26285118631E+04  0.28450088489E+04  0.90239199141E+03 0.  0.
        -24    2    4    4    0    0 -0.77786632188E+03  0.86838172047E+02  0.17535613512E+04  0.19219062807E+04  0.78290845818E+02 0.  0.
         24    2    4    4    0    0  0.18285666513E+03 -0.21588443379E+03  0.87495051192E+03  0.92310256815E+03  0.80853597784E+02 0.  0.
         11    1    3    3    0    0  0.23902345793E+03  0.60968770326E+02  0.99785006774E+02  0.26609481763E+03  0.00000000000E+00 0. -1.
        -11    1    3    3    0    0  0.35598619883E+03  0.68077491414E+02  0.27031210753E+03  0.45213864474E+03  0.00000000000E+00 0.  1.
          2    1    6    6  502    0  0.45172786987E+02 -0.29920054817E+02  0.27059594680E+03  0.27596731109E+03  0.00000000000E+00 0. -1.
          3    1    5    5  503    0 -0.48144130524E+02  0.11226326159E+02  0.72655040764E+02  0.87878567645E+02  0.00000000000E+00 0. -1.
         -4    1    5    5    0  503 -0.72972219136E+03  0.75611845888E+02  0.16809063104E+04  0.18340277131E+04  0.00000000000E+00 0.  1.
         -1    1    6    6    0  502  0.13768387814E+03 -0.18596437897E+03  0.60435456512E+03  0.64713525705E+03  0.00000000000E+00 0.  1.
<mgrwt>
<rscale>  0 0.19248480E+04</rscale>
<asrwt>0</asrwt>
<pdfrwt beam="1">  1        2 0.50475776E+00 0.19248480E+04</pdfrwt>
<pdfrwt beam="2">  1       -2 0.43433336E-01 0.19248480E+04</pdfrwt>
<totfact> 0.54141618E+00</totfact>
</mgrwt>
</event>
<event>
12    1  0.1496989E-007  0.2242811E+04  0.7818608E-02  0.8500818E-01
         -1   -1    0    0    0  501 -0.00000000000E+00  0.00000000000E+00  0.42458237587E+03  0.42458237587E+03  0.00000000000E+00 0.  1.
          1   -1    0    0  501    0  0.00000000000E+00 -0.00000000000E+00 -0.29618512652E+04  0.29618512652E+04  0.00000000000E+00 0. -1.
         23    2    1    2    0    0  0.68318688921E+03  0.72340620197E+02 -0.20375306562E+04  0.21520769977E+04  0.89032230891E+02 0.  0.
        254    2    1    2    0    0 -0.68318688921E+03 -0.72340620197E+02 -0.49973823319E+03  0.12343566434E+04  0.89550015666E+03 0.  0.
        -24    2    4    4    0    0 -0.46927626110E+03  0.90727996311E+02 -0.72683743018E+03  0.87357204843E+03  0.79898030897E+02 0.  0.
         24    2    4    4    0    0 -0.21391062811E+03 -0.16306861651E+03  0.22709919699E+03  0.36078459501E+03  0.79008532545E+02 0.  0.
         11    1    3    3    0    0  0.96175717505E+02 -0.17311000030E+02 -0.24606743840E+03  0.26476144659E+03  0.00000000000E+00 0.  1.
        -11    1    3    3    0    0  0.58701117170E+03  0.89651620227E+02 -0.17914632178E+04  0.18873155511E+04  0.00000000000E+00 0. -1.
          2    1    6    6  502    0 -0.18935139764E+03 -0.17032570024E+03  0.20822397558E+03  0.32897115369E+03  0.00000000000E+00 0. -1.
          3    1    5    5  503    0 -0.25793325123E+03  0.74711824367E+02 -0.34909275468E+03  0.44042839391E+03  0.00000000000E+00 0. -1.
         -4    1    5    5    0  503 -0.21134300987E+03  0.16016171944E+02 -0.37774467550E+03  0.43314365452E+03  0.00000000000E+00 0.  1.
         -1    1    6    6    0  502 -0.24559230474E+02  0.72570837331E+01  0.18875221406E+02  0.31813441325E+02  0.00000000000E+00 0.  1.
<mgrwt>
<rscale>  0 0.22428106E+04</rscale>
<asrwt>0</asrwt>
<pdfrwt beam="1">  1        1 0.45566943E+00 0.22428106E+04</pdfrwt>
<pdfrwt beam="2">  1       -1 0.65320365E-01 0.22428106E+04</pdfrwt>
<totfact> 0.13762165E+00</totfact>
</mgrwt>
</event>
<event>
12    1  0.1496989E-007  0.2116374E+04  0.7818608E-02  0.8554064E-01
         -2   -1    0    0    0  501 -0.00000000000E+00  0.00000000000E+00  0.12347502492E+04  0.12347502492E+04  0.00000000000E+00 0.  1.
          2   -1    0    0  501    0  0.00000000000E+00 -0.00000000000E+00 -0.90687166508E+03  0.90687166508E+03  0.00000000000E+00 0. -1.
         23    2    1    2    0    0  0.32931409360E+03  0.26453886495E+03 -0.62529461740E+03  0.75996928000E+03  0.90174079888E+02 0.  0.
        254    2    1    2    0    0 -0.32931409360E+03 -0.26453886495E+03  0.95317320150E+03  0.13816526343E+04  0.90664009750E+03 0.  0.
        -24    2    4    4    0    0 -0.45176519155E+03  0.13488198312E+03  0.20221452921E+03  0.51855666695E+03  0.75666130752E+02 0.  0.
         24    2    4    4    0    0  0.12245109795E+03 -0.39942084806E+03  0.75095867229E+03  0.86309596732E+03  0.80401716717E+02 0.  0.
         11    1    3    3    0    0  0.14047320391E+03  0.15717771365E+03 -0.35896392258E+03  0.41628434080E+03  0.00000000000E+00 0.  1.
        -11    1    3    3    0    0  0.18884088969E+03  0.10736115129E+03 -0.26633069482E+03  0.34368493919E+03  0.00000000000E+00 0. -1.
          4    1    6    6  502    0  0.20109063546E+02 -0.20159486042E+03  0.34792017182E+03  0.40260813224E+03  0.00000000000E+00 0. -1.
          1    1    5    5  503    0 -0.12242831149E+02 -0.10980103324E+01 -0.58579347303E+01  0.13616458443E+02  0.00000000000E+00 0. -1.
         -2    1    5    5    0  503 -0.43952236041E+03  0.13597999345E+03  0.20807246394E+03  0.50494020850E+03  0.00000000000E+00 0.  1.
         -3    1    6    6    0  502  0.10234203441E+03 -0.19782598764E+03  0.40303850048E+03  0.46048783508E+03  0.00000000000E+00 0.  1.
<mgrwt>
<rscale>  0 0.21163743E+04</rscale>
<asrwt>0</asrwt>
<pdfrwt beam="1">  1        2 0.13951872E+00 0.21163743E+04</pdfrwt>
<pdfrwt beam="2">  1       -2 0.18996158E+00 0.21163743E+04</pdfrwt>
<totfact> 0.41391999E+00</totfact>
</mgrwt>
</event>
<event>
12    1  0.1496989E-007  0.1962660E+04  0.7818608E-02  0.8624280E-01
          1   -1    0    0  501    0  0.00000000000E+00  0.00000000000E+00  0.13618920410E+04  0.13618920410E+04  0.00000000000E+00 0. -1.
         -1   -1    0    0    0  501 -0.00000000000E+00 -0.00000000000E+00 -0.70711095649E+03  0.70711095649E+03  0.00000000000E+00 0.  1.
         23    2    1    2    0    0  0.38527523506E+03 -0.10476602237E+03 -0.43624400470E+03  0.59923695180E+03  0.96763456804E+02 0.  0.
        254    2    1    2    0    0 -0.38527523506E+03  0.10476602237E+03  0.10910250892E+04  0.14697660457E+04  0.90025749514E+03 0.  0.
        -24    2    4    4    0    0  0.16855011949E+03 -0.20656093059E+03  0.11295770470E+03  0.30065636702E+03  0.80983005326E+02 0.  0.
         24    2    4    4    0    0 -0.55382535455E+03  0.31132695296E+03  0.97806738448E+03  0.11691096786E+04  0.80960713534E+02 0.  0.
         13    1    3    3    0    0  0.13521743602E+03 -0.82179546938E+02 -0.19406267884E+03  0.25039480078E+03  0.00000000000E+00 0. -1.
        -13    1    3    3    0    0  0.25005779904E+03 -0.22586475431E+02 -0.24218132586E+03  0.34884215102E+03  0.00000000000E+00 0.  1.
          4    1    6    6  502    0 -0.23931904045E+03  0.12362795698E+03  0.34465904355E+03  0.43743265901E+03  0.00000000000E+00 0. -1.
          3    1    5    5  503    0  0.17717365728E+03 -0.19755371963E+03  0.10282615416E+03  0.28458952010E+03  0.00000000000E+00 0. -1.
         -4    1    5    5    0  503 -0.86235377953E+01 -0.90072109612E+01  0.10131550537E+02  0.16066846912E+02  0.00000000000E+00 0.  1.
         -3    1    6    6    0  502 -0.31450631410E+03  0.18769899597E+03  0.63340834093E+03  0.73167701963E+03  0.00000000000E+00 0.  1.
<mgrwt>
<rscale>  0 0.19626602E+04</rscale>
<asrwt>0</asrwt>
<pdfrwt beam="1">  1        1 0.20952185E+00 0.19626602E+04</pdfrwt>
<pdfrwt beam="2">  1       -1 0.10878630E+00 0.19626602E+04</pdfrwt>
<totfact> 0.59594493E+00</totfact>
</mgrwt>
</event>
<event>
12    1  0.1496989E-007  0.1337090E+04  0.7818608E-02  0.9000659E-01
          3   -1    0    0  501    0  0.00000000000E+00  0.00000000000E+00  0.28767449835E+03  0.28767449835E+03  0.00000000000E+00 0. -1.
         -3   -1    0    0    0  501 -0.00000000000E+00 -0.00000000000E+00 -0.15536746529E+04  0.15536746529E+04  0.00000000000E+00 0.  1.
         23    2    1    2    0    0 -0.33060440359E+03  0.12170053839E+02 -0.17044609819E+03  0.38359830732E+03  0.92996812357E+02 0.  0.
        254    2    1    2    0    0  0.33060440359E+03 -0.12170053839E+02 -0.10955540564E+04  0.14577508440E+04  0.90296813383E+03 0.  0.
        -24    2    4    4    0    0  0.80665891432E+02 -0.44077610589E+03 -0.58895489583E+03  0.74413593868E+03  0.77973484955E+02 0.  0.
         24    2    4    4    0    0  0.24993851215E+03  0.42860605205E+03 -0.50659916057E+03  0.71361490528E+03  0.80194238191E+02 0.  0.
         13    1    3    3    0    0 -0.28030187120E+03 -0.81025579132E+01 -0.17267302444E+03  0.32931863569E+03  0.00000000000E+00 0.  1.
        -13    1    3    3    0    0 -0.50302532389E+02  0.20272611752E+02  0.22269262491E+01  0.54279671633E+02  0.00000000000E+00 0. -1.
          4    1    6    6  502    0  0.23177498730E+03  0.40162545960E+03 -0.49694188685E+03  0.67968661414E+03  0.00000000000E+00 0. -1.
          1    1    5    5  503    0  0.60625717526E+02 -0.41629410544E+03 -0.56518238496E+03  0.70456184123E+03  0.00000000000E+00 0. -1.
         -2    1    5    5    0  503  0.20040173906E+02 -0.24482000448E+02 -0.23772510869E+02  0.39574097452E+02  0.00000000000E+00 0.  1.
         -3    1    6    6    0  502  0.18163524858E+02  0.26980592454E+02 -0.96572737245E+01  0.33928291148E+02  0.00000000000E+00 0.  1.
<mgrwt>
<rscale>  0 0.13370902E+04</rscale>
<asrwt>0</asrwt>
<pdfrwt beam="1">  1        3 0.44257616E-01 0.13370902E+04</pdfrwt>
<pdfrwt beam="2">  1       -3 0.23902687E+00 0.13370902E+04</pdfrwt>
<totfact> 0.11058955E+00</totfact>
</mgrwt>
</event>
<event>
12    1  0.1496989E-007  0.4109463E+04  0.7818608E-02  0.7982821E-01
         -2   -1    0    0    0  501 -0.00000000000E+00  0.00000000000E+00  0.13811880799E+04  0.13811880799E+04  0.00000000000E+00 0.  1.
          2   -1    0    0  501    0  0.00000000000E+00 -0.00000000000E+00 -0.30567316416E+04  0.30567316416E+04  0.00000000000E+00 0. -1.
         23    2    1    2    0    0 -0.18879334208E+04 -0.29150898278E+03 -0.33712888280E+03  0.19422632164E+04  0.97264740541E+02 0.  0.
        254    2    1    2    0    0  0.18879334208E+04  0.29150898278E+03 -0.13384146789E+04  0.24956565051E+04  0.88751194373E+03 0.  0.
        -24    2    4    4    0    0  0.14579326356E+04  0.41359331200E+01 -0.57249505140E+03  0.15683834561E+04  0.80569260988E+02 0.  0.
         24    2    4    4    0    0  0.43000078528E+03  0.28737304966E+03 -0.76591962750E+03  0.92727304898E+03  0.75620675541E+02 0.  0.
         11    1    3    3    0    0 -0.80562202346E+03 -0.10445084146E+03 -0.18792530876E+03  0.83381817241E+03  0.00000000000E+00 0.  1.
        -11    1    3    3    0    0 -0.10823113974E+04 -0.18705814132E+03 -0.14920357404E+03  0.11084450440E+04  0.00000000000E+00 0. -1.
          4    1    6    6  502    0  0.28137578121E+03  0.18769452708E+03 -0.43454534622E+03  0.55066434756E+03  0.00000000000E+00 0. -1.
          1    1    5    5  503    0  0.40130831325E+03 -0.30374857179E+02 -0.17662915846E+03  0.43950978811E+03  0.00000000000E+00 0. -1.
         -2    1    5    5    0  503  0.10566243223E+04  0.34510790299E+02 -0.39586589294E+03  0.11288736680E+04  0.00000000000E+00 0.  1.
         -3    1    6    6    0  502  0.14862500408E+03  0.99678522584E+02 -0.33137428127E+03  0.37660870143E+03  0.00000000000E+00 0.  1.
<mgrwt>
<rscale>  0 0.41094629E+04</rscale>
<asrwt>0</asrwt>
<pdfrwt beam="1">  1        2 0.47026640E+00 0.41094629E+04</pdfrwt>
<pdfrwt beam="2">  1       -2 0.21249048E+00 0.41094629E+04</pdfrwt>
<totfact> 0.13827789E-01</totfact>
</mgrwt>
</event>
<event>
12    1  0.1496989E-007  0.1554843E+04  0.7818608E-02  0.8848780E-01
          1   -1    0    0  501    0  0.00000000000E+00  0.00000000000E+00  0.97222072489E+03  0.97222072489E+03  0.00000000000E+00 0. -1.
         -1   -1    0    0    0  501 -0.00000000000E+00 -0.00000000000E+00 -0.62165331425E+03  0.62165331425E+03  0.00000000000E+00 0.  1.
         23    2    1    2    0    0  0.37588280378E+02  0.20475253201E+03  0.59390676163E+03  0.63600983397E+03  0.91906415471E+02 0.  0.
        254    2    1    2    0    0 -0.37588280378E+02 -0.20475253201E+03 -0.24333935099E+03  0.95786420517E+03  0.90274764892E+03 0.  0.
        -24    2    4    4    0    0  0.74982411112E+02  0.32223965897E+03 -0.23405602250E+03  0.41301636598E+03  0.79621210158E+02 0.  0.
         24    2    4    4    0    0 -0.11257069149E+03 -0.52699219098E+03 -0.92833284897E+01  0.54484783920E+03  0.79875263689E+02 0.  0.
         13    1    3    3    0    0  0.54693245545E+02  0.12785099991E+03  0.46091762121E+03  0.48143772477E+03  0.00000000000E+00 0. -1.
        -13    1    3    3    0    0 -0.17104965166E+02  0.76901532100E+02  0.13298914042E+03  0.15457210920E+03  0.00000000000E+00 0.  1.
          4    1    6    6  502    0 -0.40402183373E+02 -0.36731436616E+03 -0.78230244608E+01  0.36961247236E+03  0.00000000000E+00 0. -1.
          1    1    5    5  503    0 -0.41341588167E+00  0.17349883438E+03 -0.12237823934E+03  0.21231686204E+03  0.00000000000E+00 0. -1.
         -2    1    5    5    0  503  0.75395826994E+02  0.14874082459E+03 -0.11167778316E+03  0.20069950393E+03  0.00000000000E+00 0.  1.
         -3    1    6    6    0  502 -0.72168508117E+02 -0.15967782482E+03 -0.14603040289E+01  0.17523536684E+03  0.00000000000E+00 0.  1.
<mgrwt>
<rscale>  0 0.15548431E+04</rscale>
<asrwt>0</asrwt>
<pdfrwt beam="1">  1        1 0.14957242E+00 0.15548431E+04</pdfrwt>
<pdfrwt beam="2">  1       -1 0.95638971E-01 0.15548431E+04</pdfrwt>
<totfact> 0.16167931E+01</totfact>
</mgrwt>
</event>
<event>
12    1  0.1496989E-007  0.3026734E+04  0.7818608E-02  0.8236138E-01
         -1   -1    0    0    0  501 -0.00000000000E+00  0.00000000000E+00  0.59386026104E+03  0.59386026104E+03  0.00000000000E+00 0.  1.
          1   -1    0    0  501    0  0.00000000000E+00 -0.00000000000E+00 -0.38565972468E+04  0.38565972468E+04  0.00000000000E+00 0. -1.
         23    2    1    2    0    0  0.34319300546E+03 -0.56481596865E+03  0.28897159201E+03  0.72681341519E+03  0.89188800191E+02 0.  0.
        254    2    1    2    0    0 -0.34319300546E+03  0.56481596865E+03 -0.35517085778E+04  0.37236440927E+04  0.90227101794E+03 0.  0.
        -24    2    4    4    0    0 -0.33798095867E+03  0.63008343518E+03 -0.35473331741E+04  0.36195438841E+04  0.79303324307E+02 0.  0.
         24    2    4    4    0    0 -0.52120467922E+01 -0.65267466527E+02 -0.43754036968E+01  0.10410020855E+03  0.80812756695E+02 0.  0.
         11    1    3    3    0    0  0.11266768672E+03 -0.13196950339E+03  0.45993219539E+02  0.17951416017E+03  0.00000000000E+00 0. -1.
        -11    1    3    3    0    0  0.23052531874E+03 -0.43284646525E+03  0.24297837248E+03  0.54729925503E+03  0.00000000000E+00 0.  1.
          2    1    6    6  502    0 -0.25458712060E+02 -0.74239907629E+02 -0.14395520142E+02  0.79793113141E+02  0.00000000000E+00 0. -1.
          3    1    5    5  503    0 -0.15203287986E+03  0.31140214391E+03 -0.15306829695E+04  0.15694188876E+04  0.00000000000E+00 0. -1.
         -4    1    5    5    0  503 -0.18594807880E+03  0.31868129126E+03 -0.20166502046E+04  0.20501249965E+04  0.00000000000E+00 0.  1.
         -1    1    6    6    0  502  0.20246665268E+02  0.89724411019E+01  0.10020116445E+02  0.24307095412E+02  0.00000000000E+00 0.  1.
<mgrwt>
<rscale>  0 0.30267341E+04</rscale>
<asrwt>0</asrwt>
<pdfrwt beam="1">  1        1 0.59332264E+00 0.30267341E+04</pdfrwt>
<pdfrwt beam="2">  1       -1 0.91363119E-01 0.30267341E+04</pdfrwt>
<totfact> 0.12654934E-01</totfact>
</mgrwt>
</event>
<event>
12    1  0.1496989E-007  0.1541516E+04  0.7818608E-02  0.8857305E-01
         -2   -1    0    0    0  501 -0.00000000000E+00  0.00000000000E+00  0.28451492991E+03  0.28451492991E+03  0.00000000000E+00 0.  1.
          2   -1    0    0  501    0  0.00000000000E+00 -0.00000000000E+00 -0.20880038467E+04  0.20880038467E+04  0.00000000000E+00 0. -1.
         23    2    1    2    0    0  0.68808425942E+02  0.40418395711E+03 -0.15706200922E+03  0.44842249587E+03  0.91186563666E+02 0.  0.
        254    2    1    2    0    0 -0.68808425942E+02 -0.40418395711E+03 -0.16464269076E+04  0.19240962807E+04  0.90737294697E+03 0.  0.
        -24    2    4    4    0    0  0.91983362386E+02  0.22555965821E+03 -0.16845042291E+03  0.30757542398E+03  0.82999988487E+02 0.  0.
         24    2    4    4    0    0 -0.16079178833E+03 -0.62974361532E+03 -0.14779764847E+04  0.16165208568E+04  0.79335810827E+02 0.  0.
         13    1    3    3    0    0  0.53014628173E+02  0.33329896594E+03 -0.16445245961E+03  0.37542424398E+03  0.00000000000E+00 0. -1.
        -13    1    3    3    0    0  0.15793797768E+02  0.70884991179E+02  0.73904503917E+01  0.72998251892E+02  0.00000000000E+00 0.  1.
          2    1    6    6  502    0 -0.14348467810E+03 -0.48994694566E+03 -0.10863214398E+04  0.12003041836E+04  0.00000000000E+00 0. -1.
          1    1    5    5  503    0  0.69842563032E+02  0.22367758061E+03 -0.16028032057E+03  0.28390037837E+03  0.00000000000E+00 0. -1.
         -2    1    5    5    0  503  0.22140799354E+02  0.18820775993E+01 -0.81701023405E+01  0.23675045604E+02  0.00000000000E+00 0.  1.
         -1    1    6    6    0  502 -0.17307110227E+02 -0.13979666967E+03 -0.39165504483E+03  0.41621667321E+03  0.00000000000E+00 0.  1.
<mgrwt>
<rscale>  0 0.15415165E+04</rscale>
<asrwt>0</asrwt>
<pdfrwt beam="1">  1        2 0.32123137E+00 0.15415165E+04</pdfrwt>
<pdfrwt beam="2">  1       -2 0.43771527E-01 0.15415165E+04</pdfrwt>
<totfact> 0.28463057E+01</totfact>
</mgrwt>
</event>
<event>
12    1  0.1496989E-007  0.2179048E+04  0.7818608E-02  0.8527200E-01
          2   -1    0    0  501    0  0.00000000000E+00  0.00000000000E+00  0.12373245817E+04  0.12373245817E+04  0.00000000000E+00 0. -1.
         -2   -1    0    0    0  501 -0.00000000000E+00 -0.00000000000E+00 -0.95937807744E+03  0.95937807744E+03  0.00000000000E+00 0.  1.
         23    2    1    2    0    0 -0.39683461752E+03  0.81639891688E+03  0.13119575852E+03  0.92169770041E+03  0.91265649260E+02 0.  0.
        254    2    1    2    0    0  0.39683461752E+03 -0.81639891688E+03  0.14675074576E+03  0.12750049588E+04  0.88324229876E+03 0.  0.
        -24    2    4    4    0    0  0.48733608505E+03 -0.58798464870E+02  0.93735844525E+02  0.50616893547E+03  0.80416810625E+02 0.  0.
         24    2    4    4    0    0 -0.90501467528E+02 -0.75760045201E+03  0.53014901233E+02  0.76883602328E+03  0.78417411498E+02 0.  0.
         13    1    3    3    0    0 -0.37106194116E+03  0.69994202518E+03  0.12714885092E+03  0.80235443108E+03  0.00000000000E+00 0.  1.
        -13    1    3    3    0    0 -0.25772676358E+02  0.11645689170E+03  0.40469076033E+01  0.11934326932E+03  0.00000000000E+00 0. -1.
          4    1    6    6  502    0 -0.43004811838E+02 -0.13379125139E+03 -0.43212052605E+01  0.14059937981E+03  0.00000000000E+00 0. -1.
          3    1    5    5  503    0  0.29802263157E+01  0.29975061813E+01  0.98699444818E+01  0.10736973329E+02  0.00000000000E+00 0. -1.
         -4    1    5    5    0  503  0.48435585873E+03 -0.61795971052E+02  0.83865900043E+02  0.49543196215E+03  0.00000000000E+00 0.  1.
         -3    1    6    6    0  502 -0.47496655690E+02 -0.62380920062E+03  0.57336106494E+02  0.62823664347E+03  0.00000000000E+00 0.  1.
<mgrwt>
<rscale>  0 0.21790476E+04</rscale>
<asrwt>0</asrwt>
<pdfrwt beam="1">  1        2 0.19035763E+00 0.21790476E+04</pdfrwt>
<pdfrwt beam="2">  1       -2 0.14759663E+00 0.21790476E+04</pdfrwt>
<totfact> 0.51531305E+00</totfact>
</mgrwt>
</event>
<event>
12    1  0.1496989E-007  0.1557878E+04  0.7818608E-02  0.8846852E-01
         -2   -1    0    0    0  501 -0.00000000000E+00  0.00000000000E+00  0.11515362020E+04  0.11515362020E+04  0.00000000000E+00 0. -1.
          2   -1    0    0  501    0  0.00000000000E+00 -0.00000000000E+00 -0.52690111751E+03  0.52690111751E+03  0.00000000000E+00 0.  1.
         23    2    1    2    0    0  0.82995422263E+02  0.49160054892E+03  0.37842557806E+03  0.63272546952E+03  0.92608108907E+02 0.  0.
        254    2    1    2    0    0 -0.82995422263E+02 -0.49160054892E+03  0.24620950640E+03  0.10457118500E+04  0.88562679063E+03 0.  0.
        -24    2    4    4    0    0 -0.47406223747E+03 -0.19567889844E+03  0.10768224559E+03  0.53007729624E+03  0.79757367568E+02 0.  0.
         24    2    4    4    0    0  0.39106681521E+03 -0.29592165048E+03  0.13852726081E+03  0.51563455372E+03  0.78653123423E+02 0.  0.
         11    1    3    3    0    0  0.33148764931E+02  0.11885255028E+03  0.48943379105E+02  0.13274119060E+03  0.00000000000E+00 0.  1.
        -11    1    3    3    0    0  0.49846657331E+02  0.37274799864E+03  0.32948219895E+03  0.49998427892E+03  0.00000000000E+00 0. -1.
          4    1    6    6  502    0  0.27117657638E+02 -0.32947782336E+02 -0.77980804241E+01  0.43378955439E+02  0.00000000000E+00 0. -1.
          3    1    5    5  503    0 -0.43169143444E+03 -0.16511185501E+03  0.11755866346E+03  0.47690613184E+03  0.00000000000E+00 0. -1.
         -4    1    5    5    0  503 -0.42370803029E+02 -0.30567043427E+02 -0.98764178668E+01  0.53171164395E+02  0.00000000000E+00 0.  1.
         -3    1    6    6    0  502  0.36394915757E+03 -0.26297386815E+03  0.14632534123E+03  0.47225559828E+03  0.00000000000E+00 0.  1.
<mgrwt>
<rscale>  0 0.15578777E+04</rscale>
<asrwt>0</asrwt>
<pdfrwt beam="1">  1        2 0.81061711E-01 0.15578777E+04</pdfrwt>
<pdfrwt beam="2">  1       -2 0.17715941E+00 0.15578777E+04</pdfrwt>
<totfact> 0.10561180E+01</totfact>
</mgrwt>
</event>
<event>
12    1  0.1496989E-007  0.1166006E+04  0.7818608E-02  0.9143143E-01
         -2   -1    0    0    0  501 -0.00000000000E+00  0.00000000000E+00  0.52649665131E+03  0.52649665131E+03  0.00000000000E+00 0.  1.
          2   -1    0    0  501    0  0.00000000000E+00 -0.00000000000E+00 -0.64557439871E+03  0.64557439871E+03  0.00000000000E+00 0. -1.
         23    2    1    2    0    0 -0.17250855796E+03 -0.14268746583E+03 -0.47366549877E+02  0.24663397854E+03  0.92009857359E+02 0.  0.
        254    2    1    2    0    0  0.17250855796E+03  0.14268746583E+03 -0.71711197531E+02  0.92543707148E+03  0.89508232132E+03 0.  0.
        -24    2    4    4    0    0  0.37832086582E+03  0.11081353895E+03  0.29321717144E+03  0.49773845095E+03  0.79755488831E+02 0.  0.
         24    2    4    4    0    0 -0.20581230786E+03  0.31873926878E+02 -0.36492836897E+03  0.42769862053E+03  0.79867028530E+02 0.  0.
         11    1    3    3    0    0 -0.53270920423E+02 -0.32381368458E+02 -0.56235909078E+02  0.83957259697E+02  0.00000000000E+00 0. -1.
        -11    1    3    3    0    0 -0.11923763754E+03 -0.11030609737E+03  0.88693592008E+01  0.16267671885E+03  0.00000000000E+00 0.  1.
          4    1    6    6  502    0 -0.61358632000E+02  0.12195119009E+02 -0.48017171759E+02  0.78862230708E+02  0.00000000000E+00 0. -1.
          3    1    5    5  503    0  0.29226575127E+02  0.29945223119E+02  0.47195812183E+02  0.63074192574E+02  0.00000000000E+00 0. -1.
         -4    1    5    5    0  503  0.34909429069E+03  0.80868315831E+02  0.24602135925E+03  0.43466425837E+03  0.00000000000E+00 0.  1.
         -3    1    6    6    0  502 -0.14445367586E+03  0.19678807868E+02 -0.31691119721E+03  0.34883638982E+03  0.00000000000E+00 0.  1.
<mgrwt>
<rscale>  0 0.11660064E+04</rscale>
<asrwt>0</asrwt>
<pdfrwt beam="1">  1        2 0.99319138E-01 0.11660064E+04</pdfrwt>
<pdfrwt beam="2">  1       -2 0.80999485E-01 0.11660064E+04</pdfrwt>
<totfact> 0.60304882E+01</totfact>
</mgrwt>
</event>
<event>
12    1  0.1496989E-007  0.1648829E+04  0.7818608E-02  0.8791099E-01
          1   -1    0    0  501    0  0.00000000000E+00  0.00000000000E+00  0.83736419932E+03  0.83736419932E+03  0.00000000000E+00 0.  1.
         -1   -1    0    0    0  501 -0.00000000000E+00 -0.00000000000E+00 -0.81166535159E+03  0.81166535159E+03  0.00000000000E+00 0. -1.
         23    2    1    2    0    0 -0.10099791367E+03 -0.55983423975E+03 -0.87110986562E+02  0.58292290113E+03  0.92713699759E+02 0.  0.
        254    2    1    2    0    0  0.10099791367E+03  0.55983423975E+03  0.11280983429E+03  0.10661066498E+04  0.89456267272E+03 0.  0.
        -24    2    4    4    0    0  0.20152295819E+03  0.75710645615E+03  0.20469659414E+03  0.81374071076E+03  0.80321603982E+02 0.  0.
         24    2    4    4    0    0 -0.10052504453E+03 -0.19727221640E+03 -0.91886759847E+02  0.25236593902E+03  0.78890928514E+02 0.  0.
         11    1    3    3    0    0 -0.71719002465E+02 -0.52906262251E+03 -0.80494224451E+02  0.53993536097E+03  0.00000000000E+00 0.  1.
        -11    1    3    3    0    0 -0.29278911200E+02 -0.30771617239E+02 -0.66167621110E+01  0.42987540165E+02  0.00000000000E+00 0. -1.
          4    1    6    6  502    0 -0.64419738510E+02 -0.18039908275E+03 -0.92020325151E+02  0.21251228673E+03  0.00000000000E+00 0. -1.
          1    1    5    5  503    0  0.19309820679E+03  0.75413659183E+03  0.20050112061E+03  0.80387164148E+03  0.00000000000E+00 0. -1.
         -2    1    5    5    0  503  0.84247514065E+01  0.29698643196E+01  0.41954735284E+01  0.98690692806E+01  0.00000000000E+00 0.  1.
         -3    1    6    6    0  502 -0.36105306017E+02 -0.16873133648E+02  0.13356530447E+00  0.39853652297E+02  0.00000000000E+00 0.  1.
<mgrwt>
<rscale>  0 0.16488293E+04</rscale>
<asrwt>0</asrwt>
<pdfrwt beam="1">  1        1 0.12882526E+00 0.16488293E+04</pdfrwt>
<pdfrwt beam="2">  1       -1 0.12487159E+00 0.16488293E+04</pdfrwt>
<totfact> 0.11009710E+01</totfact>
</mgrwt>
</event>
<event>
12    1  0.1496989E-007  0.1717957E+04  0.7818608E-02  0.8751189E-01
         -3   -1    0    0    0  501 -0.00000000000E+00  0.00000000000E+00  0.30418481877E+03  0.30418481877E+03  0.00000000000E+00 0.  1.
          3   -1    0    0  501    0  0.00000000000E+00 -0.00000000000E+00 -0.24256431459E+04  0.24256431459E+04  0.00000000000E+00 0. -1.
         23    2    1    2    0    0  0.13795108745E+03 -0.34009206153E+03 -0.15742723957E+04  0.16191338319E+04  0.92561747873E+02 0.  0.
        254    2    1    2    0    0 -0.13795108745E+03  0.34009206153E+03 -0.54718593151E+03  0.11106941328E+04  0.89416771362E+03 0.  0.
        -24    2    4    4    0    0  0.24476237752E+03  0.10387512721E+03  0.11822708877E+03  0.30340108277E+03  0.85883112483E+02 0.  0.
         24    2    4    4    0    0 -0.38271346496E+03  0.23621693433E+03 -0.66541302028E+03  0.80729305000E+03  0.81728481508E+02 0.  0.
         11    1    3    3    0    0  0.11254687226E+03 -0.29445785810E+03 -0.11785824763E+04  0.12200118368E+04  0.00000000000E+00 0. -1.
        -11    1    3    3    0    0  0.25404215185E+02 -0.45634203431E+02 -0.39568991940E+03  0.39912199511E+03  0.00000000000E+00 0.  1.
          2    1    6    6  502    0 -0.90866531199E+02  0.31632629890E+02 -0.98824023784E+02  0.13792584037E+03  0.00000000000E+00 0. -1.
          1    1    5    5  503    0  0.65841170503E+02  0.49450462484E+02  0.36542348749E+00  0.82344043546E+02  0.00000000000E+00 0. -1.
         -2    1    5    5    0  503  0.17892120701E+03  0.54424664723E+02  0.11786166528E+03  0.22105703923E+03  0.00000000000E+00 0.  1.
         -3    1    6    6    0  502 -0.29184693376E+03  0.20458430444E+03 -0.56658899650E+03  0.66936720963E+03  0.00000000000E+00 0.  1.
<mgrwt>
<rscale>  0 0.17179567E+04</rscale>
<asrwt>0</asrwt>
<pdfrwt beam="1">  1        3 0.37317585E+00 0.17179567E+04</pdfrwt>
<pdfrwt beam="2">  1       -3 0.46797666E-01 0.17179567E+04</pdfrwt>
<totfact> 0.17562925E-01</totfact>
</mgrwt>
</event>
<event>
12    1  0.1496989E-007  0.1468278E+04  0.7818608E-02  0.8905826E-01
          1   -1    0    0  501    0  0.00000000000E+00  0.00000000000E+00  0.41024443785E+03  0.41024443785E+03  0.00000000000E+00 0. -1.
         -1   -1    0    0    0  501 -0.00000000000E+00 -0.00000000000E+00 -0.13137538131E+04  0.13137538131E+04  0.00000000000E+00 0.  1.
         23    2    1    2    0    0  0.35256511242E+03  0.15391268232E+03 -0.63537565704E+01  0.39529799167E+03  0.90713062585E+02 0.  0.
        254    2    1    2    0    0 -0.35256511242E+03 -0.15391268232E+03 -0.89715561868E+03  0.13287002593E+04  0.90142381964E+03 0.  0.
        -24    2    4    4    0    0 -0.15882112634E+03  0.35372911319E+03 -0.55615629179E+03  0.68273050310E+03  0.80390815926E+02 0.  0.
         24    2    4    4    0    0 -0.19374398608E+03 -0.50764179550E+03 -0.34099932690E+03  0.64596975618E+03  0.75891107991E+02 0.  0.
         11    1    3    3    0    0  0.43341872580E+02  0.48552844876E+02  0.18534595608E+02  0.67671470344E+02  0.00000000000E+00 0.  1.
        -11    1    3    3    0    0  0.30922323984E+03  0.10535983744E+03 -0.24888352178E+02  0.32762652133E+03  0.00000000000E+00 0. -1.
          4    1    6    6  502    0 -0.48221321168E+02 -0.56213417567E+02 -0.39313010625E+02  0.83849609028E+02  0.00000000000E+00 0. -1.
          1    1    5    5  503    0  0.61855479221E+01  0.48617777377E+02 -0.74325150990E+02  0.89029081485E+02  0.00000000000E+00 0. -1.
         -2    1    5    5    0  503 -0.16500667427E+03  0.30511133581E+03 -0.48183114080E+03  0.59370142162E+03  0.00000000000E+00 0.  1.
         -3    1    6    6    0  502 -0.14552266491E+03 -0.45142837794E+03 -0.30168631627E+03  0.56212014715E+03  0.00000000000E+00 0.  1.
<mgrwt>
<rscale>  0 0.14682782E+04</rscale>
<asrwt>0</asrwt>
<pdfrwt beam="1">  1        1 0.63114529E-01 0.14682782E+04</pdfrwt>
<pdfrwt beam="2">  1       -1 0.20211597E+00 0.14682782E+04</pdfrwt>
<totfact> 0.81855235E+00</totfact>
</mgrwt>
</event>
<event>
12    1  0.1496989E-007  0.2657139E+04  0.7818608E-02  0.8349047E-01
         -2   -1    0    0    0  501 -0.00000000000E+00  0.00000000000E+00  0.45390524657E+03  0.45390524657E+03  0.00000000000E+00 0.  1.
          2   -1    0    0  501    0  0.00000000000E+00 -0.00000000000E+00 -0.38886897554E+04  0.38886897554E+04  0.00000000000E+00 0. -1.
         23    2    1    2    0    0  0.74959813020E+03  0.86626433456E+03 -0.19375170942E+04  0.22526838055E+04  0.91107535429E+02 0.  0.
        254    2    1    2    0    0 -0.74959813020E+03 -0.86626433456E+03 -0.14972674146E+04  0.20899111964E+04  0.90200213090E+03 0.  0.
        -24    2    4    4    0    0 -0.75359515393E+03 -0.85663657074E+03 -0.81894884063E+03  0.14066053211E+04  0.78290838099E+02 0.  0.
         24    2    4    4    0    0  0.39970237307E+01 -0.96277638219E+01 -0.67831857393E+03  0.68330587537E+03  0.81744489361E+02 0.  0.
         11    1    3    3    0    0  0.48619300820E+03  0.60851620063E+03 -0.13722421730E+04  0.15778859873E+04  0.00000000000E+00 0. -1.
        -11    1    3    3    0    0  0.26340512199E+03  0.25774813393E+03 -0.56527492123E+03  0.67479781817E+03  0.00000000000E+00 0.  1.
          4    1    6    6  502    0 -0.38680818255E+02 -0.19817465043E+01 -0.35011397990E+03  0.35224981468E+03  0.00000000000E+00 0. -1.
          1    1    5    5  503    0 -0.43235802648E+03 -0.52574348012E+03 -0.44977303977E+03  0.81586485232E+03  0.00000000000E+00 0. -1.
         -2    1    5    5    0  503 -0.32123712745E+03 -0.33089309062E+03 -0.36917580087E+03  0.59074046875E+03  0.00000000000E+00 0.  1.
         -3    1    6    6    0  502  0.42677841985E+02 -0.76460173176E+01 -0.32820459403E+03  0.33105606069E+03  0.00000000000E+00 0.  1.
<mgrwt>
<rscale>  0 0.26571388E+04</rscale>
<asrwt>0</asrwt>
<pdfrwt beam="1">  1        2 0.59825997E+00 0.26571388E+04</pdfrwt>
<pdfrwt beam="2">  1       -2 0.69831575E-01 0.26571388E+04</pdfrwt>
<totfact> 0.69124990E-01</totfact>
</mgrwt>
</event>
<event>
12    1  0.1496989E-007  0.1780280E+04  0.7818608E-02  0.8716857E-01
          2   -1    0    0  501    0  0.00000000000E+00  0.00000000000E+00  0.36310764862E+03  0.36310764862E+03  0.00000000000E+00 0. -1.
         -2   -1    0    0    0  501 -0.00000000000E+00 -0.00000000000E+00 -0.21821340096E+04  0.21821340096E+04  0.00000000000E+00 0.  1.
         23    2    1    2    0    0 -0.20187784219E+03  0.60544058587E+03 -0.47709095255E+03  0.80203121596E+03  0.91243236409E+02 0.  0.
        254    2    1    2    0    0  0.20187784219E+03 -0.60544058587E+03 -0.13419354084E+04  0.17432104423E+04  0.91141595301E+03 0.  0.
        -24    2    4    4    0    0  0.21801052869E+03 -0.45405437960E+03 -0.14521620997E+04  0.15390583219E+04  0.78941650053E+02 0.  0.
         24    2    4    4    0    0 -0.16132686496E+02 -0.15138620628E+03  0.11022669131E+03  0.20415212033E+03  0.79687625973E+02 0.  0.
         11    1    3    3    0    0 -0.13097198236E+03  0.44125358352E+03 -0.38912748645E+03  0.60272596247E+03  0.00000000000E+00 0.  1.
        -11    1    3    3    0    0 -0.70905859835E+02  0.16418700235E+03 -0.87963466097E+02  0.19930525349E+03  0.00000000000E+00 0. -1.
          4    1    6    6  502    0  0.29565516799E+02 -0.93618388994E+02  0.62287225544E+02  0.11626788468E+03  0.00000000000E+00 0. -1.
          1    1    5    5  503    0  0.21411920127E+03 -0.39364064830E+03 -0.12427208081E+04  0.13210431481E+04  0.00000000000E+00 0. -1.
         -2    1    5    5    0  503  0.38913274122E+01 -0.60413731293E+02 -0.20944129168E+03  0.21801517383E+03  0.00000000000E+00 0.  1.
         -3    1    6    6    0  502 -0.45698203296E+02 -0.57767817282E+02  0.47939465770E+02  0.87884235653E+02  0.00000000000E+00 0.  1.
<mgrwt>
<rscale>  0 0.17802804E+04</rscale>
<asrwt>0</asrwt>
<pdfrwt beam="1">  1        2 0.55862715E-01 0.17802804E+04</pdfrwt>
<pdfrwt beam="2">  1       -2 0.33571292E+00 0.17802804E+04</pdfrwt>
<totfact> 0.16089480E+00</totfact>
</mgrwt>
</event>
<event>
12    1  0.1496989E-007  0.2633259E+04  0.7818608E-02  0.8356991E-01
         -1   -1    0    0    0  501 -0.00000000000E+00  0.00000000000E+00  0.11630829497E+04  0.11630829497E+04  0.00000000000E+00 0.  1.
          1   -1    0    0  501    0  0.00000000000E+00 -0.00000000000E+00 -0.14904467558E+04  0.14904467558E+04  0.00000000000E+00 0. -1.
         23    2    1    2    0    0  0.43775406146E+03 -0.35632030086E+03 -0.11773896951E+04  0.13088364136E+04  0.90628297779E+02 0.  0.
        254    2    1    2    0    0 -0.43775406146E+03  0.35632030086E+03  0.85002588890E+03  0.13446932919E+04  0.87582147860E+03 0.  0.
        -24    2    4    4    0    0  0.22730136054E+03  0.13899942441E+03  0.53935056828E+02  0.28213678684E+03  0.75534281246E+02 0.  0.
         24    2    4    4    0    0 -0.66505542200E+03  0.21732087644E+03  0.79609083207E+03  0.10625565051E+04  0.75753784667E+02 0.  0.
         11    1    3    3    0    0  0.16563791655E+01 -0.76972787725E+01 -0.51687467264E+02  0.52283706492E+02  0.00000000000E+00 0.  1.
        -11    1    3    3    0    0  0.43609768229E+03 -0.34862302208E+03 -0.11257022278E+04  0.12565527071E+04  0.00000000000E+00 0. -1.
          4    1    6    6  502    0 -0.41182346999E+03  0.10251914943E+03  0.44885890759E+03  0.61772410132E+03  0.00000000000E+00 0. -1.
          1    1    5    5  503    0  0.11817402071E+02  0.28755472785E+02  0.21787911617E+02  0.37963683955E+02  0.00000000000E+00 0. -1.
         -2    1    5    5    0  503  0.21548395847E+03  0.11024395163E+03  0.32147145212E+02  0.24417310288E+03  0.00000000000E+00 0.  1.
         -3    1    6    6    0  502 -0.25323195201E+03  0.11480172702E+03  0.34723192448E+03  0.44483240374E+03  0.00000000000E+00 0.  1.
<mgrwt>
<rscale>  0 0.26332590E+04</rscale>
<asrwt>0</asrwt>
<pdfrwt beam="1">  1        1 0.22929950E+00 0.26332590E+04</pdfrwt>
<pdfrwt beam="2">  1       -1 0.17893584E+00 0.26332590E+04</pdfrwt>
<totfact> 0.12356555E+00</totfact>
</mgrwt>
</event>
<event>
12    1  0.1496989E-007  0.1338159E+04  0.7818608E-02  0.8999840E-01
         -1   -1    0    0    0  501 -0.00000000000E+00  0.00000000000E+00  0.39306397968E+03  0.39306397968E+03  0.00000000000E+00 0.  1.
          1   -1    0    0  501    0  0.00000000000E+00 -0.00000000000E+00 -0.11389170850E+04  0.11389170850E+04  0.00000000000E+00 0. -1.
         23    2    1    2    0    0 -0.21574522718E+03 -0.27670135485E+03 -0.87157410084E+02  0.37279411030E+03  0.90936195836E+02 0.  0.
        254    2    1    2    0    0  0.21574522718E+03  0.27670135485E+03 -0.65869569529E+03  0.11591869544E+04  0.88697504670E+03 0.  0.
        -24    2    4    4    0    0  0.19652885323E+03 -0.62451818361E+02 -0.76369426900E+03  0.79495187598E+03  0.78712952205E+02 0.  0.
         24    2    4    4    0    0  0.19216373949E+02  0.33915317322E+03  0.10499857372E+03  0.36423507844E+03  0.79046492358E+02 0.  0.
         11    1    3    3    0    0 -0.17567222396E+03 -0.23698436587E+03 -0.10576783350E+03  0.31338339863E+03  0.00000000000E+00 0. -1.
        -11    1    3    3    0    0 -0.40073003221E+02 -0.39716988987E+02  0.18610423412E+02  0.59410711668E+02  0.00000000000E+00 0.  1.
          4    1    6    6  502    0 -0.18546598875E+02  0.11587302441E+03  0.72016511422E+01  0.11756869437E+03  0.00000000000E+00 0. -1.
          1    1    5    5  503    0  0.13195036707E+03 -0.51902875864E+01 -0.40338203917E+03  0.42444659026E+03  0.00000000000E+00 0. -1.
         -2    1    5    5    0  503  0.64578486168E+02 -0.57261530775E+02 -0.36031222983E+03  0.37050528572E+03  0.00000000000E+00 0.  1.
         -3    1    6    6    0  502  0.37762972824E+02  0.22328014880E+03  0.97796922574E+02  0.24666638407E+03  0.00000000000E+00 0.  1.
<mgrwt>
<rscale>  0 0.13381589E+04</rscale>
<asrwt>0</asrwt>
<pdfrwt beam="1">  1        1 0.17521801E+00 0.13381589E+04</pdfrwt>
<pdfrwt beam="2">  1       -1 0.60471382E-01 0.13381589E+04</pdfrwt>
<totfact> 0.32208210E+01</totfact>
</mgrwt>
</event>
<event>
12    1  0.1496989E-007  0.2059508E+04  0.7818608E-02  0.8579293E-01
         -2   -1    0    0    0  501 -0.00000000000E+00  0.00000000000E+00  0.64565922299E+03  0.64565922299E+03  0.00000000000E+00 0.  1.
          2   -1    0    0  501    0  0.00000000000E+00 -0.00000000000E+00 -0.16423424077E+04  0.16423424077E+04  0.00000000000E+00 0. -1.
         23    2    1    2    0    0  0.17137524920E+03 -0.37275547898E+03  0.39136517755E+03  0.57732369111E+03  0.10871899087E+03 0.  0.
        254    2    1    2    0    0 -0.17137524920E+03  0.37275547898E+03 -0.13880483622E+04  0.17106779395E+04  0.91182489208E+03 0.  0.
        -24    2    4    4    0    0 -0.23818673322E+03 -0.23436771901E+03 -0.74440826445E+03  0.81973872546E+03  0.78528760685E+02 0.  0.
         24    2    4    4    0    0  0.66811484017E+02  0.60712319798E+03 -0.64364009779E+03  0.89093921409E+03  0.80235626684E+02 0.  0.
         11    1    3    3    0    0  0.44191202490E+02 -0.24874568836E+02  0.25764022274E+02  0.56880501018E+02  0.00000000000E+00 0. -1.
        -11    1    3    3    0    0  0.12718404671E+03 -0.34788091014E+03  0.36560115527E+03  0.52044319009E+03  0.00000000000E+00 0.  1.
          2    1    6    6  502    0  0.48456819828E+02  0.20002426028E+03 -0.17745226540E+03  0.27174818230E+03  0.00000000000E+00 0. -1.
          1    1    5    5  503    0 -0.12322662862E+03 -0.80401023308E+02 -0.26230676438E+03  0.30075565696E+03  0.00000000000E+00 0. -1.
         -2    1    5    5    0  503 -0.11496010459E+03 -0.15396669570E+03 -0.48210150006E+03  0.51898306851E+03  0.00000000000E+00 0.  1.
         -1    1    6    6    0  502  0.18354664190E+02  0.40709893771E+03 -0.46618783239E+03  0.61919103179E+03  0.00000000000E+00 0.  1.
<mgrwt>
<rscale>  0 0.20595082E+04</rscale>
<asrwt>0</asrwt>
<pdfrwt beam="1">  1        2 0.25266806E+00 0.20595082E+04</pdfrwt>
<pdfrwt beam="2">  1       -2 0.99332188E-01 0.20595082E+04</pdfrwt>
<totfact> 0.81945757E+00</totfact>
</mgrwt>
</event>
<event>
12    1  0.1496989E-007  0.2961969E+04  0.7818608E-02  0.8254675E-01
          1   -1    0    0  501    0  0.00000000000E+00  0.00000000000E+00  0.70997891084E+03  0.70997891084E+03  0.00000000000E+00 0. -1.
         -1   -1    0    0    0  501 -0.00000000000E+00 -0.00000000000E+00 -0.30892669686E+04  0.30892669686E+04  0.00000000000E+00 0.  1.
         23    2    1    2    0    0 -0.78867136613E+03  0.12478977902E+03 -0.24524336071E+04  0.25807696097E+04  0.91466763284E+02 0.  0.
        254    2    1    2    0    0  0.78867136613E+03 -0.12478977902E+03  0.73145549322E+02  0.12184762697E+04  0.91747432427E+03 0.  0.
        -24    2    4    4    0    0  0.30967267280E+03 -0.27797324696E+03  0.42445562415E+03  0.59987898898E+03  0.80783254728E+02 0.  0.
         24    2    4    4    0    0  0.47899869334E+03  0.15318346794E+03 -0.35131007483E+03  0.61859728070E+03  0.79617233998E+02 0.  0.
         13    1    3    3    0    0 -0.50474710329E+02  0.27816990151E+02 -0.22156442725E+03  0.22893727688E+03  0.00000000000E+00 0. -1.
        -13    1    3    3    0    0 -0.73819665580E+03  0.96972788869E+02 -0.22308691798E+04  0.23518323329E+04  0.00000000000E+00 0.  1.
          4    1    6    6  502    0  0.31075535446E+03  0.72497996067E+02 -0.25586196656E+03  0.40901124152E+03  0.00000000000E+00 0. -1.
          3    1    5    5  503    0  0.73899223111E+02 -0.11700182240E+03  0.13512474522E+03  0.19341462818E+03  0.00000000000E+00 0. -1.
         -4    1    5    5    0  503  0.23577344968E+03 -0.16097142456E+03  0.28933087893E+03  0.40646436080E+03  0.00000000000E+00 0.  1.
         -3    1    6    6    0  502  0.16824333888E+03  0.80685471876E+02 -0.95448108269E+02  0.20958603918E+03  0.00000000000E+00 0.  1.
<mgrwt>
<rscale>  0 0.29619685E+04</rscale>
<asrwt>0</asrwt>
<pdfrwt beam="1">  1        1 0.10922752E+00 0.29619685E+04</pdfrwt>
<pdfrwt beam="2">  1       -1 0.47527184E+00 0.29619685E+04</pdfrwt>
<totfact> 0.49384957E-02</totfact>
</mgrwt>
</event>
<event>
12    1  0.1496989E-007  0.3005947E+04  0.7818608E-02  0.8242035E-01
          1   -1    0    0  501    0  0.00000000000E+00  0.00000000000E+00  0.16797138465E+04  0.16797138465E+04  0.00000000000E+00 0. -1.
         -1   -1    0    0    0  501 -0.00000000000E+00 -0.00000000000E+00 -0.13448302012E+04  0.13448302012E+04  0.00000000000E+00 0.  1.
         23    2    1    2    0    0  0.10440775793E+04  0.28275213390E+02  0.10377006019E+04  0.14755339744E+04  0.97367813516E+02 0.  0.
        254    2    1    2    0    0 -0.10440775793E+04 -0.28275213390E+02 -0.70281695667E+03  0.15490100732E+04  0.90254254916E+03 0.  0.
        -24    2    4    4    0    0  0.72262652000E+02  0.78564356484E+02  0.10090123827E+03  0.16702451720E+03  0.79510253920E+02 0.  0.
         24    2    4    4    0    0 -0.11163402313E+04 -0.10683956987E+03 -0.80371819494E+03  0.13819855560E+04  0.79315410968E+02 0.  0.
         11    1    3    3    0    0  0.63151399670E+03  0.41926739371E+02  0.57024883658E+03  0.85191050887E+03  0.00000000000E+00 0. -1.
        -11    1    3    3    0    0  0.41256358264E+03 -0.13651525981E+02  0.46745176533E+03  0.62362346556E+03  0.00000000000E+00 0.  1.
          2    1    6    6  502    0 -0.79860117486E+03 -0.48778059878E+02 -0.54389365431E+03  0.96745203644E+03  0.00000000000E+00 0. -1.
          3    1    5    5  503    0  0.88450917369E+01  0.70809157757E+01 -0.13720346014E+02  0.17793900944E+02  0.00000000000E+00 0. -1.
         -4    1    5    5    0  503  0.63417560263E+02  0.71483440709E+02  0.11462158428E+03  0.14923061626E+03  0.00000000000E+00 0.  1.
         -1    1    6    6    0  502 -0.31773905648E+03 -0.58061509996E+02 -0.25982454063E+03  0.41453351960E+03  0.00000000000E+00 0.  1.
<mgrwt>
<rscale>  0 0.30059474E+04</rscale>
<asrwt>0</asrwt>
<pdfrwt beam="1">  1        1 0.25841752E+00 0.30059474E+04</pdfrwt>
<pdfrwt beam="2">  1       -1 0.20689695E+00 0.30059474E+04</pdfrwt>
<totfact> 0.56493256E-01</totfact>
</mgrwt>
</event>
<event>
12    1  0.1496989E-007  0.2348700E+04  0.7818608E-02  0.8458963E-01
          2   -1    0    0  501    0  0.00000000000E+00  0.00000000000E+00  0.13519912918E+04  0.13519912918E+04  0.00000000000E+00 0. -1.
         -2   -1    0    0    0  501 -0.00000000000E+00 -0.00000000000E+00 -0.10200495445E+04  0.10200495445E+04  0.00000000000E+00 0.  1.
         23    2    1    2    0    0  0.47047336524E+03 -0.60217047841E+03  0.79750749133E+03  0.11082414518E+04  0.90699747772E+02 0.  0.
        254    2    1    2    0    0 -0.47047336524E+03  0.60217047841E+03 -0.46556574404E+03  0.12637993845E+04  0.89245893456E+03 0.  0.
        -24    2    4    4    0    0 -0.36582407193E+03  0.75322868521E+03 -0.10057847827E+03  0.84712409885E+03  0.79514179463E+02 0.  0.
         24    2    4    4    0    0 -0.10464929331E+03 -0.15105820680E+03 -0.36498726578E+03  0.41667528569E+03  0.81440365280E+02 0.  0.
         13    1    3    3    0    0  0.43538863934E+03 -0.58570093134E+03  0.76864727387E+03  0.10599186195E+04  0.00000000000E+00 0. -1.
        -13    1    3    3    0    0  0.35084725893E+02 -0.16469547066E+02  0.28860217461E+02  0.48322832320E+02  0.00000000000E+00 0.  1.
          4    1    6    6  502    0 -0.86329247386E+02 -0.53445737954E+02 -0.19263302172E+03  0.21775368405E+03  0.00000000000E+00 0. -1.
          1    1    5    5  503    0 -0.35769674228E+03  0.72720376222E+03 -0.82931876055E+02  0.81464714281E+03  0.00000000000E+00 0. -1.
         -2    1    5    5    0  503 -0.81273296464E+01  0.26024922988E+02 -0.17646602212E+02  0.32476956035E+02  0.00000000000E+00 0.  1.
         -3    1    6    6    0  502 -0.18320045924E+02 -0.97612468845E+02 -0.17235424406E+03  0.19892160165E+03  0.00000000000E+00 0.  1.
<mgrwt>
<rscale>  0 0.23487002E+04</rscale>
<asrwt>0</asrwt>
<pdfrwt beam="1">  1        2 0.20799866E+00 0.23487002E+04</pdfrwt>
<pdfrwt beam="2">  1       -2 0.15693070E+00 0.23487002E+04</pdfrwt>
<totfact> 0.36976821E+00</totfact>
</mgrwt>
</event>
<event>
12    1  0.1496989E-007  0.1503286E+04  0.7818608E-02  0.8882270E-01
         -1   -1    0    0    0  501 -0.00000000000E+00  0.00000000000E+00  0.25479812030E+03  0.25479812030E+03  0.00000000000E+00 0.  1.
          1   -1    0    0  501    0  0.00000000000E+00 -0.00000000000E+00 -0.22173145015E+04  0.22173145015E+04  0.00000000000E+00 0. -1.
         23    2    1    2    0    0  0.33102165153E+03 -0.16579994183E+03 -0.11472615034E+04  0.12089343832E+04  0.90820874735E+02 0.  0.
        254    2    1    2    0    0 -0.33102165153E+03  0.16579994183E+03 -0.81525487776E+03  0.12631782385E+04  0.89101840165E+03 0.  0.
        -24    2    4    4    0    0  0.30032303292E+03  0.20590571966E+02 -0.24663883338E+03  0.39758598814E+03  0.81400295302E+02 0.  0.
         24    2    4    4    0    0 -0.63134468446E+03  0.14520936987E+03 -0.56861604438E+03  0.86559225039E+03  0.79018139205E+02 0.  0.
         11    1    3    3    0    0  0.28298442604E+03 -0.10130145668E+03 -0.88840553896E+03  0.93787343078E+03  0.00000000000E+00 0. -1.
        -11    1    3    3    0    0  0.48037225493E+02 -0.64498485149E+02 -0.25885596446E+03  0.27106095247E+03  0.00000000000E+00 0.  1.
          4    1    6    6  502    0 -0.62035350614E+03  0.13108720692E+03 -0.54592522835E+03  0.83669390063E+03  0.00000000000E+00 0. -1.
          1    1    5    5  503    0  0.27583682079E+03 -0.48088725154E+01 -0.20990851448E+03  0.34665640252E+03  0.00000000000E+00 0. -1.
         -2    1    5    5    0  503  0.24486212133E+02  0.25399444482E+02 -0.36730318899E+02  0.50929585616E+02  0.00000000000E+00 0.  1.
         -3    1    6    6    0  502 -0.10991178317E+02  0.14122162946E+02 -0.22690816024E+02  0.28898349760E+02  0.00000000000E+00 0.  1.
<mgrwt>
<rscale>  0 0.15032865E+04</rscale>
<asrwt>0</asrwt>
<pdfrwt beam="1">  1        1 0.34112530E+00 0.15032865E+04</pdfrwt>
<pdfrwt beam="2">  1       -1 0.39199711E-01 0.15032865E+04</pdfrwt>
<totfact> 0.12975789E+01</totfact>
</mgrwt>
</event>
<event>
12    1  0.1496989E-007  0.1594404E+04  0.7818608E-02  0.8823993E-01
          2   -1    0    0  501    0  0.00000000000E+00  0.00000000000E+00  0.74256797483E+03  0.74256797483E+03  0.00000000000E+00 0. -1.
         -2   -1    0    0    0  501 -0.00000000000E+00 -0.00000000000E+00 -0.85585551644E+03  0.85585551644E+03  0.00000000000E+00 0.  1.
         23    2    1    2    0    0  0.12273212398E+03 -0.15651564648E+03 -0.54165512179E+03  0.58490190886E+03  0.95706061380E+02 0.  0.
        254    2    1    2    0    0 -0.12273212398E+03  0.15651564648E+03  0.42836758018E+03  0.10135215824E+04  0.89675352936E+03 0.  0.
        -24    2    4    4    0    0  0.35262419311E+03 -0.81583447273E+02  0.10111980558E+03  0.38387434008E+03  0.78323773222E+02 0.  0.
         24    2    4    4    0    0 -0.47535631709E+03  0.23809909376E+03  0.32724777460E+03  0.62964724234E+03  0.81912985270E+02 0.  0.
         11    1    3    3    0    0  0.66334789645E+02 -0.98515848612E+02 -0.43567752547E+03  0.45157566691E+03  0.00000000000E+00 0.  1.
        -11    1    3    3    0    0  0.56397334330E+02 -0.57999797870E+02 -0.10597759632E+03  0.13332624196E+03  0.00000000000E+00 0. -1.
          2    1    6    6  502    0 -0.27711588245E+03  0.93174240584E+02  0.17796255222E+03  0.34226498712E+03  0.00000000000E+00 0. -1.
          1    1    5    5  503    0  0.30305442945E+03 -0.81540255480E+02  0.60104776203E+02  0.31953620232E+03  0.00000000000E+00 0. -1.
         -2    1    5    5    0  503  0.49569763665E+02 -0.43191792879E-01  0.41015029372E+02  0.64338137754E+02  0.00000000000E+00 0.  1.
         -1    1    6    6    0  502 -0.19824043464E+03  0.14492485317E+03  0.14928522238E+03  0.28738225522E+03  0.00000000000E+00 0.  1.
<mgrwt>
<rscale>  0 0.15944038E+04</rscale>
<asrwt>0</asrwt>
<pdfrwt beam="1">  1        2 0.11424123E+00 0.15944038E+04</pdfrwt>
<pdfrwt beam="2">  1       -2 0.13167008E+00 0.15944038E+04</pdfrwt>
<totfact> 0.15318505E+01</totfact>
</mgrwt>
</event>
<event>
12    1  0.1496989E-007  0.1301101E+04  0.7818608E-02  0.9028693E-01
          1   -1    0    0  501    0  0.00000000000E+00  0.00000000000E+00  0.23989313719E+04  0.23989313719E+04  0.00000000000E+00 0. -1.
         -1   -1    0    0    0  501 -0.00000000000E+00 -0.00000000000E+00 -0.17641844287E+03  0.17641844287E+03  0.00000000000E+00 0.  1.
         23    2    1    2    0    0  0.30453454687E+03  0.79960861448E+01  0.86020505414E+03  0.91715327648E+03  0.91717881326E+02 0.  0.
        254    2    1    2    0    0 -0.30453454687E+03 -0.79960861448E+01  0.13623078749E+04  0.16581965383E+04  0.89494568886E+03 0.  0.
        -24    2    4    4    0    0 -0.34630569852E+03 -0.37536041077E+03  0.51214580031E+03  0.72772576242E+03  0.80426299938E+02 0.  0.
         24    2    4    4    0    0  0.41771151650E+02  0.36736432462E+03  0.85016207459E+03  0.93047077588E+03  0.79365833902E+02 0.  0.
         11    1    3    3    0    0  0.22396812965E+03 -0.23913428634E+02  0.69519503699E+03  0.73077336748E+03  0.00000000000E+00 0. -1.
        -11    1    3    3    0    0  0.80566417215E+02  0.31909514779E+02  0.16501001715E+03  0.18637990900E+03  0.00000000000E+00 0.  1.
          4    1    6    6  502    0  0.12644767555E+02  0.17721529098E+03  0.31308327869E+03  0.35998095630E+03  0.00000000000E+00 0. -1.
          1    1    5    5  503    0 -0.14357434627E+03 -0.11544704342E+03  0.22292922133E+03  0.28920416744E+03  0.00000000000E+00 0. -1.
         -2    1    5    5    0  503 -0.20273135224E+03 -0.25991336735E+03  0.28921657898E+03  0.43852159498E+03  0.00000000000E+00 0.  1.
         -3    1    6    6    0  502  0.29126384095E+02  0.19014903364E+03  0.53707879589E+03  0.57048981958E+03  0.00000000000E+00 0.  1.
<mgrwt>
<rscale>  0 0.13011007E+04</rscale>
<asrwt>0</asrwt>
<pdfrwt beam="1">  1        1 0.36906634E+00 0.13011007E+04</pdfrwt>
<pdfrwt beam="2">  1       -1 0.27141301E-01 0.13011007E+04</pdfrwt>
<totfact> 0.19075275E+01</totfact>
</mgrwt>
</event>
<event>
12    1  0.1496989E-007  0.3453863E+04  0.7818608E-02  0.8124812E-01
         -3   -1    0    0    0  501 -0.00000000000E+00  0.00000000000E+00  0.24023265816E+04  0.24023265816E+04  0.00000000000E+00 0.  1.
          3   -1    0    0  501    0  0.00000000000E+00 -0.00000000000E+00 -0.12414181427E+04  0.12414181427E+04  0.00000000000E+00 0. -1.
         23    2    1    2    0    0  0.60887514442E+03 -0.98394189012E+03  0.17184400241E+04  0.20736947899E+04  0.91122888900E+02 0.  0.
        254    2    1    2    0    0 -0.60887514442E+03  0.98394189012E+03 -0.55753158518E+03  0.15700499343E+04  0.90296441966E+03 0.  0.
        -24    2    4    4    0    0  0.14529153608E+03  0.55455961179E+03 -0.34258665054E+03  0.67252283010E+03  0.79217109230E+02 0.  0.
         24    2    4    4    0    0 -0.75416668050E+03  0.42938227833E+03 -0.21494493463E+03  0.89752710422E+03  0.78848303457E+02 0.  0.
         11    1    3    3    0    0  0.31474822463E+03 -0.42283502221E+03  0.77246978704E+03  0.93518205329E+03  0.00000000000E+00 0. -1.
        -11    1    3    3    0    0  0.29412691979E+03 -0.56110686791E+03  0.94597023702E+03  0.11385127366E+04  0.00000000000E+00 0.  1.
          2    1    6    6  502    0 -0.20433975889E+03  0.84099758137E+02 -0.34337043228E+02  0.22362141874E+03  0.00000000000E+00 0. -1.
          1    1    5    5  503    0  0.94709822403E+02  0.44332054804E+03 -0.29772176820E+03  0.54234796029E+03  0.00000000000E+00 0. -1.
         -2    1    5    5    0  503  0.50581713679E+02  0.11123906375E+03 -0.44864882345E+02  0.13017486981E+03  0.00000000000E+00 0.  1.
         -1    1    6    6    0  502 -0.54982692161E+03  0.34528252019E+03 -0.18060789141E+03  0.67390568547E+03  0.00000000000E+00 0.  1.
<mgrwt>
<rscale>  0 0.34538627E+04</rscale>
<asrwt>0</asrwt>
<pdfrwt beam="1">  1        3 0.19098741E+00 0.34538627E+04</pdfrwt>
<pdfrwt beam="2">  1       -3 0.36958870E+00 0.34538627E+04</pdfrwt>
<totfact> 0.55855166E-03</totfact>
</mgrwt>
</event>
<event>
12    1  0.1496989E-007  0.3041381E+04  0.7818608E-02  0.8232012E-01
          1   -1    0    0  501    0  0.00000000000E+00  0.00000000000E+00  0.11759073308E+04  0.11759073308E+04  0.00000000000E+00 0. -1.
         -1   -1    0    0    0  501 -0.00000000000E+00 -0.00000000000E+00 -0.19665656882E+04  0.19665656882E+04  0.00000000000E+00 0.  1.
         23    2    1    2    0    0  0.30910403549E+03 -0.10002289856E+04 -0.13000618506E+04  0.16717084593E+04  0.91896839925E+02 0.  0.
        254    2    1    2    0    0 -0.30910403549E+03  0.10002289856E+04  0.50940349319E+03  0.14707645596E+04  0.89869524460E+03 0.  0.
        -24    2    4    4    0    0 -0.43477705034E+03  0.77478520679E+03 -0.31371602719E+01  0.89180135219E+03  0.77308536541E+02 0.  0.
         24    2    4    4    0    0  0.12567301485E+03  0.22544377877E+03  0.51254065346E+03  0.57896320744E+03  0.76693350896E+02 0.  0.
         11    1    3    3    0    0  0.25731116607E+03 -0.75155968491E+03 -0.10332251253E+04  0.13033054729E+04  0.00000000000E+00 0.  1.
        -11    1    3    3    0    0  0.51792869417E+02 -0.24866930065E+03 -0.26683672528E+03  0.36840298637E+03  0.00000000000E+00 0. -1.
          4    1    6    6  502    0  0.10892510263E+03  0.20943197499E+03  0.49926068174E+03  0.55225687724E+03  0.00000000000E+00 0. -1.
          3    1    5    5  503    0 -0.16978998994E+03  0.37914402716E+03 -0.10569562228E+02  0.41556052467E+03  0.00000000000E+00 0. -1.
         -4    1    5    5    0  503 -0.26498706039E+03  0.39564117963E+03  0.74324019560E+01  0.47624082752E+03  0.00000000000E+00 0.  1.
         -3    1    6    6    0  502  0.16747912212E+02  0.16011803778E+02  0.13279971728E+02  0.26706330201E+02  0.00000000000E+00 0.  1.
<mgrwt>
<rscale>  0 0.30413806E+04</rscale>
<asrwt>0</asrwt>
<pdfrwt beam="1">  1        1 0.18090882E+00 0.30413806E+04</pdfrwt>
<pdfrwt beam="2">  1       -1 0.30254856E+00 0.30413806E+04</pdfrwt>
<totfact> 0.30003925E-01</totfact>
</mgrwt>
</event>
<event>
12    1  0.1496989E-007  0.3271981E+04  0.7818608E-02  0.8170062E-01
         -2   -1    0    0    0  501 -0.00000000000E+00  0.00000000000E+00  0.17098435982E+04  0.17098435982E+04  0.00000000000E+00 0.  1.
          2   -1    0    0  501    0  0.00000000000E+00 -0.00000000000E+00 -0.15653277320E+04  0.15653277320E+04  0.00000000000E+00 0. -1.
         23    2    1    2    0    0  0.14111805922E+04 -0.25696813932E+03  0.55143383796E+03  0.15396090895E+04  0.94093477151E+02 0.  0.
        254    2    1    2    0    0 -0.14111805922E+04  0.25696813932E+03 -0.40691797174E+03  0.17355622407E+04  0.88833032550E+03 0.  0.
        -24    2    4    4    0    0 -0.13063849817E+04 -0.30489068419E+02 -0.13072392614E+03  0.13158015849E+04  0.81693096823E+02 0.  0.
         24    2    4    4    0    0 -0.10479561047E+03  0.28745720773E+03 -0.27619404560E+03  0.41976065584E+03  0.79385711038E+02 0.  0.
         13    1    3    3    0    0  0.63314617599E+03 -0.10003411067E+03  0.19902885249E+03  0.67118804190E+03  0.00000000000E+00 0. -1.
        -13    1    3    3    0    0  0.77803441624E+03 -0.15693402864E+03  0.35240498547E+03  0.86842104764E+03  0.00000000000E+00 0.  1.
          2    1    6    6  502    0 -0.10380782288E+03  0.28942022909E+03 -0.27967639433E+03  0.41564289798E+03  0.00000000000E+00 0. -1.
          1    1    5    5  503    0 -0.12209379810E+04 -0.21293539819E+02 -0.10282062651E+03  0.12254448374E+04  0.00000000000E+00 0. -1.
         -2    1    5    5    0  503 -0.85447000720E+02 -0.91955285993E+01 -0.27903299633E+02  0.90356747444E+02  0.00000000000E+00 0.  1.
         -1    1    6    6    0  502 -0.98778759753E+00 -0.19630213518E+01  0.34823487299E+01  0.41177578659E+01  0.00000000000E+00 0.  1.
<mgrwt>
<rscale>  0 0.32719814E+04</rscale>
<asrwt>0</asrwt>
<pdfrwt beam="1">  1        2 0.24081965E+00 0.32719814E+04</pdfrwt>
<pdfrwt beam="2">  1       -2 0.26305286E+00 0.32719814E+04</pdfrwt>
<totfact> 0.52177483E-01</totfact>
</mgrwt>
</event>
<event>
12    1  0.1496989E-007  0.3228941E+04  0.7818608E-02  0.8181215E-01
          1   -1    0    0  501    0  0.00000000000E+00  0.00000000000E+00  0.12083242556E+04  0.12083242556E+04  0.00000000000E+00 0.  1.
         -1   -1    0    0    0  501 -0.00000000000E+00 -0.00000000000E+00 -0.21571320069E+04  0.21571320069E+04  0.00000000000E+00 0. -1.
         23    2    1    2    0    0  0.87877330523E+03  0.15753542199E+03  0.79642265906E+03  0.11998403420E+04  0.90927791357E+02 0.  0.
        254    2    1    2    0    0 -0.87877330523E+03 -0.15753542199E+03 -0.17452304103E+04  0.21656159205E+04  0.92032776697E+03 0.  0.
        -24    2    4    4    0    0  0.17803573173E+02 -0.34733211206E+03 -0.40955950927E+03  0.54377432309E+03  0.83635874657E+02 0.  0.
         24    2    4    4    0    0 -0.89657687840E+03  0.18979669007E+03 -0.13356709011E+04  0.16218415974E+04  0.80501730318E+02 0.  0.
         13    1    3    3    0    0  0.39155389097E+03  0.48375617977E+02  0.29880279922E+03  0.49491187374E+03  0.00000000000E+00 0. -1.
        -13    1    3    3    0    0  0.48721941426E+03  0.10915980401E+03  0.49761985984E+03  0.70492846825E+03  0.00000000000E+00 0.  1.
          4    1    6    6  502    0 -0.25762124362E+02 -0.54664811599E+01 -0.53892859469E+02  0.59983412454E+02  0.00000000000E+00 0. -1.
          1    1    5    5  503    0 -0.33809485247E+01 -0.36743971649E+02 -0.91769416897E+02  0.98909939556E+02  0.00000000000E+00 0. -1.
         -2    1    5    5    0  503  0.21184521698E+02 -0.31058814041E+03 -0.31779009237E+03  0.44486438353E+03  0.00000000000E+00 0.  1.
         -3    1    6    6    0  502 -0.87081475404E+03  0.19526317123E+03 -0.12817780416E+04  0.15618581849E+04  0.00000000000E+00 0.  1.
<mgrwt>
<rscale>  0 0.32289410E+04</rscale>
<asrwt>0</asrwt>
<pdfrwt beam="1">  1        1 0.18589604E+00 0.32289410E+04</pdfrwt>
<pdfrwt beam="2">  1       -1 0.33186646E+00 0.32289410E+04</pdfrwt>
<totfact> 0.17992322E-01</totfact>
</mgrwt>
</event>
<event>
12    1  0.1496989E-007  0.3724666E+04  0.7818608E-02  0.8062517E-01
          1   -1    0    0  501    0  0.00000000000E+00  0.00000000000E+00  0.12918137601E+04  0.12918137601E+04  0.00000000000E+00 0. -1.
         -1   -1    0    0    0  501 -0.00000000000E+00 -0.00000000000E+00 -0.26848175228E+04  0.26848175228E+04  0.00000000000E+00 0.  1.
         23    2    1    2    0    0  0.15946619991E+04 -0.66373288590E+03 -0.96978573817E+03  0.19837847861E+04  0.10690867422E+03 0.  0.
        254    2    1    2    0    0 -0.15946619991E+04  0.66373288590E+03 -0.42321802459E+03  0.19928464968E+04  0.89935278302E+03 0.  0.
        -24    2    4    4    0    0 -0.41453125037E+03 -0.16706923423E+03 -0.29457121963E+03  0.54119890698E+03  0.79848399604E+02 0.  0.
         24    2    4    4    0    0 -0.11801307487E+04  0.83080212013E+03 -0.12864680496E+03  0.14516475898E+04  0.88260850618E+02 0.  0.
         11    1    3    3    0    0  0.30781637083E+03 -0.85710344704E+02 -0.16364739458E+03  0.35899533576E+03  0.00000000000E+00 0. -1.
        -11    1    3    3    0    0  0.12868456282E+04 -0.57802254120E+03 -0.80613834358E+03  0.16247894504E+04  0.00000000000E+00 0.  1.
          2    1    6    6  502    0 -0.76281952852E+03  0.48507787420E+03 -0.75819704825E+02  0.90716195069E+03  0.00000000000E+00 0. -1.
          3    1    5    5  503    0 -0.32457837822E+03 -0.11946832771E+03 -0.18727274769E+03  0.39331270887E+03  0.00000000000E+00 0. -1.
         -4    1    5    5    0  503 -0.89952872154E+02 -0.47600906514E+02 -0.10729847194E+03  0.14788619810E+03  0.00000000000E+00 0.  1.
         -1    1    6    6    0  502 -0.41731122018E+03  0.34572424593E+03 -0.52827100139E+02  0.54448563913E+03  0.00000000000E+00 0.  1.
<mgrwt>
<rscale>  0 0.37246660E+04</rscale>
<asrwt>0</asrwt>
<pdfrwt beam="1">  1        1 0.19874058E+00 0.37246660E+04</pdfrwt>
<pdfrwt beam="2">  1       -1 0.41304885E+00 0.37246660E+04</pdfrwt>
<totfact> 0.42701221E-02</totfact>
</mgrwt>
</event>
<event>
12    1  0.1496989E-007  0.1947349E+04  0.7818608E-02  0.8631640E-01
          1   -1    0    0  501    0  0.00000000000E+00  0.00000000000E+00  0.17038809918E+04  0.17038809918E+04  0.00000000000E+00 0. -1.
         -1   -1    0    0    0  501 -0.00000000000E+00 -0.00000000000E+00 -0.55640157594E+03  0.55640157594E+03  0.00000000000E+00 0.  1.
         23    2    1    2    0    0  0.73869040872E+03 -0.84413906269E+02  0.28935264506E+03  0.80317518227E+03  0.92607735632E+02 0.  0.
        254    2    1    2    0    0 -0.73869040872E+03  0.84413906269E+02  0.85812677076E+03  0.14571073854E+04  0.91323115937E+03 0.  0.
        -24    2    4    4    0    0 -0.44078613075E+03 -0.37348909256E+03  0.24808381445E+03  0.63376087480E+03  0.79503157870E+02 0.  0.
         24    2    4    4    0    0 -0.29790427798E+03  0.45790299883E+03  0.61004295631E+03  0.82334651063E+03  0.85585938357E+02 0.  0.
         11    1    3    3    0    0  0.68124029198E+03 -0.68393243188E+02  0.23919180753E+03  0.72524388444E+03  0.00000000000E+00 0. -1.
        -11    1    3    3    0    0  0.57450116744E+02 -0.16020663080E+02  0.50160837531E+02  0.77931297829E+02  0.00000000000E+00 0.  1.
          4    1    6    6  502    0 -0.55888322860E+02  0.15214456563E+03  0.15801385252E+03  0.22636221211E+03  0.00000000000E+00 0. -1.
          3    1    5    5  503    0 -0.45480037855E+02 -0.22944505326E+02  0.44197599465E+02  0.67441174118E+02  0.00000000000E+00 0. -1.
         -4    1    5    5    0  503 -0.39530609289E+03 -0.35054458724E+03  0.20388621499E+03  0.56631970068E+03  0.00000000000E+00 0.  1.
         -3    1    6    6    0  502 -0.24201595512E+03  0.30575843320E+03  0.45202910379E+03  0.59698429852E+03  0.00000000000E+00 0.  1.
<mgrwt>
<rscale>  0 0.19473490E+04</rscale>
<asrwt>0</asrwt>
<pdfrwt beam="1">  1        1 0.26213554E+00 0.19473490E+04</pdfrwt>
<pdfrwt beam="2">  1       -1 0.85600243E-01 0.19473490E+04</pdfrwt>
<totfact> 0.59510462E+00</totfact>
</mgrwt>
</event>
<event>
12    1  0.1496989E-007  0.1651626E+04  0.7818608E-02  0.8789445E-01
          2   -1    0    0  501    0  0.00000000000E+00  0.00000000000E+00  0.17866067224E+04  0.17866067224E+04  0.00000000000E+00 0. -1.
         -2   -1    0    0    0  501 -0.00000000000E+00 -0.00000000000E+00 -0.38171101667E+03  0.38171101667E+03  0.00000000000E+00 0.  1.
         23    2    1    2    0    0 -0.11120085209E+03  0.56069603018E+03  0.39569823065E+03  0.70105201017E+03  0.90283793982E+02 0.  0.
        254    2    1    2    0    0  0.11120085209E+03 -0.56069603018E+03  0.10091974751E+04  0.14672657289E+04  0.89868988409E+03 0.  0.
        -24    2    4    4    0    0  0.15604258057E+03  0.46539051430E+02 -0.94038495637E+02  0.20471802011E+03  0.80938611534E+02 0.  0.
         24    2    4    4    0    0 -0.44841728485E+02 -0.60723508161E+03  0.11032359707E+04  0.12625477088E+04  0.78433952786E+02 0.  0.
         13    1    3    3    0    0 -0.12177758952E+03  0.51231199965E+03  0.37896850313E+03  0.64877614989E+03  0.00000000000E+00 0. -1.
        -13    1    3    3    0    0  0.10576737439E+02  0.48384030530E+02  0.16729727515E+02  0.52275860279E+02  0.00000000000E+00 0.  1.
          4    1    6    6  502    0  0.30647522308E+01 -0.15125425504E+03  0.34084572456E+03  0.37291158513E+03  0.00000000000E+00 0. -1.
          3    1    5    5  503    0  0.69431786590E+02 -0.20173837046E+02 -0.42302209147E+02  0.83768929735E+02  0.00000000000E+00 0. -1.
         -4    1    5    5    0  503  0.86610793981E+02  0.66712888477E+02 -0.51736286490E+02  0.12094909038E+03  0.00000000000E+00 0.  1.
         -3    1    6    6    0  502 -0.47906480716E+02 -0.45598082657E+03  0.76239024618E+03  0.88963612369E+03  0.00000000000E+00 0.  1.
<mgrwt>
<rscale>  0 0.16516264E+04</rscale>
<asrwt>0</asrwt>
<pdfrwt beam="1">  1        2 0.27486257E+00 0.16516264E+04</pdfrwt>
<pdfrwt beam="2">  1       -2 0.58724773E-01 0.16516264E+04</pdfrwt>
<totfact> 0.22720436E+01</totfact>
</mgrwt>
</event>
<event>
12    1  0.1496989E-007  0.1290148E+04  0.7818608E-02  0.9037414E-01
         -2   -1    0    0    0  501 -0.00000000000E+00  0.00000000000E+00  0.20695090194E+03  0.20695090194E+03  0.00000000000E+00 0.  1.
          2   -1    0    0  501    0  0.00000000000E+00 -0.00000000000E+00 -0.20107219904E+04  0.20107219904E+04  0.00000000000E+00 0. -1.
         23    2    1    2    0    0  0.29817702662E+03  0.10785163822E+03 -0.53430591903E+03  0.62709592154E+03  0.84999791888E+02 0.  0.
        254    2    1    2    0    0 -0.29817702662E+03 -0.10785163822E+03 -0.12694651694E+04  0.15905769708E+04  0.90435157356E+03 0.  0.
        -24    2    4    4    0    0 -0.60160756058E+03  0.18786842063E+02 -0.68693572718E+03  0.91680568260E+03  0.79795764288E+02 0.  0.
         24    2    4    4    0    0  0.30343053396E+03 -0.12663848029E+03 -0.58252944223E+03  0.67377128819E+03  0.80745303847E+02 0.  0.
         13    1    3    3    0    0  0.13182439211E+03  0.53605323145E+02 -0.32153730384E+03  0.35162115804E+03  0.00000000000E+00 0. -1.
        -13    1    3    3    0    0  0.16635263452E+03  0.54246315077E+02 -0.21276861519E+03  0.27547476349E+03  0.00000000000E+00 0.  1.
          2    1    6    6  502    0  0.29761742351E+03 -0.13032603657E+03 -0.58238786287E+03  0.66688576938E+03  0.00000000000E+00 0. -1.
          3    1    5    5  503    0 -0.28128614164E+03  0.48469316410E+02 -0.31758174348E+03  0.42700038865E+03  0.00000000000E+00 0. -1.
         -4    1    5    5    0  503 -0.32032141894E+03 -0.29682474347E+02 -0.36935398369E+03  0.48980529395E+03  0.00000000000E+00 0.  1.
         -1    1    6    6    0  502  0.58131104482E+01  0.36875562894E+01 -0.14157935762E+00  0.68855188029E+01  0.00000000000E+00 0.  1.
<mgrwt>
<rscale>  0 0.12901484E+04</rscale>
<asrwt>0</asrwt>
<pdfrwt beam="1">  1        2 0.30934186E+00 0.12901484E+04</pdfrwt>
<pdfrwt beam="2">  1       -2 0.31838599E-01 0.12901484E+04</pdfrwt>
<totfact> 0.59337800E+01</totfact>
</mgrwt>
</event>
<event>
12    1  0.1496989E-007  0.1178442E+04  0.7818608E-02  0.9131938E-01
         -1   -1    0    0    0  501 -0.00000000000E+00  0.00000000000E+00  0.10637460958E+04  0.10637460958E+04  0.00000000000E+00 0.  1.
          1   -1    0    0  501    0  0.00000000000E+00 -0.00000000000E+00 -0.32637643753E+03  0.32637643753E+03  0.00000000000E+00 0. -1.
         23    2    1    2    0    0 -0.38010787686E+02 -0.92593456894E+02  0.41246666904E+03  0.43375250789E+03  0.89409824948E+02 0.  0.
        254    2    1    2    0    0  0.38010787686E+02  0.92593456894E+02  0.32490298927E+03  0.95637002548E+03  0.89390340919E+03 0.  0.
        -24    2    4    4    0    0 -0.97299005960E+02  0.61222438296E+02  0.61277942305E+03  0.62821389703E+03  0.77063581506E+02 0.  0.
         24    2    4    4    0    0  0.13530979365E+03  0.31371018598E+02 -0.28787643378E+03  0.32815612845E+03  0.74301564236E+02 0.  0.
         11    1    3    3    0    0  0.64396661798E+01 -0.57292047000E+02  0.94037694339E+02  0.11030383451E+03  0.00000000000E+00 0. -1.
        -11    1    3    3    0    0 -0.44450453866E+02 -0.35301409895E+02  0.31842897470E+03  0.32344867339E+03  0.00000000000E+00 0.  1.
          4    1    6    6  502    0  0.73517104036E+02  0.14463519621E+02 -0.22972696607E+03  0.24163699411E+03  0.00000000000E+00 0. -1.
          1    1    5    5  503    0 -0.90273299299E+02  0.47504525024E+02  0.59873357842E+03  0.60736138039E+03  0.00000000000E+00 0. -1.
         -2    1    5    5    0  503 -0.70257066612E+01  0.13717913272E+02  0.14045844624E+02  0.20852516631E+02  0.00000000000E+00 0.  1.
         -3    1    6    6    0  502  0.61792689610E+02  0.16907498977E+02 -0.58149467716E+02  0.86519134338E+02  0.00000000000E+00 0.  1.
<mgrwt>
<rscale>  0 0.11784425E+04</rscale>
<asrwt>0</asrwt>
<pdfrwt beam="1">  1        1 0.50211760E-01 0.11784425E+04</pdfrwt>
<pdfrwt beam="2">  1       -1 0.16365324E+00 0.11784425E+04</pdfrwt>
<totfact> 0.21346101E+01</totfact>
</mgrwt>
</event>
<event>
12    1  0.1666889E-007  0.2008372E+04  0.7818608E-02  0.8602717E-01
         -1   -1    0    0    0  501 -0.00000000000E+00  0.00000000000E+00  0.11514085444E+04  0.11514085444E+04  0.00000000000E+00 0.  1.
          1   -1    0    0  501    0  0.00000000000E+00 -0.00000000000E+00 -0.87578769054E+03  0.87578769054E+03  0.00000000000E+00 0. -1.
         23    2    1    2    0    0  0.57484084136E+03 -0.50513011511E+03  0.10422728138E+03  0.77789184563E+03  0.93026723151E+02 0.  0.
        254    2    1    2    0    0 -0.57484084136E+03  0.50513011511E+03  0.17139357245E+03  0.12493043893E+04  0.97251595067E+03 0.  0.
        -24    2    4    4    0    0  0.13611078976E+03 -0.37734112131E+01 -0.23388885097E+03  0.28231495427E+03  0.80357657232E+02 0.  0.
         24    2    4    4    0    0 -0.71095163112E+03  0.50890352633E+03  0.40528242343E+03  0.96698943501E+03  0.79873047892E+02 0.  0.
         11    1    3    3    0    0  0.42838281919E+03 -0.36445504223E+03  0.11675423372E+03  0.57443090854E+03  0.00000000000E+00 0.  1.
        -11    1    3    3    0    0  0.14645802217E+03 -0.14067507288E+03 -0.12526952347E+02  0.20346093709E+03  0.00000000000E+00 0. -1.
          4    1    6    6  502    0 -0.16778517828E+03  0.91000462682E+02  0.11402803800E+03  0.22234060292E+03  0.00000000000E+00 0. -1.
          3    1    5    5  503    0  0.54245872639E+02  0.36285338204E+02 -0.11839684819E+03  0.13519265560E+03  0.00000000000E+00 0. -1.
         -4    1    5    5    0  503  0.81864917121E+02 -0.40058749417E+02 -0.11549200278E+03  0.14712229867E+03  0.00000000000E+00 0.  1.
         -3    1    6    6    0  502 -0.54316645284E+03  0.41790306365E+03  0.29125438543E+03  0.74464883209E+03  0.00000000000E+00 0.  1.
<mgrwt>
<rscale>  0 0.20083719E+04</rscale>
<asrwt>0</asrwt>
<pdfrwt beam="1">  1        1 0.13473657E+00 0.20083719E+04</pdfrwt>
<pdfrwt beam="2">  1       -1 0.17713978E+00 0.20083719E+04</pdfrwt>
<totfact> 0.38547945E+00</totfact>
</mgrwt>
</event>
<event>
12    1  0.1496989E-007  0.3647294E+04  0.7818608E-02  0.8079744E-01
          2   -1    0    0  501    0  0.00000000000E+00  0.00000000000E+00  0.31443600240E+04  0.31443600240E+04  0.00000000000E+00 0.  1.
         -2   -1    0    0    0  501 -0.00000000000E+00 -0.00000000000E+00 -0.10576677114E+04  0.10576677114E+04  0.00000000000E+00 0. -1.
         23    2    1    2    0    0  0.44599162812E+03 -0.48729092091E+03  0.27773512643E+04  0.28562589702E+04  0.90411756136E+02 0.  0.
        254    2    1    2    0    0 -0.44599162812E+03  0.48729092091E+03 -0.69065895170E+03  0.13457687651E+04  0.94748235219E+03 0.  0.
        -24    2    4    4    0    0 -0.27167443407E+03  0.67190567181E+03 -0.15170389055E+03  0.74476020754E+03  0.79934137829E+02 0.  0.
         24    2    4    4    0    0 -0.17431719405E+03 -0.18461475091E+03 -0.53895506115E+03  0.60100855759E+03  0.79181045509E+02 0.  0.
         11    1    3    3    0    0  0.24830401735E+03 -0.28736101243E+03  0.14064803119E+04  0.14568521216E+04  0.00000000000E+00 0. -1.
        -11    1    3    3    0    0  0.19768761078E+03 -0.19992990847E+03  0.13708709524E+04  0.13994068486E+04  0.00000000000E+00 0.  1.
          2    1    6    6  502    0 -0.17904962455E+03 -0.15787936319E+03 -0.47870966209E+03  0.53492766049E+03  0.00000000000E+00 0. -1.
          1    1    5    5  503    0 -0.14656198508E+03  0.44887288569E+03 -0.77738597795E+02  0.47855049113E+03  0.00000000000E+00 0. -1.
         -2    1    5    5    0  503 -0.12511244899E+03  0.22303278613E+03 -0.73965292756E+02  0.26620971641E+03  0.00000000000E+00 0.  1.
         -1    1    6    6    0  502  0.47324305018E+01 -0.26735387717E+02 -0.60245399059E+02  0.66080897108E+02  0.00000000000E+00 0.  1.
<mgrwt>
<rscale>  0 0.36472938E+04</rscale>
<asrwt>0</asrwt>
<pdfrwt beam="1">  1        2 0.48374769E+00 0.36472938E+04</pdfrwt>
<pdfrwt beam="2">  1       -2 0.16271811E+00 0.36472938E+04</pdfrwt>
<totfact> 0.27497181E-01</totfact>
</mgrwt>
</event>
<event>
12    1  0.1496989E-007  0.2742861E+04  0.7818608E-02  0.8321230E-01
          2   -1    0    0  501    0  0.00000000000E+00  0.00000000000E+00  0.12917512774E+04  0.12917512774E+04  0.00000000000E+00 0. -1.
         -2   -1    0    0    0  501 -0.00000000000E+00 -0.00000000000E+00 -0.14560249395E+04  0.14560249395E+04  0.00000000000E+00 0.  1.
         23    2    1    2    0    0  0.37126824540E+03 -0.10908019509E+02  0.10962156467E+04  0.11607088762E+04  0.87162241722E+02 0.  0.
        254    2    1    2    0    0 -0.37126824540E+03  0.10908019509E+02 -0.12604893088E+04  0.15870673406E+04  0.88993839736E+03 0.  0.
        -24    2    4    4    0    0 -0.27363520583E+03  0.39439215305E+03 -0.98336623170E+03  0.10971779319E+04  0.79805215352E+02 0.  0.
         24    2    4    4    0    0 -0.97633039579E+02 -0.38348413354E+03 -0.27712307712E+03  0.48988940870E+03  0.81253564760E+02 0.  0.
         13    1    3    3    0    0  0.35917501880E+03 -0.28350262614E+02  0.10360587458E+04  0.10969175704E+04  0.00000000000E+00 0. -1.
        -13    1    3    3    0    0  0.12093226608E+02  0.17442243105E+02  0.60156900900E+02  0.63791305836E+02  0.00000000000E+00 0.  1.
          4    1    6    6  502    0 -0.95690258890E+02 -0.24653143367E+03 -0.15590823435E+03  0.30698819354E+03  0.00000000000E+00 0. -1.
          3    1    5    5  503    0 -0.26224324439E+03  0.39552324042E+03 -0.96740831867E+03  0.10775384021E+04  0.00000000000E+00 0. -1.
         -4    1    5    5    0  503 -0.11391961438E+02 -0.11310873645E+01 -0.15957913035E+02  0.19639529843E+02  0.00000000000E+00 0.  1.
         -3    1    6    6    0  502 -0.19427806887E+01 -0.13695269987E+03 -0.12121484277E+03  0.18290121516E+03  0.00000000000E+00 0.  1.
<mgrwt>
<rscale>  0 0.27428613E+04</rscale>
<asrwt>0</asrwt>
<pdfrwt beam="1">  1        2 0.19873097E+00 0.27428613E+04</pdfrwt>
<pdfrwt beam="2">  1       -2 0.22400384E+00 0.27428613E+04</pdfrwt>
<totfact> 0.13626081E+00</totfact>
</mgrwt>
</event>
<event>
12    1  0.1496989E-007  0.1440727E+04  0.7818608E-02  0.8924854E-01
         -1   -1    0    0    0  501 -0.00000000000E+00  0.00000000000E+00  0.11019278046E+04  0.11019278046E+04  0.00000000000E+00 0.  1.
          1   -1    0    0  501    0  0.00000000000E+00 -0.00000000000E+00 -0.47092352736E+03  0.47092352736E+03  0.00000000000E+00 0. -1.
         23    2    1    2    0    0  0.30372011546E+03 -0.29390905201E+03  0.28274275204E+03  0.51674742152E+03  0.91956481211E+02 0.  0.
        254    2    1    2    0    0 -0.30372011546E+03  0.29390905201E+03  0.34826152523E+03  0.10561039105E+04  0.90301768552E+03 0.  0.
        -24    2    4    4    0    0 -0.46101145933E+03  0.50426867352E+03  0.36915633870E+03  0.78069944598E+03  0.79979758907E+02 0.  0.
         24    2    4    4    0    0  0.15729134387E+03 -0.21035962151E+03 -0.20894813469E+02  0.27540446448E+03  0.80120463105E+02 0.  0.
         13    1    3    3    0    0  0.26246763702E+03 -0.28467107663E+03  0.23481990964E+03  0.45284354066E+03  0.00000000000E+00 0. -1.
        -13    1    3    3    0    0  0.41252478430E+02 -0.92379753775E+01  0.47922842399E+02  0.63903880863E+02  0.00000000000E+00 0.  1.
          4    1    6    6  502    0  0.10417868834E+02  0.62890410312E+01 -0.50774157980E+01  0.13185756684E+02  0.00000000000E+00 0. -1.
          1    1    5    5  503    0 -0.23918287099E+03  0.21854971645E+03  0.14341599730E+03  0.35431705098E+03  0.00000000000E+00 0. -1.
         -2    1    5    5    0  503 -0.22182858834E+03  0.28571895706E+03  0.22574034140E+03  0.42638239500E+03  0.00000000000E+00 0.  1.
         -3    1    6    6    0  502  0.14687347504E+03 -0.21664866254E+03 -0.15817397671E+02  0.26221870780E+03  0.00000000000E+00 0.  1.
<mgrwt>
<rscale>  0 0.14407272E+04</rscale>
<asrwt>0</asrwt>
<pdfrwt beam="1">  1        1 0.72449774E-01 0.14407272E+04</pdfrwt>
<pdfrwt beam="2">  1       -1 0.16952735E+00 0.14407272E+04</pdfrwt>
<totfact> 0.11602359E+01</totfact>
</mgrwt>
</event>
<event>
12    1  0.1496989E-007  0.1657222E+04  0.7818608E-02  0.8786145E-01
         -1   -1    0    0    0  501 -0.00000000000E+00  0.00000000000E+00  0.67533612656E+03  0.67533612656E+03  0.00000000000E+00 0.  1.
          1   -1    0    0  501    0  0.00000000000E+00 -0.00000000000E+00 -0.10166732550E+04  0.10166732550E+04  0.00000000000E+00 0. -1.
         23    2    1    2    0    0 -0.49046056264E+03  0.29135825999E+03 -0.23621455747E+02  0.57837455847E+03  0.92292781643E+02 0.  0.
        254    2    1    2    0    0  0.49046056264E+03 -0.29135825999E+03 -0.31771567274E+03  0.11136348231E+04  0.90210757198E+03 0.  0.
        -24    2    4    4    0    0  0.34772231656E+02 -0.21957421454E+03  0.27124887553E+03  0.36099682376E+03  0.85561735069E+02 0.  0.
         24    2    4    4    0    0  0.45568833098E+03 -0.71784045459E+02 -0.58896454827E+03  0.75263799937E+03  0.82340238090E+02 0.  0.
         11    1    3    3    0    0 -0.43337899875E+03  0.28079127687E+03 -0.40334411315E+02  0.51796521357E+03  0.00000000000E+00 0.  1.
        -11    1    3    3    0    0 -0.57081563886E+02  0.10566983120E+02  0.16712955568E+02  0.60409344904E+02  0.00000000000E+00 0. -1.
          2    1    6    6  502    0  0.37230330424E+02  0.82585879263E+01 -0.81931555696E+02  0.90371907122E+02  0.00000000000E+00 0. -1.
          3    1    5    5  503    0  0.37780843693E+02 -0.79945363839E+02  0.56850502435E+02  0.10512199093E+03  0.00000000000E+00 0. -1.
         -4    1    5    5    0  503 -0.30086120373E+01 -0.13962885070E+03  0.21439837309E+03  0.25587483283E+03  0.00000000000E+00 0.  1.
         -1    1    6    6    0  502  0.41845800056E+03 -0.80042633386E+02 -0.50703299257E+03  0.66226609225E+03  0.00000000000E+00 0.  1.
<mgrwt>
<rscale>  0 0.16572220E+04</rscale>
<asrwt>0</asrwt>
<pdfrwt beam="1">  1        1 0.15641127E+00 0.16572220E+04</pdfrwt>
<pdfrwt beam="2">  1       -1 0.10389787E+00 0.16572220E+04</pdfrwt>
<totfact> 0.12239025E+01</totfact>
</mgrwt>
</event>
<event>
12    1  0.1496989E-007  0.1876288E+04  0.7818608E-02  0.8666750E-01
         -1   -1    0    0    0  501 -0.00000000000E+00  0.00000000000E+00  0.53767379116E+03  0.53767379116E+03  0.00000000000E+00 0.  1.
          1   -1    0    0  501    0  0.00000000000E+00 -0.00000000000E+00 -0.16368920881E+04  0.16368920881E+04  0.00000000000E+00 0. -1.
         23    2    1    2    0    0  0.35211316169E+03  0.25006132306E+03  0.24175569411E+03  0.50388500773E+03  0.94551263647E+02 0.  0.
        254    2    1    2    0    0 -0.35211316169E+03 -0.25006132306E+03 -0.13409739911E+04  0.16706808715E+04  0.89802504749E+03 0.  0.
        -24    2    4    4    0    0 -0.19153854978E+03 -0.39030730223E+03 -0.16328794533E+03  0.47122399108E+03  0.79763967140E+02 0.  0.
         24    2    4    4    0    0 -0.16057461191E+03  0.14024597917E+03 -0.11776860457E+04  0.11994568805E+04  0.79367783862E+02 0.  0.
         13    1    3    3    0    0  0.11468590307E+03  0.12580638624E+03  0.61862272020E+02  0.18112714838E+03  0.00000000000E+00 0. -1.
        -13    1    3    3    0    0  0.23742725863E+03  0.12425493681E+03  0.17989342209E+03  0.32275785935E+03  0.00000000000E+00 0.  1.
          2    1    6    6  502    0 -0.84363110463E+02  0.23053816816E+02 -0.48041670375E+03  0.48831221787E+03  0.00000000000E+00 0. -1.
          3    1    5    5  503    0 -0.16589397265E+03 -0.37935634847E+03 -0.15539066003E+03  0.44224236173E+03  0.00000000000E+00 0. -1.
         -4    1    5    5    0  503 -0.25644577135E+02 -0.10950953761E+02 -0.78972852965E+01  0.28981629350E+02  0.00000000000E+00 0.  1.
         -1    1    6    6    0  502 -0.76211501450E+02  0.11719216236E+03 -0.69726934198E+03  0.71114466259E+03  0.00000000000E+00 0.  1.
<mgrwt>
<rscale>  0 0.18762878E+04</rscale>
<asrwt>0</asrwt>
<pdfrwt beam="1">  1        1 0.25182955E+00 0.18762878E+04</pdfrwt>
<pdfrwt beam="2">  1       -1 0.82719045E-01 0.18762878E+04</pdfrwt>
<totfact> 0.71654532E+00</totfact>
</mgrwt>
</event>
<event>
12    1  0.1496989E-007  0.1782861E+04  0.7818608E-02  0.8715467E-01
          2   -1    0    0  501    0  0.00000000000E+00  0.00000000000E+00  0.17631450555E+04  0.17631450555E+04  0.00000000000E+00 0. -1.
         -2   -1    0    0    0  501 -0.00000000000E+00 -0.00000000000E+00 -0.45069929275E+03  0.45069929275E+03  0.00000000000E+00 0.  1.
         23    2    1    2    0    0  0.16844757003E+03 -0.23085464632E+03  0.12375665071E+04  0.12736557826E+04  0.94655909895E+02 0.  0.
        254    2    1    2    0    0 -0.16844757003E+03  0.23085464632E+03  0.74879255647E+02  0.94018856573E+03  0.89256886828E+03 0.  0.
        -24    2    4    4    0    0  0.22958703666E+03 -0.20563254134E+03  0.12168269796E+03  0.34228152304E+03  0.85761369960E+02 0.  0.
         24    2    4    4    0    0 -0.39803460669E+03  0.43648718766E+03 -0.46803442311E+02  0.59790704269E+03  0.79684731091E+02 0.  0.
         13    1    3    3    0    0  0.10463963815E+03 -0.20872071405E+03  0.95293945265E+03  0.98112557339E+03  0.00000000000E+00 0. -1.
        -13    1    3    3    0    0  0.63807931882E+02 -0.22133932268E+02  0.28462705449E+03  0.29253020917E+03  0.00000000000E+00 0.  1.
          4    1    6    6  502    0 -0.37296126217E+03  0.42857006368E+03 -0.53874324521E+02  0.57067928419E+03  0.00000000000E+00 0. -1.
          3    1    5    5  503    0  0.16754678206E+03 -0.94308791715E+02  0.79263500286E+02  0.20796339787E+03  0.00000000000E+00 0. -1.
         -4    1    5    5    0  503  0.62040254592E+02 -0.11132374962E+03  0.42419197671E+02  0.13431812518E+03  0.00000000000E+00 0.  1.
         -3    1    6    6    0  502 -0.25073344517E+02  0.79171239793E+01  0.70708822106E+01  0.27227758494E+02  0.00000000000E+00 0.  1.
<mgrwt>
<rscale>  0 0.17828609E+04</rscale>
<asrwt>0</asrwt>
<pdfrwt beam="1">  1        2 0.27125308E+00 0.17828609E+04</pdfrwt>
<pdfrwt beam="2">  1       -2 0.69338354E-01 0.17828609E+04</pdfrwt>
<totfact> 0.16226991E+01</totfact>
</mgrwt>
</event>
<event>
12    1  0.1496989E-007  0.2062350E+04  0.7818608E-02  0.8578012E-01
         -2   -1    0    0    0  501 -0.00000000000E+00  0.00000000000E+00  0.16937090619E+04  0.16937090619E+04  0.00000000000E+00 0.  1.
          2   -1    0    0  501    0  0.00000000000E+00 -0.00000000000E+00 -0.62780677873E+03  0.62780677873E+03  0.00000000000E+00 0. -1.
         23    2    1    2    0    0  0.82310268316E+03  0.54316358031E+02  0.53583028714E+03  0.98787435317E+03  0.91287169205E+02 0.  0.
        254    2    1    2    0    0 -0.82310268316E+03 -0.54316358031E+02  0.53007199601E+03  0.13336414874E+04  0.90397732399E+03 0.  0.
        -24    2    4    4    0    0  0.14156853591E+03 -0.49552034918E+02 -0.81853801711E+02  0.18889989058E+03  0.80536136484E+02 0.  0.
         24    2    4    4    0    0 -0.96467121907E+03 -0.47643231133E+01  0.61192579772E+03  0.11447415969E+04  0.73259006218E+02 0.  0.
         11    1    3    3    0    0  0.65439071782E+02 -0.10558048661E+02  0.20918035608E+02  0.69507616280E+02  0.00000000000E+00 0.  1.
        -11    1    3    3    0    0  0.75766361137E+03  0.64874406692E+02  0.51491225153E+03  0.91836673689E+03  0.00000000000E+00 0. -1.
          2    1    6    6  502    0 -0.66687895559E+03  0.18270664400E+02  0.39139419588E+03  0.77346672530E+03  0.00000000000E+00 0. -1.
          3    1    5    5  503    0  0.51956804692E+02 -0.54126533651E+02 -0.61205924434E+02  0.96826424000E+02  0.00000000000E+00 0. -1.
         -4    1    5    5    0  503  0.89611731222E+02  0.45744987330E+01 -0.20647877277E+02  0.92073466576E+02  0.00000000000E+00 0.  1.
         -1    1    6    6    0  502 -0.29779226348E+03 -0.23034987513E+02  0.22053160184E+03  0.37127487156E+03  0.00000000000E+00 0.  1.
<mgrwt>
<rscale>  0 0.20623501E+04</rscale>
<asrwt>0</asrwt>
<pdfrwt beam="1">  1        2 0.96585659E-01 0.20623501E+04</pdfrwt>
<pdfrwt beam="2">  1       -2 0.26057062E+00 0.20623501E+04</pdfrwt>
<totfact> 0.24009398E+00</totfact>
</mgrwt>
</event>
<event>
12    1  0.1496989E-007  0.1279981E+04  0.7818608E-02  0.9045593E-01
         -1   -1    0    0    0  501 -0.00000000000E+00  0.00000000000E+00  0.66801422583E+03  0.66801422583E+03  0.00000000000E+00 0.  1.
          1   -1    0    0  501    0  0.00000000000E+00 -0.00000000000E+00 -0.61314261937E+03  0.61314261937E+03  0.00000000000E+00 0. -1.
         23    2    1    2    0    0  0.31549196912E+03 -0.16280214244E+02 -0.29181351903E+02  0.33000560078E+03  0.90840064327E+02 0.  0.
        254    2    1    2    0    0 -0.31549196912E+03  0.16280214244E+02  0.84052958363E+02  0.95115124443E+03  0.89320969655E+03 0.  0.
        -24    2    4    4    0    0  0.12620465573E+03 -0.13045339832E+03  0.35514861245E+03  0.40675903753E+03  0.79854075796E+02 0.  0.
         24    2    4    4    0    0 -0.44169662486E+03  0.14673361256E+03 -0.27109565409E+03  0.54439220690E+03  0.79014934060E+02 0.  0.
         13    1    3    3    0    0  0.30144703001E+02  0.15601301658E+02 -0.26181839933E+02  0.42867149132E+02  0.00000000000E+00 0. -1.
        -13    1    3    3    0    0  0.28534726612E+03 -0.31881515902E+02 -0.29995119700E+01  0.28713845164E+03  0.00000000000E+00 0.  1.
          2    1    6    6  502    0 -0.34542886919E+03  0.14010970569E+03 -0.23853988572E+03  0.44255294641E+03  0.00000000000E+00 0. -1.
          1    1    5    5  503    0  0.91564948119E+02 -0.56577421169E+02  0.26010690688E+03  0.28149733092E+03  0.00000000000E+00 0. -1.
         -2    1    5    5    0  503  0.34639707614E+02 -0.73875977149E+02  0.95041705578E+02  0.12526170661E+03  0.00000000000E+00 0.  1.
         -1    1    6    6    0  502 -0.96267755665E+02  0.66239068706E+01 -0.32555768375E+02  0.10183926049E+03  0.00000000000E+00 0.  1.
<mgrwt>
<rscale>  0 0.12799812E+04</rscale>
<asrwt>0</asrwt>
<pdfrwt beam="1">  1        1 0.94329634E-01 0.12799812E+04</pdfrwt>
<pdfrwt beam="2">  1       -1 0.10277142E+00 0.12799812E+04</pdfrwt>
<totfact> 0.29238463E+01</totfact>
</mgrwt>
</event>
<event>
12    1  0.1496989E-007  0.1952381E+04  0.7818608E-02  0.8629213E-01
          2   -1    0    0  501    0  0.00000000000E+00  0.00000000000E+00  0.65869675566E+03  0.65869675566E+03  0.00000000000E+00 0. -1.
         -2   -1    0    0    0  501 -0.00000000000E+00 -0.00000000000E+00 -0.14467176832E+04  0.14467176832E+04  0.00000000000E+00 0.  1.
         23    2    1    2    0    0 -0.74139550163E+03 -0.72480488003E+02 -0.49238571389E+03  0.89758173951E+03  0.91041621698E+02 0.  0.
        254    2    1    2    0    0  0.74139550163E+03  0.72480488003E+02 -0.29563521365E+03  0.12078326994E+04  0.90362544181E+03 0.  0.
        -24    2    4    4    0    0  0.37847658066E+03  0.45693870042E+01  0.30956371070E+03  0.49491988220E+03  0.76489197988E+02 0.  0.
         24    2    4    4    0    0  0.36291892097E+03  0.67911100999E+02 -0.60519892435E+03  0.71291281715E+03  0.75212272854E+02 0.  0.
         13    1    3    3    0    0 -0.57367832114E+03 -0.91759364998E+02 -0.36530480882E+03  0.68627560102E+03  0.00000000000E+00 0.  1.
        -13    1    3    3    0    0 -0.16771718049E+03  0.19278876995E+02 -0.12708090506E+03  0.21130613849E+03  0.00000000000E+00 0. -1.
          2    1    6    6  502    0  0.11486351205E+03  0.46719673642E+02 -0.25116295182E+03  0.28010566340E+03  0.00000000000E+00 0. -1.
          3    1    5    5  503    0  0.36108852161E+03 -0.96202564768E+01  0.30317521399E+03  0.47158528407E+03  0.00000000000E+00 0. -1.
         -4    1    5    5    0  503  0.17388059044E+02  0.14189643481E+02  0.63884967074E+01  0.23334598124E+02  0.00000000000E+00 0.  1.
         -1    1    6    6    0  502  0.24805540892E+03  0.21191427357E+02 -0.35403597254E+03  0.43280715375E+03  0.00000000000E+00 0.  1.
<mgrwt>
<rscale>  0 0.19523814E+04</rscale>
<asrwt>0</asrwt>
<pdfrwt beam="1">  1        2 0.10133796E+00 0.19523814E+04</pdfrwt>
<pdfrwt beam="2">  1       -2 0.22257195E+00 0.19523814E+04</pdfrwt>
<totfact> 0.39245502E+00</totfact>
</mgrwt>
</event>
<event>
12    1  0.1496989E-007  0.1606800E+04  0.7818608E-02  0.8816381E-01
         -1   -1    0    0    0  501 -0.00000000000E+00  0.00000000000E+00  0.75016394075E+03  0.75016394075E+03  0.00000000000E+00 0.  1.
          1   -1    0    0  501    0  0.00000000000E+00 -0.00000000000E+00 -0.86041412444E+03  0.86041412444E+03  0.00000000000E+00 0. -1.
         23    2    1    2    0    0 -0.36903873166E+03  0.27362626258E+03  0.25858735148E+03  0.53548048966E+03  0.93867030525E+02 0.  0.
        254    2    1    2    0    0  0.36903873166E+03 -0.27362626258E+03 -0.36883753518E+03  0.10750975755E+04  0.89929569805E+03 0.  0.
        -24    2    4    4    0    0  0.56217180873E+03  0.77522271728E+02 -0.91221475431E+02  0.58046232944E+03  0.81045130479E+02 0.  0.
         24    2    4    4    0    0 -0.19313307707E+03 -0.35114853431E+03 -0.27761605975E+03  0.49463524610E+03  0.83592292968E+02 0.  0.
         11    1    3    3    0    0 -0.18012451037E+03  0.11577097679E+03  0.69692774367E+02  0.22517735477E+03  0.00000000000E+00 0. -1.
        -11    1    3    3    0    0 -0.18891422129E+03  0.15785528579E+03  0.18889457712E+03  0.31030313489E+03  0.00000000000E+00 0.  1.
          4    1    6    6  502    0 -0.20042347640E+03 -0.32178492761E+03 -0.25554548228E+03  0.45718552366E+03  0.00000000000E+00 0. -1.
          3    1    5    5  503    0  0.37552316469E+03  0.13793861240E+02 -0.51750682459E+02  0.37932314846E+03  0.00000000000E+00 0. -1.
         -4    1    5    5    0  503  0.18664864404E+03  0.63728410488E+02 -0.39470792972E+02  0.20113918098E+03  0.00000000000E+00 0.  1.
         -3    1    6    6    0  502  0.72903993302E+01 -0.29363606702E+02 -0.22070577468E+02  0.37449722438E+02  0.00000000000E+00 0.  1.
<mgrwt>
<rscale>  0 0.16068001E+04</rscale>
<asrwt>0</asrwt>
<pdfrwt beam="1">  1        1 0.13237140E+00 0.16068001E+04</pdfrwt>
<pdfrwt beam="2">  1       -1 0.11540984E+00 0.16068001E+04</pdfrwt>
<totfact> 0.12813214E+01</totfact>
</mgrwt>
</event>
<event>
12    1  0.1496989E-007  0.1658030E+04  0.7818608E-02  0.8785670E-01
          1   -1    0    0  501    0  0.00000000000E+00  0.00000000000E+00  0.17648904478E+04  0.17648904478E+04  0.00000000000E+00 0. -1.
         -1   -1    0    0    0  501 -0.00000000000E+00 -0.00000000000E+00 -0.38941000689E+03  0.38941000689E+03  0.00000000000E+00 0.  1.
         23    2    1    2    0    0  0.33782278770E+03 -0.35696022506E+03  0.69667263011E+02  0.50479840304E+03  0.91777241246E+02 0.  0.
        254    2    1    2    0    0 -0.33782278770E+03  0.35696022506E+03  0.13058131779E+04  0.16495020516E+04  0.87986596972E+03 0.  0.
        -24    2    4    4    0    0 -0.37919723823E+03  0.54284371665E+03  0.12757443269E+04  0.14395779480E+04  0.79945196604E+02 0.  0.
         24    2    4    4    0    0  0.41374450523E+02 -0.18588349160E+03  0.30068850999E+02  0.20992410369E+03  0.83063083893E+02 0.  0.
         13    1    3    3    0    0  0.28675848642E+03 -0.27825577682E+03  0.23566567130E+02  0.40026502464E+03  0.00000000000E+00 0.  1.
        -13    1    3    3    0    0  0.51064301285E+02 -0.78704448237E+02  0.46100695881E+02  0.10453337840E+03  0.00000000000E+00 0. -1.
          2    1    6    6  502    0  0.44902961819E+02 -0.14764774937E+03  0.55350198414E+02  0.16395053626E+03  0.00000000000E+00 0. -1.
          1    1    5    5  503    0 -0.37491631864E+03  0.52700816831E+03  0.12623931884E+04  0.14184274453E+04  0.00000000000E+00 0. -1.
         -2    1    5    5    0  503 -0.42809195867E+01  0.15835548339E+02  0.13351138485E+02  0.21150502655E+02  0.00000000000E+00 0.  1.
         -1    1    6    6    0  502 -0.35285112959E+01 -0.38235742225E+02 -0.25281347415E+02  0.45973567433E+02  0.00000000000E+00 0.  1.
<mgrwt>
<rscale>  0 0.16580302E+04</rscale>
<asrwt>0</asrwt>
<pdfrwt beam="1">  1        1 0.27152160E+00 0.16580302E+04</pdfrwt>
<pdfrwt beam="2">  1       -1 0.59909233E-01 0.16580302E+04</pdfrwt>
<totfact> 0.11612544E+01</totfact>
</mgrwt>
</event>
<event>
12    1  0.1496989E-007  0.2472326E+04  0.7818608E-02  0.8412911E-01
          2   -1    0    0  501    0  0.00000000000E+00  0.00000000000E+00  0.16008830827E+04  0.16008830827E+04  0.00000000000E+00 0. -1.
         -2   -1    0    0    0  501 -0.00000000000E+00 -0.00000000000E+00 -0.95453534483E+03  0.95453534483E+03  0.00000000000E+00 0.  1.
         23    2    1    2    0    0  0.30548076661E+03  0.37127667360E+03 -0.70495615038E+03  0.85832766848E+03  0.92727263486E+02 0.  0.
        254    2    1    2    0    0 -0.30548076661E+03 -0.37127667360E+03  0.13513038882E+04  0.16970907590E+04  0.90715488143E+03 0.  0.
        -24    2    4    4    0    0 -0.26258703150E+03 -0.65891462239E+03  0.82291173918E+03  0.10894812859E+04  0.81641369220E+02 0.  0.
         24    2    4    4    0    0 -0.42893735106E+02  0.28763794880E+03  0.52839214904E+03  0.60760947310E+03  0.73590397021E+02 0.  0.
         13    1    3    3    0    0  0.12247113578E+02 -0.28272746776E+01 -0.32422715334E+02  0.34773808287E+02  0.00000000000E+00 0. -1.
        -13    1    3    3    0    0  0.29323365303E+03  0.37410394827E+03 -0.67253343505E+03  0.82355386019E+03  0.00000000000E+00 0.  1.
          2    1    6    6  502    0 -0.39324087205E+02  0.28864924682E+03  0.49766135220E+03  0.57665552368E+03  0.00000000000E+00 0. -1.
          3    1    5    5  503    0 -0.21441705081E+03 -0.55311211026E+03  0.63902430614E+03  0.87192874825E+03  0.00000000000E+00 0. -1.
         -4    1    5    5    0  503 -0.48169980684E+02 -0.10580251213E+03  0.18388743304E+03  0.21755253767E+03  0.00000000000E+00 0.  1.
         -1    1    6    6    0  502 -0.35696479008E+01 -0.10112980235E+01  0.30730796843E+02  0.30953949416E+02  0.00000000000E+00 0.  1.
<mgrwt>
<rscale>  0 0.24723264E+04</rscale>
<asrwt>0</asrwt>
<pdfrwt beam="1">  1        2 0.24628970E+00 0.24723264E+04</pdfrwt>
<pdfrwt beam="2">  1       -2 0.14685159E+00 0.24723264E+04</pdfrwt>
<totfact> 0.31561780E+00</totfact>
</mgrwt>
</event>
<event>
12    1  0.1496989E-007  0.1579182E+04  0.7818608E-02  0.8833440E-01
         -2   -1    0    0    0  501 -0.00000000000E+00  0.00000000000E+00  0.32205680520E+03  0.32205680520E+03  0.00000000000E+00 0.  1.
          2   -1    0    0  501    0  0.00000000000E+00 -0.00000000000E+00 -0.19358507302E+04  0.19358507302E+04  0.00000000000E+00 0. -1.
         23    2    1    2    0    0  0.16946299736E+03 -0.39930958688E+03 -0.11890657331E+03  0.45881507871E+03  0.90590560393E+02 0.  0.
        254    2    1    2    0    0 -0.16946299736E+03  0.39930958688E+03 -0.14948873517E+04  0.17990924567E+04  0.90215276967E+03 0.  0.
        -24    2    4    4    0    0 -0.65919843048E+02  0.91367131833E+01 -0.13629339717E+04  0.13669259529E+04  0.80427882155E+02 0.  0.
         24    2    4    4    0    0 -0.10354315431E+03  0.39017287370E+03 -0.13195338000E+03  0.43216650380E+03  0.80000852142E+02 0.  0.
         11    1    3    3    0    0  0.69664743380E+01 -0.10598269652E+03 -0.12160581525E+02  0.10690530140E+03  0.00000000000E+00 0. -1.
        -11    1    3    3    0    0  0.16249652302E+03 -0.29332689036E+03 -0.10674599178E+03  0.35190977731E+03  0.00000000000E+00 0.  1.
          2    1    6    6  502    0 -0.72336457592E+01  0.53759180774E+02 -0.47711429062E+02  0.72240955223E+02  0.00000000000E+00 0. -1.
          3    1    5    5  503    0  0.18287531818E+02  0.41692860174E+01 -0.34153235830E+03  0.34204702678E+03  0.00000000000E+00 0. -1.
         -4    1    5    5    0  503 -0.84207374867E+02  0.49674271658E+01 -0.10214016134E+04  0.10248789261E+04  0.00000000000E+00 0.  1.
         -3    1    6    6    0  502 -0.96309508551E+02  0.33641369292E+03 -0.84241950939E+02  0.35992554858E+03  0.00000000000E+00 0.  1.
<mgrwt>
<rscale>  0 0.15791819E+04</rscale>
<asrwt>0</asrwt>
<pdfrwt beam="1">  1        2 0.29782318E+00 0.15791819E+04</pdfrwt>
<pdfrwt beam="2">  1       -2 0.49547202E-01 0.15791819E+04</pdfrwt>
<totfact> 0.26859856E+01</totfact>
</mgrwt>
</event>
<event>
12    1  0.1496989E-007  0.1612984E+04  0.7818608E-02  0.8812611E-01
         -2   -1    0    0    0  501 -0.00000000000E+00  0.00000000000E+00  0.21951193178E+03  0.21951193178E+03  0.00000000000E+00 0. -1.
          2   -1    0    0  501    0  0.00000000000E+00 -0.00000000000E+00 -0.29630711236E+04  0.29630711236E+04  0.00000000000E+00 0.  1.
         23    2    1    2    0    0  0.34027876074E+03  0.34212150804E+03 -0.43993697490E+03  0.65955871570E+03  0.92932213476E+02 0.  0.
        254    2    1    2    0    0 -0.34027876074E+03 -0.34212150804E+03 -0.23036222169E+04  0.25230243397E+04  0.90892229537E+03 0.  0.
        -24    2    4    4    0    0 -0.52462256498E+03 -0.38495622949E+03 -0.21942954631E+04  0.22901829576E+04  0.81149647717E+02 0.  0.
         24    2    4    4    0    0  0.18434380425E+03  0.42834721445E+02 -0.10932675378E+03  0.23284138210E+03  0.80282741596E+02 0.  0.
         13    1    3    3    0    0  0.56157518633E+02  0.57122040159E+02 -0.31215200080E+02  0.85970826952E+02  0.00000000000E+00 0.  1.
        -13    1    3    3    0    0  0.28412124210E+03  0.28499946788E+03 -0.40872177482E+03  0.57358788875E+03  0.00000000000E+00 0. -1.
          4    1    6    6  502    0  0.49674967851E+02 -0.23656999770E+02 -0.35585674356E+02  0.65525539208E+02  0.00000000000E+00 0. -1.
          1    1    5    5  503    0 -0.75126095761E+02 -0.90622787880E+02 -0.35398349327E+03  0.37304253572E+03  0.00000000000E+00 0. -1.
         -2    1    5    5    0  503 -0.44949646922E+03 -0.29433344161E+03 -0.18403119699E+04  0.19171404218E+04  0.00000000000E+00 0.  1.
         -3    1    6    6    0  502  0.13466883639E+03  0.66491721215E+02 -0.73741079426E+02  0.16731584289E+03  0.00000000000E+00 0.  1.
<mgrwt>
<rscale>  0 0.16129841E+04</rscale>
<asrwt>0</asrwt>
<pdfrwt beam="1">  1        2 0.45585710E+00 0.16129841E+04</pdfrwt>
<pdfrwt beam="2">  1       -2 0.33771066E-01 0.16129841E+04</pdfrwt>
<totfact> 0.14507144E+01</totfact>
</mgrwt>
</event>
<event>
12    1  0.1496989E-007  0.1653714E+04  0.7818608E-02  0.8788212E-01
          2   -1    0    0  501    0  0.00000000000E+00  0.00000000000E+00  0.12248793659E+04  0.12248793659E+04  0.00000000000E+00 0. -1.
         -2   -1    0    0    0  501 -0.00000000000E+00 -0.00000000000E+00 -0.55817138808E+03  0.55817138808E+03  0.00000000000E+00 0.  1.
         23    2    1    2    0    0 -0.38264287715E+03 -0.31386711391E+03 -0.79781914291E+02  0.50976728009E+03  0.92570996373E+02 0.  0.
        254    2    1    2    0    0  0.38264287715E+03  0.31386711391E+03  0.74648989207E+03  0.12732834739E+04  0.90502790521E+03 0.  0.
        -24    2    4    4    0    0  0.43428213329E+03  0.59131991390E+03  0.54471299612E+03  0.91712584897E+03  0.78405119949E+02 0.  0.
         24    2    4    4    0    0 -0.51639256143E+02 -0.27745279999E+03  0.20177689596E+03  0.35615762489E+03  0.80546067735E+02 0.  0.
         13    1    3    3    0    0 -0.22726394882E+03 -0.20714068467E+03 -0.91719611608E+02  0.32088728991E+03  0.00000000000E+00 0. -1.
        -13    1    3    3    0    0 -0.15537892834E+03 -0.10672642924E+03  0.11937697317E+02  0.18887999017E+03  0.00000000000E+00 0.  1.
          2    1    6    6  502    0 -0.47856705914E+02 -0.24439036466E+03  0.13923336460E+03  0.28531183722E+03  0.00000000000E+00 0. -1.
          1    1    5    5  503    0  0.19596944894E+03  0.32971985747E+03  0.26815609516E+03  0.46800309902E+03  0.00000000000E+00 0. -1.
         -2    1    5    5    0  503  0.23831268436E+03  0.26160005644E+03  0.27655690095E+03  0.44912274995E+03  0.00000000000E+00 0.  1.
         -1    1    6    6    0  502 -0.37825502287E+01 -0.33062435336E+02  0.62543531359E+02  0.70845787676E+02  0.00000000000E+00 0.  1.
<mgrwt>
<rscale>  0 0.16537141E+04</rscale>
<asrwt>0</asrwt>
<pdfrwt beam="1">  1        2 0.18844298E+00 0.16537141E+04</pdfrwt>
<pdfrwt beam="2">  1       -2 0.85872522E-01 0.16537141E+04</pdfrwt>
<totfact> 0.20579981E+01</totfact>
</mgrwt>
</event>
<event>
12    1  0.1496989E-007  0.2820904E+04  0.7818608E-02  0.8296808E-01
          2   -1    0    0  501    0  0.00000000000E+00  0.00000000000E+00  0.31795646465E+04  0.31795646465E+04  0.00000000000E+00 0.  1.
         -2   -1    0    0    0  501 -0.00000000000E+00 -0.00000000000E+00 -0.62567525736E+03  0.62567525736E+03  0.00000000000E+00 0. -1.
         23    2    1    2    0    0  0.15509351440E+03 -0.19383792878E+03 -0.53058927717E+03  0.59210273454E+03  0.86217900485E+02 0.  0.
        254    2    1    2    0    0 -0.15509351440E+03  0.19383792878E+03  0.30844786663E+04  0.32131371693E+04  0.86522522217E+03 0.  0.
        -24    2    4    4    0    0  0.15968475030E+03 -0.26668863689E+03  0.85613437599E+03  0.91462776764E+03  0.83401648977E+02 0.  0.
         24    2    4    4    0    0 -0.31477826471E+03  0.46052656568E+03  0.22283442903E+04  0.22985094017E+04  0.80356205641E+02 0.  0.
         11    1    3    3    0    0  0.52689680985E+00  0.80272649242E+01 -0.23642262824E+02  0.24973409736E+02  0.00000000000E+00 0.  1.
        -11    1    3    3    0    0  0.15456661759E+03 -0.20186519371E+03 -0.50694701434E+03  0.56712932481E+03  0.00000000000E+00 0. -1.
          4    1    6    6  502    0 -0.22760955655E+03  0.29365561883E+03  0.13483843093E+04  0.13986350411E+04  0.00000000000E+00 0. -1.
          1    1    5    5  503    0  0.12104057998E+03 -0.13200743331E+03  0.53729823689E+03  0.56636223374E+03  0.00000000000E+00 0. -1.
         -2    1    5    5    0  503  0.38644170325E+02 -0.13468120358E+03  0.31883613911E+03  0.34826553390E+03  0.00000000000E+00 0.  1.
         -3    1    6    6    0  502 -0.87168708162E+02  0.16687094685E+03  0.87995998107E+03  0.89987436060E+03  0.00000000000E+00 0.  1.
<mgrwt>
<rscale>  0 0.28209041E+04</rscale>
<asrwt>0</asrwt>
<pdfrwt beam="1">  1        2 0.48916378E+00 0.28209041E+04</pdfrwt>
<pdfrwt beam="2">  1       -2 0.96257734E-01 0.28209041E+04</pdfrwt>
<totfact> 0.10492699E+00</totfact>
</mgrwt>
</event>
<event>
12    1  0.1496989E-007  0.1379365E+04  0.7818608E-02  0.8968892E-01
         -2   -1    0    0    0  501 -0.00000000000E+00  0.00000000000E+00  0.25945463949E+03  0.25945463949E+03  0.00000000000E+00 0.  1.
          2   -1    0    0  501    0  0.00000000000E+00 -0.00000000000E+00 -0.18333150563E+04  0.18333150563E+04  0.00000000000E+00 0. -1.
         23    2    1    2    0    0  0.29658288123E+03 -0.24181880057E+03 -0.54149422227E+03  0.66935989979E+03  0.91591183813E+02 0.  0.
        254    2    1    2    0    0 -0.29658288123E+03  0.24181880057E+03 -0.10323661945E+04  0.14234097960E+04  0.90215173332E+03 0.  0.
        -24    2    4    4    0    0 -0.36788429228E+03  0.13779635436E+02 -0.10995390212E+04  0.11623054304E+04  0.80244149761E+02 0.  0.
         24    2    4    4    0    0  0.71301411054E+02  0.22803916513E+03  0.67172826708E+02  0.26110436553E+03  0.81102089974E+02 0.  0.
         13    1    3    3    0    0  0.29271646181E+03 -0.24712589732E+03 -0.51377466515E+03  0.64087326570E+03  0.00000000000E+00 0. -1.
        -13    1    3    3    0    0  0.38664194162E+01  0.53070967467E+01 -0.27719557118E+02  0.28486634090E+02  0.00000000000E+00 0.  1.
          4    1    6    6  502    0 -0.37782755210E+01  0.55504228513E+02 -0.12085177493E+02  0.56930187632E+02  0.00000000000E+00 0. -1.
          3    1    5    5  503    0 -0.26927363023E+00  0.12602111763E+01  0.11840535724E+01  0.17500352451E+01  0.00000000000E+00 0. -1.
         -4    1    5    5    0  503 -0.36761501865E+03  0.12519424259E+02 -0.11007230748E+04  0.11605553952E+04  0.00000000000E+00 0.  1.
         -3    1    6    6    0  502  0.75079686575E+02  0.17253493662E+03  0.79258004201E+02  0.20417417790E+03  0.00000000000E+00 0.  1.
<mgrwt>
<rscale>  0 0.13793652E+04</rscale>
<asrwt>0</asrwt>
<pdfrwt beam="1">  1        2 0.28204847E+00 0.13793652E+04</pdfrwt>
<pdfrwt beam="2">  1       -2 0.39916098E-01 0.13793652E+04</pdfrwt>
<totfact> 0.47872916E+01</totfact>
</mgrwt>
</event>
<event>
12    1  0.1496989E-007  0.1706789E+04  0.7818608E-02  0.8757502E-01
          2   -1    0    0  501    0  0.00000000000E+00  0.00000000000E+00  0.26511543182E+04  0.26511543182E+04  0.00000000000E+00 0. -1.
         -2   -1    0    0    0  501 -0.00000000000E+00 -0.00000000000E+00 -0.27470376959E+03  0.27470376959E+03  0.00000000000E+00 0.  1.
         23    2    1    2    0    0  0.52794554243E+03 -0.29527409892E+03  0.75211558287E+03  0.96930418592E+03  0.89215837119E+02 0.  0.
        254    2    1    2    0    0 -0.52794554243E+03  0.29527409892E+03  0.16243349657E+04  0.19565539019E+04  0.90759341156E+03 0.  0.
        -24    2    4    4    0    0 -0.14149134200E+03  0.18766640550E+03  0.15117906186E+04  0.15320749157E+04  0.80648578979E+02 0.  0.
         24    2    4    4    0    0 -0.38645420043E+03  0.10760769341E+03  0.11254434714E+03  0.42447898613E+03  0.81178290723E+02 0.  0.
         13    1    3    3    0    0  0.28798402849E+03 -0.14685481433E+03  0.33333530485E+03  0.46434207500E+03  0.00000000000E+00 0. -1.
        -13    1    3    3    0    0  0.23996151394E+03 -0.14841928458E+03  0.41878027802E+03  0.50496211092E+03  0.00000000000E+00 0.  1.
          2    1    6    6  502    0 -0.74711551540E+01  0.18231267627E+02  0.83563094959E+01  0.21401523007E+02  0.00000000000E+00 0. -1.
          3    1    5    5  503    0 -0.96171724908E+01 -0.74294562358E+01  0.10644753082E+03  0.10713899217E+03  0.00000000000E+00 0. -1.
         -4    1    5    5    0  503 -0.13187416950E+03  0.19509586174E+03  0.14053430878E+04  0.14249359236E+04  0.00000000000E+00 0.  1.
         -1    1    6    6    0  502 -0.37898304528E+03  0.89376425786E+02  0.10418803764E+03  0.40307746313E+03  0.00000000000E+00 0.  1.
<mgrwt>
<rscale>  0 0.17067889E+04</rscale>
<asrwt>0</asrwt>
<pdfrwt beam="1">  1        2 0.40786988E+00 0.17067889E+04</pdfrwt>
<pdfrwt beam="2">  1       -2 0.42262120E-01 0.17067889E+04</pdfrwt>
<totfact> 0.14362432E+01</totfact>
</mgrwt>
</event>
<event>
12    1  0.1496989E-007  0.1871403E+04  0.7818608E-02  0.8669223E-01
          1   -1    0    0  501    0  0.00000000000E+00  0.00000000000E+00  0.10260202781E+04  0.10260202781E+04  0.00000000000E+00 0. -1.
         -1   -1    0    0    0  501 -0.00000000000E+00 -0.00000000000E+00 -0.85333354824E+03  0.85333354824E+03  0.00000000000E+00 0.  1.
         23    2    1    2    0    0  0.43542371532E+03 -0.23040156284E+03 -0.41568791701E+03  0.65061352776E+03  0.88446741789E+02 0.  0.
        254    2    1    2    0    0 -0.43542371532E+03  0.23040156284E+03  0.58837464686E+03  0.12287402986E+04  0.95965582594E+03 0.  0.
        -24    2    4    4    0    0 -0.44843505493E+02 -0.26238884762E+03 -0.97744157582E+02  0.29451099826E+03  0.79523332511E+02 0.  0.
         24    2    4    4    0    0 -0.39058020983E+03  0.49279041046E+03  0.68611880444E+03  0.93422930032E+03  0.81425320437E+02 0.  0.
         13    1    3    3    0    0  0.24111549952E+03 -0.12163296220E+03 -0.28403225894E+03  0.39192548491E+03  0.00000000000E+00 0.  1.
        -13    1    3    3    0    0  0.19430821580E+03 -0.10876860064E+03 -0.13165565807E+03  0.25868804285E+03  0.00000000000E+00 0. -1.
          2    1    6    6  502    0 -0.17874245869E+03  0.21483763970E+03  0.24667498494E+03  0.37276349898E+03  0.00000000000E+00 0. -1.
          3    1    5    5  503    0  0.55399654974E+01 -0.37472153243E+01  0.81350150508E+01  0.10531443884E+02  0.00000000000E+00 0. -1.
         -4    1    5    5    0  503 -0.50383470991E+02 -0.25864163230E+03 -0.10587917263E+03  0.28397955438E+03  0.00000000000E+00 0.  1.
         -1    1    6    6    0  502 -0.21183775114E+03  0.27795277076E+03  0.43944381950E+03  0.56146580134E+03  0.00000000000E+00 0.  1.
<mgrwt>
<rscale>  0 0.18714032E+04</rscale>
<asrwt>0</asrwt>
<pdfrwt beam="1">  1        1 0.15784927E+00 0.18714032E+04</pdfrwt>
<pdfrwt beam="2">  1       -1 0.13128209E+00 0.18714032E+04</pdfrwt>
<totfact> 0.67010780E+00</totfact>
</mgrwt>
</event>
<event>
12    1  0.1496989E-007  0.2035026E+04  0.7818608E-02  0.8590418E-01
         -2   -1    0    0    0  501 -0.00000000000E+00  0.00000000000E+00  0.44532781285E+03  0.44532781285E+03  0.00000000000E+00 0.  1.
          2   -1    0    0  501    0  0.00000000000E+00 -0.00000000000E+00 -0.23248776189E+04  0.23248776189E+04  0.00000000000E+00 0. -1.
         23    2    1    2    0    0 -0.32534031408E+03  0.46162217233E+03  0.50417607100E+02  0.57424095590E+03  0.90936188488E+02 0.  0.
        254    2    1    2    0    0  0.32534031408E+03 -0.46162217233E+03 -0.19299674131E+04  0.21959644758E+04  0.88235163819E+03 0.  0.
        -24    2    4    4    0    0 -0.11373514636E+03 -0.22976362891E+03 -0.79472750038E+02  0.27847009622E+03  0.74179969042E+02 0.  0.
         24    2    4    4    0    0  0.43907546044E+03 -0.23185854342E+03 -0.18504946631E+04  0.19174943796E+04  0.76867116425E+02 0.  0.
         13    1    3    3    0    0 -0.32229167935E+03  0.44289443426E+03  0.33419222395E+02  0.54876611675E+03  0.00000000000E+00 0.  1.
        -13    1    3    3    0    0 -0.30486347369E+01  0.18727738069E+02  0.16998384705E+02  0.25474839146E+02  0.00000000000E+00 0. -1.
          4    1    6    6  502    0  0.62535509243E+02 -0.61666466370E+02 -0.38233365526E+03  0.39229130367E+03  0.00000000000E+00 0. -1.
          3    1    5    5  503    0 -0.46532970136E+02 -0.71866602830E+02  0.77611699970E+01  0.85967212772E+02  0.00000000000E+00 0. -1.
         -4    1    5    5    0  503 -0.67202176221E+02 -0.15789702608E+03 -0.87233920035E+02  0.19250288345E+03  0.00000000000E+00 0.  1.
         -3    1    6    6    0  502  0.37653995120E+03 -0.17019207705E+03 -0.14681610078E+04  0.15252030759E+04  0.00000000000E+00 0.  1.
<mgrwt>
<rscale>  0 0.20350260E+04</rscale>
<asrwt>0</asrwt>
<pdfrwt beam="1">  1        2 0.35767348E+00 0.20350260E+04</pdfrwt>
<pdfrwt beam="2">  1       -2 0.68511971E-01 0.20350260E+04</pdfrwt>
<totfact> 0.79212455E+00</totfact>
</mgrwt>
</event>
<event>
12    1  0.1496989E-007  0.1115909E+04  0.7818608E-02  0.9189823E-01
          2   -1    0    0  501    0  0.00000000000E+00  0.00000000000E+00  0.16312046464E+04  0.16312046464E+04  0.00000000000E+00 0. -1.
         -2   -1    0    0    0  501 -0.00000000000E+00 -0.00000000000E+00 -0.19084853552E+03  0.19084853552E+03  0.00000000000E+00 0.  1.
         23    2    1    2    0    0 -0.13064093614E+03 -0.87739538016E+02  0.48291146054E+03  0.51630493965E+03  0.92747136134E+02 0.  0.
        254    2    1    2    0    0  0.13064093614E+03  0.87739538016E+02  0.95744465038E+03  0.13057482423E+04  0.87379227110E+03 0.  0.
        -24    2    4    4    0    0 -0.86049559723E+02 -0.31292434333E+03  0.13314721210E+03  0.35983564889E+03  0.80170710027E+02 0.  0.
         24    2    4    4    0    0  0.21669049586E+03  0.40066388135E+03  0.82429743829E+03  0.94591259343E+03  0.88306572931E+02 0.  0.
         11    1    3    3    0    0 -0.40226715526E+02 -0.20054439104E+02  0.28425724652E+03  0.28778907444E+03  0.00000000000E+00 0. -1.
        -11    1    3    3    0    0 -0.90414220615E+02 -0.67685098911E+02  0.19865421402E+03  0.22851586521E+03  0.00000000000E+00 0.  1.
          2    1    6    6  502    0  0.64881339369E+02  0.14599901784E+03  0.37495083469E+03  0.40757015327E+03  0.00000000000E+00 0. -1.
          1    1    5    5  503    0 -0.45956234284E+01 -0.75583440490E+02  0.65058349127E+02  0.99832685140E+02  0.00000000000E+00 0. -1.
         -2    1    5    5    0  503 -0.81453936294E+02 -0.23734090284E+03  0.68088862968E+02  0.26000296375E+03  0.00000000000E+00 0.  1.
         -1    1    6    6    0  502  0.15180915649E+03  0.25466486351E+03  0.44934660360E+03  0.53834244015E+03  0.00000000000E+00 0.  1.
<mgrwt>
<rscale>  0 0.11159086E+04</rscale>
<asrwt>0</asrwt>
<pdfrwt beam="1">  1        2 0.25095455E+00 0.11159086E+04</pdfrwt>
<pdfrwt beam="2">  1       -2 0.29361314E-01 0.11159086E+04</pdfrwt>
<totfact> 0.11338732E+02</totfact>
</mgrwt>
</event>
<event>
12    1  0.1496989E-007  0.1164608E+04  0.7818608E-02  0.9144412E-01
          2   -1    0    0  501    0  0.00000000000E+00  0.00000000000E+00  0.25994778484E+03  0.25994778484E+03  0.00000000000E+00 0. -1.
         -2   -1    0    0    0  501 -0.00000000000E+00 -0.00000000000E+00 -0.13044085540E+04  0.13044085540E+04  0.00000000000E+00 0.  1.
         23    2    1    2    0    0 -0.10607863164E+03  0.19062503204E+03 -0.25448906020E+03  0.34728311171E+03  0.90831156487E+02 0.  0.
        254    2    1    2    0    0  0.10607863164E+03 -0.19062503204E+03 -0.78997170901E+03  0.12170732272E+04  0.89978962004E+03 0.  0.
        -24    2    4    4    0    0 -0.19705474482E+02  0.33720878334E+03 -0.16134927797E+03  0.38275596357E+03  0.79815216996E+02 0.  0.
         24    2    4    4    0    0  0.12578410612E+03 -0.52783381537E+03 -0.62862243103E+03  0.83431726359E+03  0.80554065893E+02 0.  0.
         13    1    3    3    0    0 -0.19802827668E+02  0.16078349609E+02 -0.86310711991E+02  0.90001135071E+02  0.00000000000E+00 0. -1.
        -13    1    3    3    0    0 -0.86275803969E+02  0.17454668243E+03 -0.16817834821E+03  0.25728197664E+03  0.00000000000E+00 0.  1.
          4    1    6    6  502    0  0.81323223439E+02 -0.27473743780E+03 -0.38757936214E+03  0.48198743589E+03  0.00000000000E+00 0. -1.
          3    1    5    5  503    0 -0.12697621042E+02  0.11254281846E+03 -0.14306555313E+02  0.11415687930E+03  0.00000000000E+00 0. -1.
         -4    1    5    5    0  503 -0.70078534406E+01  0.22466596488E+03 -0.14704272266E+03  0.26859908427E+03  0.00000000000E+00 0.  1.
         -3    1    6    6    0  502  0.44460882679E+02 -0.25309637757E+03 -0.24104306889E+03  0.35232982770E+03  0.00000000000E+00 0.  1.
<mgrwt>
<rscale>  0 0.11646083E+04</rscale>
<asrwt>0</asrwt>
<pdfrwt beam="1">  1        2 0.39991967E-01 0.11646083E+04</pdfrwt>
<pdfrwt beam="2">  1       -2 0.20067824E+00 0.11646083E+04</pdfrwt>
<totfact> 0.16767466E+01</totfact>
</mgrwt>
</event>
<event>
12    1  0.1496989E-007  0.1328767E+04  0.7818608E-02  0.9007059E-01
         -3   -1    0    0    0  501 -0.00000000000E+00  0.00000000000E+00  0.10865844325E+04  0.10865844325E+04  0.00000000000E+00 0.  1.
          3   -1    0    0  501    0  0.00000000000E+00 -0.00000000000E+00 -0.40623189085E+03  0.40623189085E+03  0.00000000000E+00 0. -1.
         23    2    1    2    0    0 -0.45186784616E+02  0.32308514822E+03  0.35080012906E+03  0.48745295142E+03  0.90132074194E+02 0.  0.
        254    2    1    2    0    0  0.45186784616E+02 -0.32308514822E+03  0.32955241259E+03  0.10053633719E+04  0.89203411284E+03 0.  0.
        -24    2    4    4    0    0 -0.34124324056E+03 -0.18388005147E+03  0.42043348192E+03  0.57745461968E+03  0.80191661128E+02 0.  0.
         24    2    4    4    0    0  0.38643002517E+03 -0.13920509675E+03 -0.90881069323E+02  0.42790875225E+03  0.78360118530E+02 0.  0.
         11    1    3    3    0    0  0.75965218850E+01  0.61400845913E+02  0.26222607933E+02  0.67196697764E+02  0.00000000000E+00 0. -1.
        -11    1    3    3    0    0 -0.52783306501E+02  0.26168430231E+03  0.32457752112E+03  0.42025625366E+03  0.00000000000E+00 0.  1.
          4    1    6    6  502    0  0.22327432181E+03 -0.46590198460E+02 -0.26777763564E+02  0.22964999019E+03  0.00000000000E+00 0. -1.
          3    1    5    5  503    0 -0.11410855793E+03 -0.10052959429E+03  0.18963972238E+03  0.24308473137E+03  0.00000000000E+00 0. -1.
         -4    1    5    5    0  503 -0.22713468263E+03 -0.83350457179E+02  0.23079375954E+03  0.33436988831E+03  0.00000000000E+00 0.  1.
         -3    1    6    6    0  502  0.16315570336E+03 -0.92614898293E+02 -0.64103305759E+02  0.19825876206E+03  0.00000000000E+00 0.  1.
<mgrwt>
<rscale>  0 0.13287667E+04</rscale>
<asrwt>0</asrwt>
<pdfrwt beam="1">  1        3 0.62497215E-01 0.13287667E+04</pdfrwt>
<pdfrwt beam="2">  1       -3 0.16716683E+00 0.13287667E+04</pdfrwt>
<totfact> 0.15455100E+00</totfact>
</mgrwt>
</event>
<event>
12    1  0.1496989E-007  0.2861515E+04  0.7818608E-02  0.8284421E-01
          1   -1    0    0  501    0  0.00000000000E+00  0.00000000000E+00  0.19670382260E+04  0.19670382260E+04  0.00000000000E+00 0. -1.
         -1   -1    0    0    0  501 -0.00000000000E+00 -0.00000000000E+00 -0.10406850014E+04  0.10406850014E+04  0.00000000000E+00 0.  1.
         23    2    1    2    0    0  0.85274117411E+03 -0.39121394380E+03 -0.51177904994E+03  0.10726350471E+04  0.91718528830E+02 0.  0.
        254    2    1    2    0    0 -0.85274117411E+03  0.39121394380E+03  0.14381322745E+04  0.19350881803E+04  0.89225891237E+03 0.  0.
        -24    2    4    4    0    0 -0.95844091049E+03  0.23461960462E+03  0.82644868174E+03  0.12898852506E+04  0.84446423609E+02 0.  0.
         24    2    4    4    0    0  0.10569973638E+03  0.15659433918E+03  0.61168359275E+03  0.64520292965E+03  0.80223322447E+02 0.  0.
         13    1    3    3    0    0  0.65923148884E+03 -0.27386340456E+03 -0.35444189164E+03  0.79700462657E+03  0.00000000000E+00 0.  1.
        -13    1    3    3    0    0  0.19350968527E+03 -0.11735053923E+03 -0.15733715830E+03  0.27563042055E+03  0.00000000000E+00 0. -1.
          2    1    6    6  502    0  0.88074338403E+02  0.10788190946E+03  0.32055280328E+03  0.34949920624E+03  0.00000000000E+00 0. -1.
          1    1    5    5  503    0 -0.60812260155E+03  0.11606441974E+03  0.55039942007E+03  0.82838612353E+03  0.00000000000E+00 0. -1.
         -2    1    5    5    0  503 -0.35031830894E+03  0.11855518488E+03  0.27604926166E+03  0.46149912709E+03  0.00000000000E+00 0.  1.
         -1    1    6    6    0  502  0.17625397979E+02  0.48712429714E+02  0.29113078947E+03  0.29570372341E+03  0.00000000000E+00 0.  1.
<mgrwt>
<rscale>  0 0.28615151E+04</rscale>
<asrwt>0</asrwt>
<pdfrwt beam="1">  1        1 0.30262126E+00 0.28615151E+04</pdfrwt>
<pdfrwt beam="2">  1       -1 0.16010539E+00 0.28615151E+04</pdfrwt>
<totfact> 0.78814297E-01</totfact>
</mgrwt>
</event>
<event>
12    1  0.1496989E-007  0.1836636E+04  0.7818608E-02  0.8687056E-01
          1   -1    0    0  501    0  0.00000000000E+00  0.00000000000E+00  0.19407815807E+04  0.19407815807E+04  0.00000000000E+00 0. -1.
         -1   -1    0    0    0  501 -0.00000000000E+00 -0.00000000000E+00 -0.43451978415E+03  0.43451978415E+03  0.00000000000E+00 0.  1.
         23    2    1    2    0    0  0.58201996363E+03 -0.12455207799E+03  0.10541825623E+04  0.12140014210E+04  0.90764074985E+02 0.  0.
        254    2    1    2    0    0 -0.58201996363E+03  0.12455207799E+03  0.45207923422E+03  0.11612999438E+04  0.88880901624E+03 0.  0.
        -24    2    4    4    0    0 -0.79291737859E+03  0.21653691355E+03  0.34917668605E+03  0.89663483407E+03  0.80146511943E+02 0.  0.
         24    2    4    4    0    0  0.21089741496E+03 -0.91984835554E+02  0.10290254817E+03  0.26466510978E+03  0.80745007936E+02 0.  0.
         13    1    3    3    0    0  0.76130756940E+01  0.95513894074E+01  0.22435317121E+02  0.25544694468E+02  0.00000000000E+00 0.  1.
        -13    1    3    3    0    0  0.57440688794E+03 -0.13410346740E+03  0.10317472452E+04  0.11884567266E+04  0.00000000000E+00 0. -1.
          4    1    6    6  502    0  0.14562301623E+03 -0.75612499247E+02  0.32497012563E+02  0.16727034622E+03  0.00000000000E+00 0. -1.
          1    1    5    5  503    0 -0.61024363479E+03  0.14795516479E+03  0.29721000292E+03  0.69470987500E+03  0.00000000000E+00 0. -1.
         -2    1    5    5    0  503 -0.18267374380E+03  0.68581748755E+02  0.51966683131E+02  0.20192495906E+03  0.00000000000E+00 0.  1.
         -3    1    6    6    0  502  0.65274398729E+02 -0.16372336308E+02  0.70405535602E+02  0.97394763560E+02  0.00000000000E+00 0.  1.
<mgrwt>
<rscale>  0 0.18366360E+04</rscale>
<asrwt>0</asrwt>
<pdfrwt beam="1">  1        1 0.29858178E+00 0.18366360E+04</pdfrwt>
<pdfrwt beam="2">  1       -1 0.66849199E-01 0.18366360E+04</pdfrwt>
<totfact> 0.69712606E+00</totfact>
</mgrwt>
</event>
<event>
12    1  0.1496989E-007  0.2070466E+04  0.7818608E-02  0.8574366E-01
          1   -1    0    0  501    0  0.00000000000E+00  0.00000000000E+00  0.70570940142E+03  0.70570940142E+03  0.00000000000E+00 0. -1.
         -1   -1    0    0    0  501 -0.00000000000E+00 -0.00000000000E+00 -0.15186245278E+04  0.15186245278E+04  0.00000000000E+00 0.  1.
         23    2    1    2    0    0 -0.29715057164E+03  0.41236143136E+02  0.50702548072E+03  0.59629014637E+03  0.92131530076E+02 0.  0.
        254    2    1    2    0    0  0.29715057164E+03 -0.41236143136E+02 -0.13199406071E+04  0.16280437829E+04  0.90459077535E+03 0.  0.
        -24    2    4    4    0    0  0.41975356223E+03 -0.26005422578E+03 -0.12641466369E+04  0.13590822857E+04  0.72226632084E+02 0.  0.
         24    2    4    4    0    0 -0.12260299059E+03  0.21881808265E+03 -0.55793970191E+02  0.26896149712E+03  0.79463659812E+02 0.  0.
         11    1    3    3    0    0 -0.14233595287E+03 -0.16021630252E+02  0.18061096481E+03  0.23051363674E+03  0.00000000000E+00 0.  1.
        -11    1    3    3    0    0 -0.15481461877E+03  0.57257773389E+02  0.32641451592E+03  0.36577650963E+03  0.00000000000E+00 0. -1.
          4    1    6    6  502    0  0.33426271511E+01  0.44470064379E+02  0.64406849391E+01  0.45058209070E+02  0.00000000000E+00 0. -1.
          3    1    5    5  503    0  0.11541901324E+03 -0.10077078676E+03 -0.45268745112E+03  0.47791445728E+03  0.00000000000E+00 0. -1.
         -4    1    5    5    0  503  0.30433454899E+03 -0.15928343902E+03 -0.81145918582E+03  0.88116782846E+03  0.00000000000E+00 0.  1.
         -3    1    6    6    0  502 -0.12594561774E+03  0.17434801827E+03 -0.62234655130E+02  0.22390328805E+03  0.00000000000E+00 0.  1.
<mgrwt>
<rscale>  0 0.20704662E+04</rscale>
<asrwt>0</asrwt>
<pdfrwt beam="1">  1        1 0.10857068E+00 0.20704662E+04</pdfrwt>
<pdfrwt beam="2">  1       -1 0.23363454E+00 0.20704662E+04</pdfrwt>
<totfact> 0.22153757E+00</totfact>
</mgrwt>
</event>
<event>
12    1  0.1496989E-007  0.2127760E+04  0.7818608E-02  0.8549112E-01
         -2   -1    0    0    0  501 -0.00000000000E+00  0.00000000000E+00  0.62523835898E+03  0.62523835898E+03  0.00000000000E+00 0.  1.
          2   -1    0    0  501    0  0.00000000000E+00 -0.00000000000E+00 -0.18102550962E+04  0.18102550962E+04  0.00000000000E+00 0. -1.
         23    2    1    2    0    0 -0.39026820591E+03  0.41889519569E+02  0.41209442876E+03  0.57665815894E+03  0.92998976669E+02 0.  0.
        254    2    1    2    0    0  0.39026820591E+03 -0.41889519569E+02 -0.15971111659E+04  0.18588352962E+04  0.86627973406E+03 0.  0.
        -24    2    4    4    0    0  0.14277862870E+03  0.29235921101E+02  0.62467940341E+02  0.17757927421E+03  0.79947977844E+02 0.  0.
         24    2    4    4    0    0  0.24748957721E+03 -0.71125440669E+02 -0.16595791063E+04  0.16812560220E+04  0.78160618963E+02 0.  0.
         11    1    3    3    0    0 -0.56699165393E+02  0.39259006385E+02  0.85138763726E+02  0.10956584334E+03  0.00000000000E+00 0. -1.
        -11    1    3    3    0    0 -0.33356904052E+03  0.26305131841E+01  0.32695566504E+03  0.46709231560E+03  0.00000000000E+00 0.  1.
          4    1    6    6  502    0  0.59744923202E+02  0.15838618286E+02 -0.42119706066E+03  0.42570797689E+03  0.00000000000E+00 0. -1.
          3    1    5    5  503    0  0.82139695611E+02 -0.23292923826E+02  0.39879445313E+02  0.94233009365E+02  0.00000000000E+00 0. -1.
         -4    1    5    5    0  503  0.60638933089E+02  0.52528844927E+02  0.22588495027E+02  0.83346264842E+02  0.00000000000E+00 0.  1.
         -3    1    6    6    0  502  0.18774465401E+03 -0.86964058955E+02 -0.12383820456E+04  0.12555480451E+04  0.00000000000E+00 0.  1.
<mgrwt>
<rscale>  0 0.21277603E+04</rscale>
<asrwt>0</asrwt>
<pdfrwt beam="1">  1        2 0.27850078E+00 0.21277603E+04</pdfrwt>
<pdfrwt beam="2">  1       -2 0.96190517E-01 0.21277603E+04</pdfrwt>
<totfact> 0.70881888E+00</totfact>
</mgrwt>
</event>
<event>
12    1  0.1496989E-007  0.1510941E+04  0.7818608E-02  0.8877210E-01
          1   -1    0    0  501    0  0.00000000000E+00  0.00000000000E+00  0.87313363068E+03  0.87313363068E+03  0.00000000000E+00 0. -1.
         -1   -1    0    0    0  501 -0.00000000000E+00 -0.00000000000E+00 -0.65366387396E+03  0.65366387396E+03  0.00000000000E+00 0.  1.
         23    2    1    2    0    0 -0.20553833614E+03  0.18360247400E+03 -0.32132718804E+03  0.43453858095E+03  0.98064980892E+02 0.  0.
        254    2    1    2    0    0  0.20553833614E+03 -0.18360247400E+03  0.54079694476E+03  0.10922589237E+04  0.90808168401E+03 0.  0.
        -24    2    4    4    0    0  0.50827994830E+03  0.48201864077E+02  0.14454525935E+03  0.53658569863E+03  0.79743052531E+02 0.  0.
         24    2    4    4    0    0 -0.30274161216E+03 -0.23180433808E+03  0.39625168541E+03  0.55567322506E+03  0.79822302468E+02 0.  0.
         13    1    3    3    0    0 -0.12175536005E+03  0.15877975496E+03 -0.25861250559E+03  0.32697982557E+03  0.00000000000E+00 0.  1.
        -13    1    3    3    0    0 -0.83782976090E+02  0.24822719042E+02 -0.62714682456E+02  0.10755875538E+03  0.00000000000E+00 0. -1.
          4    1    6    6  502    0  0.12680996238E+01 -0.17512095647E+02  0.15933113300E+02  0.23709611344E+02  0.00000000000E+00 0. -1.
          3    1    5    5  503    0  0.24070351296E+03  0.56096601293E+02  0.92400118202E+02  0.26386131144E+03  0.00000000000E+00 0. -1.
         -4    1    5    5    0  503  0.26757643534E+03 -0.78947372155E+01  0.52145141147E+02  0.27272438719E+03  0.00000000000E+00 0.  1.
         -3    1    6    6    0  502 -0.30400971178E+03 -0.21429224243E+03  0.38031857211E+03  0.53196361371E+03  0.00000000000E+00 0.  1.
<mgrwt>
<rscale>  0 0.15109413E+04</rscale>
<asrwt>0</asrwt>
<pdfrwt beam="1">  1        1 0.13432825E+00 0.15109413E+04</pdfrwt>
<pdfrwt beam="2">  1       -1 0.10056367E+00 0.15109413E+04</pdfrwt>
<totfact> 0.17422254E+01</totfact>
</mgrwt>
</event>
<event>
12    1  0.1496989E-007  0.1798539E+04  0.7818608E-02  0.8707077E-01
          2   -1    0    0  501    0  0.00000000000E+00  0.00000000000E+00  0.15454789691E+04  0.15454789691E+04  0.00000000000E+00 0.  1.
         -2   -1    0    0    0  501 -0.00000000000E+00 -0.00000000000E+00 -0.52325883861E+03  0.52325883861E+03  0.00000000000E+00 0. -1.
         23    2    1    2    0    0  0.23865915803E+03 -0.53877760634E+03  0.78018991797E+03  0.98181084480E+03  0.89536160577E+02 0.  0.
        254    2    1    2    0    0 -0.23865915803E+03  0.53877760634E+03  0.24203021256E+03  0.10869269630E+04  0.88067706692E+03 0.  0.
        -24    2    4    4    0    0  0.29864584677E+03  0.26133239873E+03 -0.54365152600E+02  0.40863630607E+03  0.80895589522E+02 0.  0.
         24    2    4    4    0    0 -0.53730500481E+03  0.27744520762E+03  0.29639536516E+03  0.67829065688E+03  0.80965988547E+02 0.  0.
         11    1    3    3    0    0  0.28002399392E+02 -0.15701243766E+02  0.44209629794E+02  0.54636570116E+02  0.00000000000E+00 0. -1.
        -11    1    3    3    0    0  0.21065675864E+03 -0.52307636258E+03  0.73598028818E+03  0.92717427468E+03  0.00000000000E+00 0.  1.
          2    1    6    6  502    0 -0.41682662655E+03  0.23857762920E+03  0.20522198558E+03  0.52228324223E+03  0.00000000000E+00 0. -1.
          3    1    5    5  503    0  0.22003426680E+03  0.17375491995E+03 -0.33939796973E+01  0.28038789180E+03  0.00000000000E+00 0. -1.
         -4    1    5    5    0  503  0.78611579973E+02  0.87577478780E+02 -0.50971172902E+02  0.12824841427E+03  0.00000000000E+00 0.  1.
         -1    1    6    6    0  502 -0.12047837825E+03  0.38867578420E+02  0.91173379586E+02  0.15600741464E+03  0.00000000000E+00 0.  1.
<mgrwt>
<rscale>  0 0.17985389E+04</rscale>
<asrwt>0</asrwt>
<pdfrwt beam="1">  1        2 0.23776599E+00 0.17985389E+04</pdfrwt>
<pdfrwt beam="2">  1       -2 0.80501360E-01 0.17985389E+04</pdfrwt>
<totfact> 0.15398590E+01</totfact>
</mgrwt>
</event>
<event>
12    1  0.1496989E-007  0.1311967E+04  0.7818608E-02  0.9020128E-01
          1   -1    0    0  501    0  0.00000000000E+00  0.00000000000E+00  0.10523319794E+04  0.10523319794E+04  0.00000000000E+00 0. -1.
         -1   -1    0    0    0  501 -0.00000000000E+00 -0.00000000000E+00 -0.40891518902E+03  0.40891518902E+03  0.00000000000E+00 0.  1.
         23    2    1    2    0    0 -0.26075083658E+03  0.20869224985E+03  0.25174350108E+03  0.42847097267E+03  0.93108163760E+02 0.  0.
        254    2    1    2    0    0  0.26075083658E+03 -0.20869224985E+03  0.39167328931E+03  0.10327761958E+04  0.89536319505E+03 0.  0.
        -24    2    4    4    0    0  0.55028557272E+03 -0.68542933134E+02  0.42044678470E+03  0.70075866624E+03  0.82309563978E+02 0.  0.
         24    2    4    4    0    0 -0.28953473614E+03 -0.14014931671E+03 -0.28773495389E+02  0.33201752952E+03  0.77042400444E+02 0.  0.
         13    1    3    3    0    0 -0.23971233821E+03  0.15197937458E+03  0.22562803580E+03  0.36258481205E+03  0.00000000000E+00 0. -1.
        -13    1    3    3    0    0 -0.21038498375E+02  0.56712875265E+02  0.26115465275E+02  0.65886160620E+02  0.00000000000E+00 0.  1.
          4    1    6    6  502    0 -0.27031142401E+03 -0.10376505892E+03 -0.22861179095E+02  0.29044463657E+03  0.00000000000E+00 0. -1.
          1    1    5    5  503    0  0.46737538983E+03 -0.83663295127E+02  0.37483249905E+03  0.60492867705E+03  0.00000000000E+00 0. -1.
         -2    1    5    5    0  503  0.82910182885E+02  0.15120361993E+02  0.45614285647E+02  0.95829989188E+02  0.00000000000E+00 0.  1.
         -3    1    6    6    0  502 -0.19223312125E+02 -0.36384257789E+02 -0.59123162943E+01  0.41572892945E+02  0.00000000000E+00 0.  1.
<mgrwt>
<rscale>  0 0.13119673E+04</rscale>
<asrwt>0</asrwt>
<pdfrwt beam="1">  1        1 0.16189723E+00 0.13119673E+04</pdfrwt>
<pdfrwt beam="2">  1       -1 0.62910029E-01 0.13119673E+04</pdfrwt>
<totfact> 0.34674535E+01</totfact>
</mgrwt>
</event>
<event>
12    1  0.1496989E-007  0.1483953E+04  0.7818608E-02  0.8895195E-01
         -2   -1    0    0    0  501 -0.00000000000E+00  0.00000000000E+00  0.38964201306E+03  0.38964201306E+03  0.00000000000E+00 0.  1.
          2   -1    0    0  501    0  0.00000000000E+00 -0.00000000000E+00 -0.14129100925E+04  0.14129100925E+04  0.00000000000E+00 0. -1.
         23    2    1    2    0    0 -0.22624992171E+03 -0.62139132563E+02 -0.81708652610E+03  0.85517218130E+03  0.92944981890E+02 0.  0.
        254    2    1    2    0    0  0.22624992171E+03  0.62139132563E+02 -0.20618155336E+03  0.94737992428E+03  0.89440907258E+03 0.  0.
        -24    2    4    4    0    0  0.35755849335E+03 -0.20430619290E+02  0.26019645598E+03  0.44985400420E+03  0.80005893640E+02 0.  0.
         24    2    4    4    0    0 -0.13130857164E+03  0.82569751853E+02 -0.46637800934E+03  0.49752592008E+03  0.77226217378E+02 0.  0.
         11    1    3    3    0    0 -0.14763472368E+03 -0.82024119871E+02 -0.49434577536E+03  0.52239995549E+03  0.00000000000E+00 0. -1.
        -11    1    3    3    0    0 -0.78615198032E+02  0.19884987308E+02 -0.32274075074E+03  0.33277222581E+03  0.00000000000E+00 0.  1.
          2    1    6    6  502    0 -0.12547938483E+03  0.63094781603E+02 -0.45003644587E+03  0.47144334771E+03  0.00000000000E+00 0. -1.
          1    1    5    5  503    0  0.21601125899E+03  0.90635380331E+01  0.19537602472E+03  0.29140144606E+03  0.00000000000E+00 0. -1.
         -2    1    5    5    0  503  0.14154723436E+03 -0.29494157323E+02  0.64820431265E+02  0.15845255814E+03  0.00000000000E+00 0.  1.
         -1    1    6    6    0  502 -0.58291868107E+01  0.19474970250E+02 -0.16341563462E+02  0.26082572371E+02  0.00000000000E+00 0.  1.
<mgrwt>
<rscale>  0 0.14839530E+04</rscale>
<asrwt>0</asrwt>
<pdfrwt beam="1">  1        2 0.21737078E+00 0.14839530E+04</pdfrwt>
<pdfrwt beam="2">  1       -2 0.59944925E-01 0.14839530E+04</pdfrwt>
<totfact> 0.35708063E+01</totfact>
</mgrwt>
</event>
<event>
12    1  0.1496989E-007  0.2374158E+04  0.7818608E-02  0.8449242E-01
          2   -1    0    0  501    0  0.00000000000E+00  0.00000000000E+00  0.35730552799E+04  0.35730552799E+04  0.00000000000E+00 0. -1.
         -2   -1    0    0    0  501 -0.00000000000E+00 -0.00000000000E+00 -0.39438429705E+03  0.39438429705E+03  0.00000000000E+00 0.  1.
         23    2    1    2    0    0 -0.65908908628E+03  0.50250419156E+03  0.23344660521E+04  0.24788091457E+04  0.88623620081E+02 0.  0.
        254    2    1    2    0    0  0.65908908628E+03 -0.50250419156E+03  0.84420493071E+03  0.14886304312E+04  0.90356500021E+03 0.  0.
        -24    2    4    4    0    0  0.86456004209E+03 -0.43184370350E+03  0.54848407607E+03  0.11139016880E+04  0.77389523090E+02 0.  0.
         24    2    4    4    0    0 -0.20547095581E+03 -0.70660488064E+02  0.29572085464E+03  0.37472874320E+03  0.75891955152E+02 0.  0.
         13    1    3    3    0    0 -0.46963323265E+03  0.35496221994E+03  0.15331051659E+04  0.16422438919E+04  0.00000000000E+00 0. -1.
        -13    1    3    3    0    0 -0.18945585363E+03  0.14754197162E+03  0.80136088624E+03  0.83656525380E+03  0.00000000000E+00 0.  1.
          4    1    6    6  502    0 -0.15018985437E+03 -0.17760736100E+02  0.16981937049E+03  0.22740064797E+03  0.00000000000E+00 0. -1.
          1    1    5    5  503    0  0.84860030118E+03 -0.41236327813E+03  0.52635713521E+03  0.10803785346E+04  0.00000000000E+00 0. -1.
         -2    1    5    5    0  503  0.15959740909E+02 -0.19480425365E+02  0.22126940854E+02  0.33523153400E+02  0.00000000000E+00 0.  1.
         -3    1    6    6    0  502 -0.55281101446E+02 -0.52899751964E+02  0.12590148415E+03  0.14732809523E+03  0.00000000000E+00 0.  1.
<mgrwt>
<rscale>  0 0.23741583E+04</rscale>
<asrwt>0</asrwt>
<pdfrwt beam="1">  1        2 0.54970079E+00 0.23741583E+04</pdfrwt>
<pdfrwt beam="2">  1       -2 0.60674510E-01 0.23741583E+04</pdfrwt>
<totfact> 0.16491892E+00</totfact>
</mgrwt>
</event>
<event>
12    1  0.1496989E-007  0.2196406E+04  0.7818608E-02  0.8519926E-01
          2   -1    0    0  501    0  0.00000000000E+00  0.00000000000E+00  0.16269611715E+04  0.16269611715E+04  0.00000000000E+00 0.  1.
         -2   -1    0    0    0  501 -0.00000000000E+00 -0.00000000000E+00 -0.74128963649E+03  0.74128963649E+03  0.00000000000E+00 0. -1.
         23    2    1    2    0    0  0.87614992672E+03 -0.11042723425E+03  0.13977017442E+03  0.89867992667E+03  0.90868260635E+02 0.  0.
        254    2    1    2    0    0 -0.87614992672E+03  0.11042723425E+03  0.74590136055E+03  0.14695708813E+04  0.90743422200E+03 0.  0.
        -24    2    4    4    0    0 -0.43062609878E+01  0.27544580421E+03  0.44380241267E+03  0.52855478705E+03  0.80750520008E+02 0.  0.
         24    2    4    4    0    0 -0.87184366574E+03 -0.16501856996E+03  0.30209894788E+03  0.94101609422E+03  0.83096385968E+02 0.  0.
         13    1    3    3    0    0  0.10351994902E+03  0.41100636171E+01 -0.73880026954E+01  0.10386459961E+03  0.00000000000E+00 0. -1.
        -13    1    3    3    0    0  0.77262997770E+03 -0.11453729787E+03  0.14715817711E+03  0.79481532706E+03  0.00000000000E+00 0.  1.
          2    1    6    6  502    0 -0.76892564757E+03 -0.14671150706E+03  0.23707628683E+03  0.81790958153E+03  0.00000000000E+00 0. -1.
          1    1    5    5  503    0 -0.32718597824E+02  0.19036331641E+03  0.25860588621E+03  0.32277810220E+03  0.00000000000E+00 0. -1.
         -2    1    5    5    0  503  0.28412336836E+02  0.85082487801E+02  0.18519652646E+03  0.20577668485E+03  0.00000000000E+00 0.  1.
         -1    1    6    6    0  502 -0.10291801817E+03 -0.18307062900E+02  0.65022661054E+02  0.12310651269E+03  0.00000000000E+00 0.  1.
<mgrwt>
<rscale>  0 0.21964057E+04</rscale>
<asrwt>0</asrwt>
<pdfrwt beam="1">  1        2 0.25030172E+00 0.21964057E+04</pdfrwt>
<pdfrwt beam="2">  1       -2 0.11404456E+00 0.21964057E+04</pdfrwt>
<totfact> 0.59272575E+00</totfact>
</mgrwt>
</event>
<event>
12    1  0.1839547E-007  0.2039468E+04  0.7818608E-02  0.8588387E-01
         -1   -1    0    0    0  501 -0.00000000000E+00  0.00000000000E+00  0.66825522729E+03  0.66825522729E+03  0.00000000000E+00 0.  1.
          1   -1    0    0  501    0  0.00000000000E+00 -0.00000000000E+00 -0.15560786824E+04  0.15560786824E+04  0.00000000000E+00 0. -1.
         23    2    1    2    0    0 -0.21531635167E+03 -0.62272433710E+03 -0.84005356585E+03  0.10715258017E+04  0.91273319999E+02 0.  0.
        254    2    1    2    0    0  0.21531635167E+03  0.62272433710E+03 -0.47769889282E+02  0.11528081080E+04  0.94474220834E+03 0.  0.
        -24    2    4    4    0    0  0.29790697558E+03 -0.52170957251E+02  0.25490611703E+03  0.40427947071E+03  0.83632452179E+02 0.  0.
         24    2    4    4    0    0 -0.82590623906E+02  0.67489529435E+03 -0.30267600631E+03  0.74852863729E+03  0.79859166941E+02 0.  0.
         13    1    3    3    0    0 -0.20731670970E+03 -0.62171625612E+03 -0.83664284008E+03  0.10627711716E+04  0.00000000000E+00 0. -1.
        -13    1    3    3    0    0 -0.79996419746E+01 -0.10080809848E+01 -0.34107257661E+01  0.87546301604E+01  0.00000000000E+00 0.  1.
          4    1    6    6  502    0 -0.90808011742E+01  0.66211782657E+02 -0.51097865397E+01  0.67026644188E+02  0.00000000000E+00 0. -1.
          3    1    5    5  503    0  0.87419007072E+02  0.16903273880E+02  0.48004288993E+02  0.10115441279E+03  0.00000000000E+00 0. -1.
         -4    1    5    5    0  503  0.21048796851E+03 -0.69074231131E+02  0.20690182803E+03  0.30312505792E+03  0.00000000000E+00 0.  1.
         -3    1    6    6    0  502 -0.73509822731E+02  0.60868351170E+03 -0.29756621977E+03  0.68150199310E+03  0.00000000000E+00 0.  1.
<mgrwt>
<rscale>  0 0.20394683E+04</rscale>
<asrwt>0</asrwt>
<pdfrwt beam="1">  1        1 0.23939672E+00 0.20394683E+04</pdfrwt>
<pdfrwt beam="2">  1       -1 0.10280850E+00 0.20394683E+04</pdfrwt>
<totfact> 0.49451921E+00</totfact>
</mgrwt>
</event>
<event>
12    1  0.1496989E-007  0.1624184E+04  0.7818608E-02  0.8805827E-01
          1   -1    0    0  501    0  0.00000000000E+00  0.00000000000E+00  0.14705285906E+04  0.14705285906E+04  0.00000000000E+00 0. -1.
         -1   -1    0    0    0  501 -0.00000000000E+00 -0.00000000000E+00 -0.44847377663E+03  0.44847377663E+03  0.00000000000E+00 0.  1.
         23    2    1    2    0    0  0.18892511682E+03  0.16754155409E+02 -0.22050727696E+03  0.30505351861E+03  0.91982544713E+02 0.  0.
        254    2    1    2    0    0 -0.18892511682E+03 -0.16754155409E+02  0.12425620909E+04  0.16139488486E+04  0.10123719349E+04 0.  0.
        -24    2    4    4    0    0  0.38502804475E+03  0.28332602099E+02  0.25849915298E+03  0.47112221432E+03  0.78006391707E+02 0.  0.
         24    2    4    4    0    0 -0.57395316157E+03 -0.45086757508E+02  0.98406293794E+03  0.11428266343E+04  0.78853045870E+02 0.  0.
         11    1    3    3    0    0  0.26911709398E+02 -0.31777985373E+02 -0.45474710640E+02  0.61660601399E+02  0.00000000000E+00 0. -1.
        -11    1    3    3    0    0  0.16201340742E+03  0.48532140782E+02 -0.17503256632E+03  0.24339291721E+03  0.00000000000E+00 0.  1.
          4    1    6    6  502    0 -0.34238979972E+01 -0.87513630176E+01  0.16930646597E+02  0.19363786467E+02  0.00000000000E+00 0. -1.
          3    1    5    5  503    0  0.29118055026E+03 -0.99488717727E+01  0.17555002024E+03  0.34015129356E+03  0.00000000000E+00 0. -1.
         -4    1    5    5    0  503  0.93847494483E+02  0.38281473871E+02  0.82949132736E+02  0.13097092076E+03  0.00000000000E+00 0.  1.
         -3    1    6    6    0  502 -0.57052926357E+03 -0.36335394490E+02  0.96713229134E+03  0.11234628478E+04  0.00000000000E+00 0.  1.
<mgrwt>
<rscale>  0 0.16241841E+04</rscale>
<asrwt>0</asrwt>
<pdfrwt beam="1">  1        1 0.22623517E+00 0.16241841E+04</pdfrwt>
<pdfrwt beam="2">  1       -1 0.68995966E-01 0.16241841E+04</pdfrwt>
<totfact> 0.13956851E+01</totfact>
</mgrwt>
</event>
<event>
12    1  0.1496989E-007  0.3074765E+04  0.7818608E-02  0.8222698E-01
         -2   -1    0    0    0  501 -0.00000000000E+00  0.00000000000E+00  0.56645598800E+03  0.56645598800E+03  0.00000000000E+00 0. -1.
          2   -1    0    0  501    0  0.00000000000E+00 -0.00000000000E+00 -0.41725127105E+04  0.41725127105E+04  0.00000000000E+00 0.  1.
         23    2    1    2    0    0 -0.98765207135E+03 -0.99498005646E+03 -0.16453479203E+04  0.21641523369E+04  0.10461181373E+03 0.  0.
        254    2    1    2    0    0  0.98765207135E+03  0.99498005646E+03 -0.19607088022E+04  0.25748163617E+04  0.90546030412E+03 0.  0.
        -24    2    4    4    0    0  0.10877069791E+04  0.69313312076E+03 -0.17812540238E+04  0.22004340312E+04  0.74189166908E+02 0.  0.
         24    2    4    4    0    0 -0.10005490779E+03  0.30184693570E+03 -0.17945477838E+03  0.37438233050E+03  0.82677413700E+02 0.  0.
         11    1    3    3    0    0 -0.97350741454E+03 -0.99447375561E+03 -0.16272332987E+04  0.21411639230E+04  0.00000000000E+00 0. -1.
        -11    1    3    3    0    0 -0.14144656808E+02 -0.50630085412E+00 -0.18114621618E+02  0.22988413889E+02  0.00000000000E+00 0.  1.
          2    1    6    6  502    0 -0.51890727191E+02  0.18742645489E+03 -0.15300702680E+03  0.24745196263E+03  0.00000000000E+00 0. -1.
          1    1    5    5  503    0  0.79662648497E+03  0.47668605721E+03 -0.12449849950E+04  0.15530070803E+04  0.00000000000E+00 0. -1.
         -2    1    5    5    0  503  0.29108049416E+03  0.21644706355E+03 -0.53626902886E+03  0.64742695088E+03  0.00000000000E+00 0.  1.
         -1    1    6    6    0  502 -0.48164180596E+02  0.11442048081E+03 -0.26447751588E+02  0.12693036786E+03  0.00000000000E+00 0.  1.
<mgrwt>
<rscale>  0 0.30747649E+04</rscale>
<asrwt>0</asrwt>
<pdfrwt beam="1">  1        2 0.64192501E+00 0.30747649E+04</pdfrwt>
<pdfrwt beam="2">  1       -2 0.87147078E-01 0.30747649E+04</pdfrwt>
<totfact> 0.23754815E-01</totfact>
</mgrwt>
</event>
<event>
12    1  0.1496989E-007  0.1482819E+04  0.7818608E-02  0.8895959E-01
          2   -1    0    0  501    0  0.00000000000E+00  0.00000000000E+00  0.18053904061E+04  0.18053904061E+04  0.00000000000E+00 0. -1.
         -2   -1    0    0    0  501 -0.00000000000E+00 -0.00000000000E+00 -0.30447065242E+03  0.30447065242E+03  0.00000000000E+00 0.  1.
         23    2    1    2    0    0 -0.38232690167E+02 -0.41619497819E+03  0.76841430106E+03  0.87950453408E+03  0.91584326873E+02 0.  0.
        254    2    1    2    0    0  0.38232690167E+02  0.41619497819E+03  0.73250545259E+03  0.12303565244E+04  0.89584202881E+03 0.  0.
        -24    2    4    4    0    0  0.20481828149E+03  0.50773736285E+03  0.83374408799E+03  0.10003514269E+04  0.76328336299E+02 0.  0.
         24    2    4    4    0    0 -0.16658559132E+03 -0.91542384661E+02 -0.10123863540E+03  0.23000509753E+03  0.80760857897E+02 0.  0.
         13    1    3    3    0    0 -0.29082439529E+02 -0.18809979810E+03  0.44146201253E+03  0.48074528687E+03  0.00000000000E+00 0. -1.
        -13    1    3    3    0    0 -0.91502506387E+01 -0.22809518009E+03  0.32695228853E+03  0.39875924722E+03  0.00000000000E+00 0.  1.
          2    1    6    6  502    0 -0.46339228656E+02 -0.27917328342E+02  0.90791920677E+01  0.54855565468E+02  0.00000000000E+00 0. -1.
          1    1    5    5  503    0  0.32324584279E+02  0.10805965121E+03  0.12293805740E+03  0.16683984214E+03  0.00000000000E+00 0. -1.
         -4    1    5    5    0  503  0.17249369721E+03  0.39967771164E+03  0.71080603058E+03  0.83351158473E+03  0.00000000000E+00 0.  1.
         -1    1    6    6    0  502 -0.12024636266E+03 -0.63625056319E+02 -0.11031782746E+03  0.17514953206E+03  0.00000000000E+00 0.  1.
<mgrwt>
<rscale>  0 0.14828195E+04</rscale>
<asrwt>0</asrwt>
<pdfrwt beam="1">  1        2 0.27775236E+00 0.14828195E+04</pdfrwt>
<pdfrwt beam="2">  1       -2 0.46841640E-01 0.14828195E+04</pdfrwt>
<totfact> 0.35817435E+01</totfact>
</mgrwt>
</event>
<event>
12    1  0.1496989E-007  0.1317831E+04  0.7818608E-02  0.9015544E-01
          2   -1    0    0  501    0  0.00000000000E+00  0.00000000000E+00  0.12518522468E+04  0.12518522468E+04  0.00000000000E+00 0.  1.
         -2   -1    0    0    0  501 -0.00000000000E+00 -0.00000000000E+00 -0.34682158626E+03  0.34682158626E+03  0.00000000000E+00 0. -1.
         23    2    1    2    0    0 -0.21209125671E+03  0.13205557408E+03 -0.65915498347E+02  0.27415983089E+03  0.91637242050E+02 0.  0.
        254    2    1    2    0    0  0.21209125671E+03 -0.13205557408E+03  0.97094615892E+03  0.13245140022E+04  0.86555157137E+03 0.  0.
        -24    2    4    4    0    0 -0.57055325260E+02  0.15274234549E+03 -0.81730604931E+02  0.19841472020E+03  0.78121540965E+02 0.  0.
         24    2    4    4    0    0  0.26914658197E+03 -0.28479791957E+03  0.10526767639E+04  0.11260992820E+04  0.80134176226E+02 0.  0.
         13    1    3    3    0    0 -0.15257975083E+03  0.98294141893E+02 -0.34801387315E+01  0.18153355079E+03  0.00000000000E+00 0.  1.
        -13    1    3    3    0    0 -0.59511505876E+02  0.33761432188E+02 -0.62435359616E+02  0.92626280101E+02  0.00000000000E+00 0. -1.
          2    1    6    6  502    0  0.13623498259E+02 -0.17639684702E+02  0.13381974198E+03  0.13566311778E+03  0.00000000000E+00 0. -1.
          3    1    5    5  503    0  0.34131981469E+01  0.52393418225E+02 -0.59163739133E+02  0.79101632240E+02  0.00000000000E+00 0. -1.
         -4    1    5    5    0  503 -0.60468523406E+02  0.10034892727E+03 -0.22566865799E+02  0.11931308796E+03  0.00000000000E+00 0.  1.
         -1    1    6    6    0  502  0.25552308371E+03 -0.26715823487E+03  0.91885702187E+03  0.99043616423E+03  0.00000000000E+00 0.  1.
<mgrwt>
<rscale>  0 0.13178306E+04</rscale>
<asrwt>0</asrwt>
<pdfrwt beam="1">  1        2 0.19259265E+00 0.13178306E+04</pdfrwt>
<pdfrwt beam="2">  1       -2 0.53357168E-01 0.13178306E+04</pdfrwt>
<totfact> 0.57177366E+01</totfact>
</mgrwt>
</event>
<event>
12    1  0.1496989E-007  0.1787675E+04  0.7818608E-02  0.8712881E-01
         -1   -1    0    0    0  501 -0.00000000000E+00  0.00000000000E+00  0.53819031879E+03  0.53819031879E+03  0.00000000000E+00 0.  1.
          1   -1    0    0  501    0  0.00000000000E+00 -0.00000000000E+00 -0.14845042190E+04  0.14845042190E+04  0.00000000000E+00 0. -1.
         23    2    1    2    0    0  0.19245753847E+03 -0.62807426181E+03 -0.30853921400E+03  0.73170310003E+03  0.93143961474E+02 0.  0.
        254    2    1    2    0    0 -0.19245753847E+03  0.62807426181E+03 -0.63777468625E+03  0.12909914378E+04  0.91015666761E+03 0.  0.
        -24    2    4    4    0    0 -0.22760213977E+03  0.81188182637E+03 -0.67660402574E+03  0.10840146394E+04  0.79623468441E+02 0.  0.
         24    2    4    4    0    0  0.35144601304E+02 -0.18380756456E+03  0.38829339490E+02  0.20697679842E+03  0.79443776915E+02 0.  0.
         11    1    3    3    0    0  0.14125715988E+03 -0.52706002841E+03 -0.28660016964E+03  0.61634853452E+03  0.00000000000E+00 0. -1.
        -11    1    3    3    0    0  0.51200378591E+02 -0.10101423341E+03 -0.21939044355E+02  0.11535456552E+03  0.00000000000E+00 0.  1.
          2    1    6    6  502    0  0.26638131236E+02 -0.87627589084E+01  0.47174919093E+01  0.28436432782E+02  0.00000000000E+00 0. -1.
          3    1    5    5  503    0  0.40629804790E+01  0.56590817266E+02 -0.39943204825E+02  0.69386511808E+02  0.00000000000E+00 0. -1.
         -4    1    5    5    0  503 -0.23166512025E+03  0.75529100910E+03 -0.63666082092E+03  0.10146281276E+04  0.00000000000E+00 0.  1.
         -1    1    6    6    0  502  0.85064700683E+01 -0.17504480565E+03  0.34111847580E+02  0.17854036564E+03  0.00000000000E+00 0.  1.
<mgrwt>
<rscale>  0 0.17876754E+04</rscale>
<asrwt>0</asrwt>
<pdfrwt beam="1">  1        1 0.22838526E+00 0.17876754E+04</pdfrwt>
<pdfrwt beam="2">  1       -1 0.82798511E-01 0.17876754E+04</pdfrwt>
<totfact> 0.91784134E+00</totfact>
</mgrwt>
</event>
<event>
12    1  0.1496989E-007  0.1939359E+04  0.7818608E-02  0.8635509E-01
          1   -1    0    0  501    0  0.00000000000E+00  0.00000000000E+00  0.75799973843E+03  0.75799973843E+03  0.00000000000E+00 0. -1.
         -1   -1    0    0    0  501 -0.00000000000E+00 -0.00000000000E+00 -0.12404734452E+04  0.12404734452E+04  0.00000000000E+00 0.  1.
         23    2    1    2    0    0  0.20051010530E+03  0.38074432134E+03 -0.84551727660E+03  0.95311177213E+03  0.91389521147E+02 0.  0.
        254    2    1    2    0    0 -0.20051010530E+03 -0.38074432134E+03  0.36304356979E+03  0.10453614116E+04  0.88080037843E+03 0.  0.
        -24    2    4    4    0    0 -0.33457052477E+03 -0.58816774500E+03  0.39199986483E+03  0.78601549744E+03  0.79232164501E+02 0.  0.
         24    2    4    4    0    0  0.13406041948E+03  0.20742342365E+03 -0.28956295042E+02  0.25934591411E+03  0.73655708475E+02 0.  0.
         11    1    3    3    0    0  0.19564175849E+03  0.29862265124E+03 -0.66627919033E+03  0.75589625278E+03  0.00000000000E+00 0.  1.
        -11    1    3    3    0    0  0.48683468016E+01  0.82121670105E+02 -0.17923808627E+03  0.19721551935E+03  0.00000000000E+00 0. -1.
          4    1    6    6  502    0  0.59602970920E+02  0.40283867932E+02 -0.25543717540E+02  0.76339934922E+02  0.00000000000E+00 0. -1.
          3    1    5    5  503    0 -0.29616051517E+02 -0.72586240919E+02  0.74082365227E+02  0.10786134486E+03  0.00000000000E+00 0. -1.
         -4    1    5    5    0  503 -0.30495447326E+03 -0.51558150408E+03  0.31791749960E+03  0.67815415258E+03  0.00000000000E+00 0.  1.
         -3    1    6    6    0  502  0.74457448558E+02  0.16713955572E+03 -0.34125775021E+01  0.18300597919E+03  0.00000000000E+00 0.  1.
<mgrwt>
<rscale>  0 0.19393592E+04</rscale>
<asrwt>0</asrwt>
<pdfrwt beam="1">  1        1 0.11661535E+00 0.19393592E+04</pdfrwt>
<pdfrwt beam="2">  1       -1 0.19084207E+00 0.19393592E+04</pdfrwt>
<totfact> 0.39149794E+00</totfact>
</mgrwt>
</event>
<event>
12    1  0.1496989E-007  0.1597769E+04  0.7818608E-02  0.8821920E-01
          2   -1    0    0  501    0  0.00000000000E+00  0.00000000000E+00  0.18457974662E+04  0.18457974662E+04  0.00000000000E+00 0. -1.
         -2   -1    0    0    0  501 -0.00000000000E+00 -0.00000000000E+00 -0.34576728371E+03  0.34576728371E+03  0.00000000000E+00 0.  1.
         23    2    1    2    0    0  0.28030397019E+03 -0.46885585614E+03  0.54350951671E+03  0.77580778434E+03  0.89883223972E+02 0.  0.
        254    2    1    2    0    0 -0.28030397019E+03  0.46885585614E+03  0.95652066574E+03  0.14157569655E+04  0.88940422301E+03 0.  0.
        -24    2    4    4    0    0 -0.55179819781E+03  0.13594041574E+03  0.36719795649E+03  0.68138140980E+03  0.80530979307E+02 0.  0.
         24    2    4    4    0    0  0.27149422763E+03  0.33291544039E+03  0.58932270925E+03  0.73437555573E+03  0.86396730977E+02 0.  0.
         13    1    3    3    0    0 -0.31365930988E+01 -0.33926645802E+02  0.40873324522E+02  0.53211692034E+02  0.00000000000E+00 0.  1.
        -13    1    3    3    0    0  0.28344056329E+03 -0.43492921033E+03  0.50263619219E+03  0.72259609230E+03  0.00000000000E+00 0. -1.
          2    1    6    6  502    0  0.20552084671E+03  0.29088771406E+03  0.44266445304E+03  0.56816045147E+03  0.00000000000E+00 0. -1.
          3    1    5    5  503    0 -0.40663756858E+03  0.65275542822E+02  0.24864018105E+03  0.48107894186E+03  0.00000000000E+00 0. -1.
         -4    1    5    5    0  503 -0.14516062923E+03  0.70664872920E+02  0.11855777545E+03  0.20030246794E+03  0.00000000000E+00 0.  1.
         -1    1    6    6    0  502  0.65973380912E+02  0.42027726336E+02  0.14665825621E+03  0.16621510426E+03  0.00000000000E+00 0.  1.
<mgrwt>
<rscale>  0 0.15977689E+04</rscale>
<asrwt>0</asrwt>
<pdfrwt beam="1">  1        2 0.28396884E+00 0.15977689E+04</pdfrwt>
<pdfrwt beam="2">  1       -2 0.53194968E-01 0.15977689E+04</pdfrwt>
<totfact> 0.26005681E+01</totfact>
</mgrwt>
</event>
<event>
12    1  0.1496989E-007  0.1702036E+04  0.7818608E-02  0.8760204E-01
          2   -1    0    0  501    0  0.00000000000E+00  0.00000000000E+00  0.11887478028E+04  0.11887478028E+04  0.00000000000E+00 0. -1.
         -2   -1    0    0    0  501 -0.00000000000E+00 -0.00000000000E+00 -0.60923939412E+03  0.60923939412E+03  0.00000000000E+00 0.  1.
         23    2    1    2    0    0  0.51566842692E+03  0.17223820183E+03  0.49604476223E+03  0.74150992575E+03  0.90535292284E+02 0.  0.
        254    2    1    2    0    0 -0.51566842692E+03 -0.17223820183E+03  0.83463646432E+02  0.10564772712E+04  0.90199674030E+03 0.  0.
        -24    2    4    4    0    0 -0.16969582920E+03 -0.41992254623E+03  0.32241174079E+03  0.56174955650E+03  0.80508473781E+02 0.  0.
         24    2    4    4    0    0 -0.34597259772E+03  0.24768434440E+03 -0.23894809436E+03  0.49472771466E+03  0.81331095014E+02 0.  0.
         13    1    3    3    0    0  0.16351015974E+03  0.28964374666E+02  0.19804732519E+03  0.25845164026E+03  0.00000000000E+00 0.  1.
        -13    1    3    3    0    0  0.35215826718E+03  0.14327382716E+03  0.29799743705E+03  0.48305828549E+03  0.00000000000E+00 0. -1.
          4    1    6    6  502    0 -0.31871018894E+03  0.25098789281E+03 -0.22579524824E+03  0.46427858124E+03  0.00000000000E+00 0. -1.
          1    1    5    5  503    0 -0.13288514666E+03 -0.37158341797E+03  0.24969900667E+03  0.46699281862E+03  0.00000000000E+00 0. -1.
         -2    1    5    5    0  503 -0.36810682541E+02 -0.48339128258E+02  0.72712734125E+02  0.94756737880E+02  0.00000000000E+00 0.  1.
         -3    1    6    6    0  502 -0.27262408782E+02 -0.33035484112E+01 -0.13152846124E+02  0.30449133417E+02  0.00000000000E+00 0.  1.
<mgrwt>
<rscale>  0 0.17020364E+04</rscale>
<asrwt>0</asrwt>
<pdfrwt beam="1">  1        2 0.18288428E+00 0.17020364E+04</pdfrwt>
<pdfrwt beam="2">  1       -2 0.93729138E-01 0.17020364E+04</pdfrwt>
<totfact> 0.17605996E+01</totfact>
</mgrwt>
</event>
<event>
12    1  0.1496989E-007  0.2274537E+04  0.7818608E-02  0.8488029E-01
         -1   -1    0    0    0  501 -0.00000000000E+00  0.00000000000E+00  0.34972572573E+03  0.34972572573E+03  0.00000000000E+00 0.  1.
          1   -1    0    0  501    0  0.00000000000E+00 -0.00000000000E+00 -0.36982676097E+04  0.36982676097E+04  0.00000000000E+00 0. -1.
         23    2    1    2    0    0  0.92759235323E+03  0.41689934220E+02 -0.16210631254E+04  0.18711104385E+04  0.10508564289E+03 0.  0.
        254    2    1    2    0    0 -0.92759235323E+03 -0.41689934220E+02 -0.17274787586E+04  0.21768828969E+04  0.94470665340E+03 0.  0.
        -24    2    4    4    0    0 -0.15457690691E+03  0.37317548084E+03 -0.78479696659E+03  0.88665451515E+03  0.84237704249E+02 0.  0.
         24    2    4    4    0    0 -0.77301544632E+03 -0.41486541505E+03 -0.94268179198E+03  0.12902283817E+04  0.79838106267E+02 0.  0.
         13    1    3    3    0    0  0.66700909775E+03  0.25972787610E+02 -0.12552606732E+04  0.14217085074E+04  0.00000000000E+00 0. -1.
        -13    1    3    3    0    0  0.26058325547E+03  0.15717146610E+02 -0.36580245215E+03  0.44940193116E+03  0.00000000000E+00 0.  1.
          4    1    6    6  502    0 -0.36519401430E+03 -0.24041926744E+03 -0.45649485949E+03  0.63210414410E+03  0.00000000000E+00 0. -1.
          1    1    5    5  503    0 -0.33572549239E+02  0.32874023487E+02 -0.13892604604E+03  0.14665695943E+03  0.00000000000E+00 0. -1.
         -2    1    5    5    0  503 -0.12100435767E+03  0.34030145735E+03 -0.64587092055E+03  0.73999755572E+03  0.00000000000E+00 0.  1.
         -3    1    6    6    0  502 -0.40782143202E+03 -0.17444614761E+03 -0.48618693249E+03  0.65812423763E+03  0.00000000000E+00 0.  1.
<mgrwt>
<rscale>  0 0.22745367E+04</rscale>
<asrwt>0</asrwt>
<pdfrwt beam="1">  1        1 0.56896428E+00 0.22745367E+04</pdfrwt>
<pdfrwt beam="2">  1       -1 0.53803955E-01 0.22745367E+04</pdfrwt>
<totfact> 0.54839985E-01</totfact>
</mgrwt>
</event>
<event>
12    1  0.2010736E-007  0.1814351E+04  0.7818608E-02  0.8698705E-01
         -2   -1    0    0    0  501 -0.00000000000E+00  0.00000000000E+00  0.86843097981E+03  0.86843097981E+03  0.00000000000E+00 0.  1.
          2   -1    0    0  501    0  0.00000000000E+00 -0.00000000000E+00 -0.94764846867E+03  0.94764846867E+03  0.00000000000E+00 0. -1.
         23    2    1    2    0    0 -0.59443013398E+03 -0.24021877092E+03  0.20184629575E+03  0.67837339557E+03  0.91631297216E+02 0.  0.
        254    2    1    2    0    0  0.59443013398E+03  0.24021877092E+03 -0.28106378461E+03  0.11377060529E+04  0.89684222121E+03 0.  0.
        -24    2    4    4    0    0  0.12014149484E+03 -0.27023683297E+03 -0.30997290684E+03  0.43587563926E+03  0.80264844451E+02 0.  0.
         24    2    4    4    0    0  0.47428863914E+03  0.51045560388E+03  0.28909122230E+02  0.70183041365E+03  0.78838793923E+02 0.  0.
         13    1    3    3    0    0 -0.21597398184E+03 -0.93576316890E+02  0.12050693099E+03  0.26442996867E+03  0.00000000000E+00 0. -1.
        -13    1    3    3    0    0 -0.37845615214E+03 -0.14664245403E+03  0.81339364756E+02  0.41394342690E+03  0.00000000000E+00 0.  1.
          2    1    6    6  502    0  0.43401429267E+03  0.49037474522E+03  0.16153825829E+02  0.65505476342E+03  0.00000000000E+00 0. -1.
          3    1    5    5  503    0  0.10121304850E+03 -0.25028799876E+03 -0.30602726371E+03  0.40809416762E+03  0.00000000000E+00 0. -1.
         -4    1    5    5    0  503  0.18928446338E+02 -0.19948834205E+02 -0.39456431264E+01  0.27781471642E+02  0.00000000000E+00 0.  1.
         -1    1    6    6    0  502  0.40274346469E+02  0.20080858659E+02  0.12755296401E+02  0.46775650228E+02  0.00000000000E+00 0.  1.
<mgrwt>
<rscale>  0 0.18143509E+04</rscale>
<asrwt>0</asrwt>
<pdfrwt beam="1">  1        2 0.14579207E+00 0.18143509E+04</pdfrwt>
<pdfrwt beam="2">  1       -2 0.13360477E+00 0.18143509E+04</pdfrwt>
<totfact> 0.10408425E+01</totfact>
</mgrwt>
</event>
<event>
12    1  0.1496989E-007  0.2147775E+04  0.7818608E-02  0.8540485E-01
         -2   -1    0    0    0  501 -0.00000000000E+00  0.00000000000E+00  0.35552046816E+03  0.35552046816E+03  0.00000000000E+00 0.  1.
          2   -1    0    0  501    0  0.00000000000E+00 -0.00000000000E+00 -0.32437911723E+04  0.32437911723E+04  0.00000000000E+00 0. -1.
         23    2    1    2    0    0  0.21365102319E+03  0.49359925636E+03 -0.23731912315E+04  0.24353414440E+04  0.97797454217E+02 0.  0.
        254    2    1    2    0    0 -0.21365102319E+03 -0.49359925636E+03 -0.51507947264E+03  0.11639701964E+04  0.89455730363E+03 0.  0.
        -24    2    4    4    0    0 -0.32585600571E+03 -0.57008323449E+03 -0.67118364975E+03  0.94245746163E+03  0.81003361554E+02 0.  0.
         24    2    4    4    0    0  0.11220498253E+03  0.76483978134E+02  0.15610417711E+03  0.22151273481E+03  0.79117763868E+02 0.  0.
         13    1    3    3    0    0  0.13927274489E+03  0.21273696116E+03 -0.10080513782E+04  0.10396256505E+04  0.00000000000E+00 0.  1.
        -13    1    3    3    0    0  0.74378278300E+02  0.28086229520E+03 -0.13651398533E+04  0.13957157935E+04  0.00000000000E+00 0. -1.
          4    1    6    6  502    0  0.42072058607E+02 -0.60594759040E+01  0.74965898289E+02  0.86178078825E+02  0.00000000000E+00 0. -1.
          3    1    5    5  503    0 -0.27818032934E+03 -0.41693580441E+03 -0.50721722827E+03  0.71308420069E+03  0.00000000000E+00 0. -1.
         -4    1    5    5    0  503 -0.47675676379E+02 -0.15314743009E+03 -0.16396642148E+03  0.22937326093E+03  0.00000000000E+00 0.  1.
         -1    1    6    6    0  502  0.70132923920E+02  0.82543454038E+02  0.81138278816E+02  0.13533465599E+03  0.00000000000E+00 0.  1.
<mgrwt>
<rscale>  0 0.21477748E+04</rscale>
<asrwt>0</asrwt>
<pdfrwt beam="1">  1        2 0.49904481E+00 0.21477748E+04</pdfrwt>
<pdfrwt beam="2">  1       -2 0.54695455E-01 0.21477748E+04</pdfrwt>
<totfact> 0.35132116E+00</totfact>
</mgrwt>
</event>
<event>
12    1  0.1496989E-007  0.1629118E+04  0.7818608E-02  0.8802857E-01
         -2   -1    0    0    0  501 -0.00000000000E+00  0.00000000000E+00  0.51727124564E+03  0.51727124564E+03  0.00000000000E+00 0. -1.
          2   -1    0    0  501    0  0.00000000000E+00 -0.00000000000E+00 -0.12827049744E+04  0.12827049744E+04  0.00000000000E+00 0.  1.
         23    2    1    2    0    0 -0.38414907471E+03 -0.40295805307E+03 -0.34212372142E+03  0.65946926747E+03  0.88912146814E+02 0.  0.
        254    2    1    2    0    0  0.38414907471E+03  0.40295805307E+03 -0.42331000738E+03  0.11405069526E+04  0.90089901901E+03 0.  0.
        -24    2    4    4    0    0  0.21911971728E+03 -0.14339202477E+03 -0.48887957725E+03  0.56044741949E+03  0.80767231521E+02 0.  0.
         24    2    4    4    0    0  0.16502935743E+03  0.54635007784E+03  0.65569569870E+02  0.58005953312E+03  0.80228405764E+02 0.  0.
         13    1    3    3    0    0 -0.11142608127E+03 -0.17326383673E+03 -0.10458942623E+03  0.23103046722E+03  0.00000000000E+00 0. -1.
        -13    1    3    3    0    0 -0.27272299344E+03 -0.22969421634E+03 -0.23753429519E+03  0.42843880025E+03  0.00000000000E+00 0.  1.
          2    1    6    6  502    0  0.18721391775E+02  0.12173159622E+02  0.51961868785E+01  0.22927640159E+02  0.00000000000E+00 0. -1.
          1    1    5    5  503    0 -0.43304700298E+01 -0.42563529451E+01 -0.10937479683E+01  0.61697484300E+01  0.00000000000E+00 0. -1.
         -2    1    5    5    0  503  0.22345018731E+03 -0.13913567183E+03 -0.48778582929E+03  0.55427767106E+03  0.00000000000E+00 0.  1.
         -1    1    6    6    0  502  0.14630796566E+03  0.53417691822E+03  0.60373382992E+02  0.55713189296E+03  0.00000000000E+00 0.  1.
<mgrwt>
<rscale>  0 0.16291180E+04</rscale>
<asrwt>0</asrwt>
<pdfrwt beam="1">  1        2 0.19733922E+00 0.16291180E+04</pdfrwt>
<pdfrwt beam="2">  1       -2 0.79580193E-01 0.16291180E+04</pdfrwt>
<totfact> 0.22647826E+01</totfact>
</mgrwt>
</event>
<event>
12    1  0.1496989E-007  0.1723230E+04  0.7818608E-02  0.8748225E-01
          1   -1    0    0  501    0  0.00000000000E+00  0.00000000000E+00  0.14289485686E+04  0.14289485686E+04  0.00000000000E+00 0. -1.
         -1   -1    0    0    0  501 -0.00000000000E+00 -0.00000000000E+00 -0.51952916418E+03  0.51952916418E+03  0.00000000000E+00 0.  1.
         23    2    1    2    0    0 -0.29882331206E+03  0.52523329797E+03  0.16402895980E+03  0.63298878308E+03  0.92757267794E+02 0.  0.
        254    2    1    2    0    0  0.29882331206E+03 -0.52523329797E+03  0.74539044464E+03  0.13154889497E+04  0.89985491762E+03 0.  0.
        -24    2    4    4    0    0  0.11018780309E+03 -0.42595566948E+03 -0.84131246430E+02  0.45537702355E+03  0.81918145936E+02 0.  0.
         24    2    4    4    0    0  0.18863550897E+03 -0.99277628486E+02  0.82952169107E+03  0.86011192618E+03  0.79037249692E+02 0.  0.
         13    1    3    3    0    0 -0.29252902401E+02  0.55142829030E+02 -0.11293901200E+02  0.63435132984E+02  0.00000000000E+00 0.  1.
        -13    1    3    3    0    0 -0.26957040966E+03  0.47009046894E+03  0.17532286100E+03  0.56955365010E+03  0.00000000000E+00 0. -1.
          2    1    6    6  502    0  0.10363227821E+03 -0.80690677659E+02  0.37497546050E+03  0.39731250990E+03  0.00000000000E+00 0. -1.
          1    1    5    5  503    0 -0.12247728615E+02 -0.27416864330E+02  0.11725155746E+00  0.30028404118E+02  0.00000000000E+00 0. -1.
         -2    1    5    5    0  503  0.12243553171E+03 -0.39853880515E+03 -0.84248497988E+02  0.42534861943E+03  0.00000000000E+00 0.  1.
         -1    1    6    6    0  502  0.85003230759E+02 -0.18586950827E+02  0.45454623057E+03  0.46279941628E+03  0.00000000000E+00 0.  1.
<mgrwt>
<rscale>  0 0.17232301E+04</rscale>
<asrwt>0</asrwt>
<pdfrwt beam="1">  1        1 0.21983824E+00 0.17232301E+04</pdfrwt>
<pdfrwt beam="2">  1       -1 0.79927564E-01 0.17232301E+04</pdfrwt>
<totfact> 0.10883057E+01</totfact>
</mgrwt>
</event>
<event>
12    1  0.1496989E-007  0.1742412E+04  0.7818608E-02  0.8737538E-01
         -2   -1    0    0    0  501 -0.00000000000E+00  0.00000000000E+00  0.52419644616E+03  0.52419644616E+03  0.00000000000E+00 0.  1.
          2   -1    0    0  501    0  0.00000000000E+00 -0.00000000000E+00 -0.14479299098E+04  0.14479299098E+04  0.00000000000E+00 0. -1.
         23    2    1    2    0    0 -0.22028204875E+02  0.59201948597E+02 -0.10490261876E+04  0.10547547082E+04  0.89785519580E+02 0.  0.
        254    2    1    2    0    0  0.22028204875E+02 -0.59201948597E+02  0.12529272401E+03  0.91737164778E+03  0.90657727798E+03 0.  0.
        -24    2    4    4    0    0 -0.17533162129E+03  0.34252631180E+03 -0.10588190118E+03  0.40708508982E+03  0.80261084343E+02 0.  0.
         24    2    4    4    0    0  0.19735982616E+03 -0.40172826040E+03  0.23117462519E+03  0.51028655796E+03  0.81327533595E+02 0.  0.
         11    1    3    3    0    0 -0.73558885180E+01 -0.11153987423E+02 -0.26233435766E+02  0.29440001417E+02  0.00000000000E+00 0.  1.
        -11    1    3    3    0    0 -0.14672316356E+02  0.70355936020E+02 -0.10227927519E+04  0.10253147068E+04  0.00000000000E+00 0. -1.
          2    1    6    6  502    0  0.12497933064E+02 -0.76576980407E+02  0.64081463575E+02  0.10063133823E+03  0.00000000000E+00 0. -1.
          1    1    5    5  503    0  0.34559218323E+01  0.23093114869E+02  0.63587869163E+01  0.24200609932E+02  0.00000000000E+00 0. -1.
         -2    1    5    5    0  503 -0.17878754312E+03  0.31943319693E+03 -0.11224068810E+03  0.38288447989E+03  0.00000000000E+00 0.  1.
         -1    1    6    6    0  502  0.18486189310E+03 -0.32515127999E+03  0.16709316162E+03  0.40965521974E+03  0.00000000000E+00 0.  1.
<mgrwt>
<rscale>  0 0.17424118E+04</rscale>
<asrwt>0</asrwt>
<pdfrwt beam="1">  1        2 0.22275844E+00 0.17424118E+04</pdfrwt>
<pdfrwt beam="2">  1       -2 0.80645608E-01 0.17424118E+04</pdfrwt>
<totfact> 0.17492370E+01</totfact>
</mgrwt>
</event>
<event>
12    1  0.1496989E-007  0.1884452E+04  0.7818608E-02  0.8662635E-01
         -1   -1    0    0    0  501 -0.00000000000E+00  0.00000000000E+00  0.71440700742E+03  0.71440700742E+03  0.00000000000E+00 0.  1.
          1   -1    0    0  501    0  0.00000000000E+00 -0.00000000000E+00 -0.12426947595E+04  0.12426947595E+04  0.00000000000E+00 0. -1.
         23    2    1    2    0    0 -0.46744294193E+02 -0.50558902518E+03 -0.73409363729E+03  0.89741880121E+03  0.93068496402E+02 0.  0.
        254    2    1    2    0    0  0.46744294193E+02  0.50558902518E+03  0.20580588525E+03  0.10596829657E+04  0.90706484550E+03 0.  0.
        -24    2    4    4    0    0 -0.16500772428E+03  0.59584627579E+02 -0.29496421442E+03  0.35215438272E+03  0.78936332346E+02 0.  0.
         24    2    4    4    0    0  0.21175201848E+03  0.44600439760E+03  0.50077009967E+03  0.70752858296E+03  0.77891995595E+02 0.  0.
         13    1    3    3    0    0 -0.49032812167E+02 -0.11125863561E+03 -0.18583187324E+03  0.22207247866E+03  0.00000000000E+00 0.  1.
        -13    1    3    3    0    0  0.22885179743E+01 -0.39433038957E+03 -0.54826176406E+03  0.67534632255E+03  0.00000000000E+00 0. -1.
          4    1    6    6  502    0  0.17501760152E+03  0.29008685676E+03  0.35891380105E+03  0.49355917770E+03  0.00000000000E+00 0. -1.
          3    1    5    5  503    0 -0.16747151103E+03  0.44077859336E+02 -0.24680330958E+03  0.30149865391E+03  0.00000000000E+00 0. -1.
         -4    1    5    5    0  503  0.24637867437E+01  0.15506768243E+02 -0.48160904839E+02  0.50655728811E+02  0.00000000000E+00 0.  1.
         -3    1    6    6    0  502  0.36734416960E+02  0.15591754084E+03  0.14185629862E+03  0.21396940526E+03  0.00000000000E+00 0.  1.
<mgrwt>
<rscale>  0 0.18844520E+04</rscale>
<asrwt>0</asrwt>
<pdfrwt beam="1">  1        1 0.19118381E+00 0.18844520E+04</pdfrwt>
<pdfrwt beam="2">  1       -1 0.10990877E+00 0.18844520E+04</pdfrwt>
<totfact> 0.71267430E+00</totfact>
</mgrwt>
</event>
<event>
12    1  0.1496989E-007  0.1625319E+04  0.7818608E-02  0.8805143E-01
         -1   -1    0    0    0  501 -0.00000000000E+00  0.00000000000E+00  0.90337194656E+03  0.90337194656E+03  0.00000000000E+00 0.  1.
          1   -1    0    0  501    0  0.00000000000E+00 -0.00000000000E+00 -0.73105630522E+03  0.73105630522E+03  0.00000000000E+00 0. -1.
         23    2    1    2    0    0  0.40233983568E+03  0.40538291428E+03  0.53684869495E+02  0.58081143464E+03  0.90814133413E+02 0.  0.
        254    2    1    2    0    0 -0.40233983568E+03 -0.40538291428E+03  0.11863077184E+03  0.10536168171E+04  0.87739528535E+03 0.  0.
        -24    2    4    4    0    0 -0.43497213280E+03  0.11553926592E+03  0.23153048837E+03  0.51351819266E+03  0.86859017188E+02 0.  0.
         24    2    4    4    0    0  0.32632297126E+02 -0.52092218021E+03 -0.11289971652E+03  0.54009862447E+03  0.80841780784E+02 0.  0.
         11    1    3    3    0    0  0.29660148182E+03  0.35055200479E+03  0.40591140296E+02  0.46098458516E+03  0.00000000000E+00 0.  1.
        -11    1    3    3    0    0  0.10573835386E+03  0.54830909489E+02  0.13093729199E+02  0.11982684948E+03  0.00000000000E+00 0. -1.
          4    1    6    6  502    0  0.19897632874E+02 -0.41745915937E+03 -0.56968624040E+02  0.42179792515E+03  0.00000000000E+00 0. -1.
          1    1    5    5  503    0 -0.28168289985E+03  0.67338429770E+02  0.10177618537E+03  0.30698226675E+03  0.00000000000E+00 0. -1.
         -2    1    5    5    0  503 -0.15328923295E+03  0.48200836153E+02  0.12975430300E+03  0.20653592591E+03  0.00000000000E+00 0.  1.
         -3    1    6    6    0  502  0.12734664251E+02 -0.10346302084E+03 -0.55931092482E+02  0.11830069933E+03  0.00000000000E+00 0.  1.
<mgrwt>
<rscale>  0 0.16253194E+04</rscale>
<asrwt>0</asrwt>
<pdfrwt beam="1">  1        1 0.11247020E+00 0.16253194E+04</pdfrwt>
<pdfrwt beam="2">  1       -1 0.13898030E+00 0.16253194E+04</pdfrwt>
<totfact> 0.10428601E+01</totfact>
</mgrwt>
</event>
<event>
12    1  0.1496989E-007  0.2010029E+04  0.7818608E-02  0.8601946E-01
          2   -1    0    0  501    0  0.00000000000E+00  0.00000000000E+00  0.82111018104E+03  0.82111018104E+03  0.00000000000E+00 0. -1.
         -2   -1    0    0    0  501 -0.00000000000E+00 -0.00000000000E+00 -0.12301083458E+04  0.12301083458E+04  0.00000000000E+00 0.  1.
         23    2    1    2    0    0  0.71963743806E+03 -0.33184459660E+03 -0.26663559788E+03  0.84104582888E+03  0.90910206702E+02 0.  0.
        254    2    1    2    0    0 -0.71963743806E+03  0.33184459660E+03 -0.14236256693E+03  0.12101726980E+04  0.90346664574E+03 0.  0.
        -24    2    4    4    0    0 -0.16542465523E+03  0.56276650853E+02  0.36065743572E+03  0.40871644303E+03  0.80268093739E+02 0.  0.
         24    2    4    4    0    0 -0.55421278283E+03  0.27556794574E+03 -0.50302000265E+03  0.80145625497E+03  0.78825783791E+02 0.  0.
         13    1    3    3    0    0  0.78813625208E+02 -0.69694891995E+02 -0.31132485148E+02  0.10971871818E+03  0.00000000000E+00 0. -1.
        -13    1    3    3    0    0  0.64082381285E+03 -0.26214970460E+03 -0.23550311273E+03  0.73132711070E+03  0.00000000000E+00 0.  1.
          2    1    6    6  502    0 -0.15588098566E+03  0.81492616692E+02 -0.19017514416E+03  0.25904924960E+03  0.00000000000E+00 0. -1.
          1    1    5    5  503    0 -0.13014462313E+03  0.33246185973E+02  0.18840173347E+03  0.23138311301E+03  0.00000000000E+00 0. -1.
         -2    1    5    5    0  503 -0.35280032096E+02  0.23030464879E+02  0.17225570225E+03  0.17733333002E+03  0.00000000000E+00 0.  1.
         -1    1    6    6    0  502 -0.39833179717E+03  0.19407532905E+03 -0.31284485849E+03  0.54240700537E+03  0.00000000000E+00 0.  1.
<mgrwt>
<rscale>  0 0.20100293E+04</rscale>
<asrwt>0</asrwt>
<pdfrwt beam="1">  1        2 0.12632464E+00 0.20100293E+04</pdfrwt>
<pdfrwt beam="2">  1       -2 0.18924744E+00 0.20100293E+04</pdfrwt>
<totfact> 0.48400719E+00</totfact>
</mgrwt>
</event>
<event>
12    1  0.1496989E-007  0.1582429E+04  0.7818608E-02  0.8831416E-01
         -2   -1    0    0    0  501 -0.00000000000E+00  0.00000000000E+00  0.33448488290E+03  0.33448488290E+03  0.00000000000E+00 0. -1.
          2   -1    0    0  501    0  0.00000000000E+00 -0.00000000000E+00 -0.18715947257E+04  0.18715947257E+04  0.00000000000E+00 0.  1.
         23    2    1    2    0    0  0.27967237403E+03 -0.31141953854E+03 -0.96770809656E+03  0.10582877993E+04  0.91188487838E+02 0.  0.
        254    2    1    2    0    0 -0.27967237403E+03  0.31141953854E+03 -0.56940174626E+03  0.11477918093E+04  0.90443845727E+03 0.  0.
        -24    2    4    4    0    0 -0.58430226225E+02 -0.52040207235E+02  0.22045336988E+03  0.24691079605E+03  0.79012520572E+02 0.  0.
         24    2    4    4    0    0 -0.22124214780E+03  0.36345974578E+03 -0.78985511614E+03  0.90088101321E+03  0.81635903341E+02 0.  0.
         13    1    3    3    0    0  0.63636939222E+02 -0.66407981843E+02 -0.13088946989E+03  0.15997416483E+03  0.00000000000E+00 0. -1.
        -13    1    3    3    0    0  0.21603543481E+03 -0.24501155670E+03 -0.83681862667E+03  0.89831363451E+03  0.00000000000E+00 0.  1.
          4    1    6    6  502    0 -0.20904403656E+03  0.28561933770E+03 -0.66255819800E+03  0.75117320308E+03  0.00000000000E+00 0. -1.
          3    1    5    5  503    0 -0.72494451842E+01 -0.10313617173E+00  0.13234260507E+03  0.13254105104E+03  0.00000000000E+00 0. -1.
         -4    1    5    5    0  503 -0.51180781041E+02 -0.51937071063E+02  0.88110764808E+02  0.11436974501E+03  0.00000000000E+00 0.  1.
         -3    1    6    6    0  502 -0.12198111247E+02  0.77840408077E+02 -0.12729691813E+03  0.14970781013E+03  0.00000000000E+00 0.  1.
<mgrwt>
<rscale>  0 0.15824287E+04</rscale>
<asrwt>0</asrwt>
<pdfrwt beam="1">  1        2 0.28793764E+00 0.15824287E+04</pdfrwt>
<pdfrwt beam="2">  1       -2 0.51459214E-01 0.15824287E+04</pdfrwt>
<totfact> 0.26975620E+01</totfact>
</mgrwt>
</event>
<event>
12    1  0.1496989E-007  0.1173620E+04  0.7818608E-02  0.9136265E-01
         -1   -1    0    0    0  501 -0.00000000000E+00  0.00000000000E+00  0.49981024908E+03  0.49981024908E+03  0.00000000000E+00 0.  1.
          1   -1    0    0  501    0  0.00000000000E+00 -0.00000000000E+00 -0.68895350088E+03  0.68895350088E+03  0.00000000000E+00 0. -1.
         23    2    1    2    0    0 -0.16824947694E+03 -0.78204981762E+02 -0.21409965240E+01  0.20277348088E+03  0.81783831026E+02 0.  0.
        254    2    1    2    0    0  0.16824947694E+03  0.78204981762E+02 -0.18700225528E+03  0.98599026909E+03  0.95014896811E+03 0.  0.
        -24    2    4    4    0    0 -0.34629567450E+03  0.11790860731E+03  0.10319009940E+03  0.38860635602E+03  0.80892332599E+02 0.  0.
         24    2    4    4    0    0  0.51454515144E+03 -0.39703625549E+02 -0.29019235467E+03  0.59738391307E+03  0.79516326185E+02 0.  0.
         11    1    3    3    0    0 -0.10566769401E+03 -0.45024719946E+02  0.38460674122E+02  0.12112848723E+03  0.00000000000E+00 0.  1.
        -11    1    3    3    0    0 -0.62581782930E+02 -0.33180261816E+02 -0.40601670646E+02  0.81644993650E+02  0.00000000000E+00 0. -1.
          4    1    6    6  502    0  0.50434178458E+03 -0.25944055734E+02 -0.28172255869E+03  0.57827444157E+03  0.00000000000E+00 0. -1.
          3    1    5    5  503    0 -0.23809026588E+03  0.69308945578E+02  0.10665568202E+03  0.26993728744E+03  0.00000000000E+00 0. -1.
         -4    1    5    5    0  503 -0.10820540862E+03  0.48599661733E+02 -0.34655826247E+01  0.11866906858E+03  0.00000000000E+00 0.  1.
         -3    1    6    6    0  502  0.10203366855E+02 -0.13759569816E+02 -0.84697959887E+01  0.19109471494E+02  0.00000000000E+00 0.  1.
<mgrwt>
<rscale>  0 0.11736201E+04</rscale>
<asrwt>0</asrwt>
<pdfrwt beam="1">  1        1 0.10599285E+00 0.11736201E+04</pdfrwt>
<pdfrwt beam="2">  1       -1 0.76893885E-01 0.11736201E+04</pdfrwt>
<totfact> 0.46974696E+01</totfact>
</mgrwt>
</event>
<event>
12    1  0.1496989E-007  0.1417365E+04  0.7818608E-02  0.8941344E-01
          2   -1    0    0  501    0  0.00000000000E+00  0.00000000000E+00  0.15164445750E+04  0.15164445750E+04  0.00000000000E+00 0. -1.
         -2   -1    0    0    0  501 -0.00000000000E+00 -0.00000000000E+00 -0.33118985802E+03  0.33118985802E+03  0.00000000000E+00 0.  1.
         23    2    1    2    0    0  0.21487483420E+03 -0.31209655507E+03  0.57378908069E+03  0.69363720223E+03  0.91231601663E+02 0.  0.
        254    2    1    2    0    0 -0.21487483420E+03  0.31209655507E+03  0.61146563626E+03  0.11539972308E+04  0.90235465877E+03 0.  0.
        -24    2    4    4    0    0  0.13655682964E+03 -0.25787927517E+03  0.22127744240E+03  0.37463376464E+03  0.78976343387E+02 0.  0.
         24    2    4    4    0    0 -0.35143166384E+03  0.56997583023E+03  0.39018819385E+03  0.77936346611E+03  0.82364581522E+02 0.  0.
         13    1    3    3    0    0  0.81362219612E+02 -0.50045965079E+02  0.13342512614E+03  0.16409349069E+03  0.00000000000E+00 0.  1.
        -13    1    3    3    0    0  0.13351261459E+03 -0.26205058999E+03  0.44036395454E+03  0.52954371154E+03  0.00000000000E+00 0. -1.
          4    1    6    6  502    0 -0.24963271307E+03  0.35516856175E+03  0.21756432865E+03  0.48558772203E+03  0.00000000000E+00 0. -1.
          1    1    5    5  503    0  0.20092475770E+02 -0.22195297193E+02  0.57707235799E+02  0.65011259515E+02  0.00000000000E+00 0. -1.
         -2    1    5    5    0  503  0.11646435387E+03 -0.23568397797E+03  0.16357020660E+03  0.30962250513E+03  0.00000000000E+00 0.  1.
         -3    1    6    6    0  502 -0.10179895077E+03  0.21480726848E+03  0.17262386520E+03  0.29377574408E+03  0.00000000000E+00 0.  1.
<mgrwt>
<rscale>  0 0.14173653E+04</rscale>
<asrwt>0</asrwt>
<pdfrwt beam="1">  1        2 0.23329916E+00 0.14173653E+04</pdfrwt>
<pdfrwt beam="2">  1       -2 0.50952287E-01 0.14173653E+04</pdfrwt>
<totfact> 0.43967044E+01</totfact>
</mgrwt>
</event>
<event>
12    1  0.1496989E-007  0.1871315E+04  0.7818608E-02  0.8669268E-01
          1   -1    0    0  501    0  0.00000000000E+00  0.00000000000E+00  0.14812803380E+04  0.14812803380E+04  0.00000000000E+00 0. -1.
         -1   -1    0    0    0  501 -0.00000000000E+00 -0.00000000000E+00 -0.59101261526E+03  0.59101261526E+03  0.00000000000E+00 0.  1.
         23    2    1    2    0    0 -0.39024657236E+03  0.21495512156E+03 -0.29445398602E+03  0.54186965233E+03  0.91768615068E+02 0.  0.
        254    2    1    2    0    0  0.39024657236E+03 -0.21495512156E+03  0.11847217088E+04  0.15304233010E+04  0.86030916614E+03 0.  0.
        -24    2    4    4    0    0  0.48642191975E+03 -0.41957191515E+03  0.11017674223E+04  0.12778490554E+04  0.79748851994E+02 0.  0.
         24    2    4    4    0    0 -0.96175347390E+02  0.20461679360E+03  0.82954286484E+02  0.25257424562E+03  0.76122311037E+02 0.  0.
         11    1    3    3    0    0 -0.42729073677E+02  0.61226547289E+02 -0.42195394798E+02  0.85760802074E+02  0.00000000000E+00 0. -1.
        -11    1    3    3    0    0 -0.34751749868E+03  0.15372857427E+03 -0.25225859122E+03  0.45610885026E+03  0.00000000000E+00 0.  1.
          4    1    6    6  502    0 -0.41399985522E+01 -0.63277836890E+01  0.67557654508E+01  0.10140059233E+02  0.00000000000E+00 0. -1.
          1    1    5    5  503    0  0.27427388799E+03 -0.27392988241E+03  0.71454009280E+03  0.81291530330E+03  0.00000000000E+00 0. -1.
         -2    1    5    5    0  503  0.21214803176E+03 -0.14564203274E+03  0.38722732951E+03  0.46493375206E+03  0.00000000000E+00 0.  1.
         -3    1    6    6    0  502 -0.92035348838E+02  0.21094457728E+03  0.76198521033E+02  0.24243418639E+03  0.00000000000E+00 0.  1.
<mgrwt>
<rscale>  0 0.18713154E+04</rscale>
<asrwt>0</asrwt>
<pdfrwt beam="1">  1        1 0.22788928E+00 0.18713154E+04</pdfrwt>
<pdfrwt beam="2">  1       -1 0.90925018E-01 0.18713154E+04</pdfrwt>
<totfact> 0.74653069E+00</totfact>
</mgrwt>
</event>
<event>
12    1  0.2288906E-007  0.1899316E+04  0.7818608E-02  0.8655197E-01
          1   -1    0    0  501    0  0.00000000000E+00  0.00000000000E+00  0.80520976963E+03  0.80520976963E+03  0.00000000000E+00 0. -1.
         -1   -1    0    0    0  501 -0.00000000000E+00 -0.00000000000E+00 -0.11200194639E+04  0.11200194639E+04  0.00000000000E+00 0.  1.
         23    2    1    2    0    0  0.22423447793E+03  0.15767085942E+03 -0.81154925637E+03  0.86104044544E+03  0.87391373555E+02 0.  0.
        254    2    1    2    0    0 -0.22423447793E+03 -0.15767085942E+03  0.49673956210E+03  0.10641887881E+04  0.90033681650E+03 0.  0.
        -24    2    4    4    0    0  0.14970674342E+03  0.22578259054E+03  0.43550335034E+03  0.51897315426E+03  0.79246952455E+02 0.  0.
         24    2    4    4    0    0 -0.37394122135E+03 -0.38345344996E+03  0.61236211759E+02  0.54521563383E+03  0.81496186611E+02 0.  0.
         11    1    3    3    0    0  0.25919363117E+01 -0.89496882543E+01 -0.43045714174E+02  0.44042576701E+02  0.00000000000E+00 0. -1.
        -11    1    3    3    0    0  0.22164254161E+03  0.16662054767E+03 -0.76850354220E+03  0.81699786874E+03  0.00000000000E+00 0.  1.
          2    1    6    6  502    0 -0.27437134797E+02 -0.11951945877E+02  0.18998865190E+02  0.35448586074E+02  0.00000000000E+00 0. -1.
          1    1    5    5  503    0  0.24027701605E+01 -0.52490675453E+01  0.23360630090E+02  0.24063354977E+02  0.00000000000E+00 0. -1.
         -2    1    5    5    0  503  0.14730397326E+03  0.23103165808E+03  0.41214272025E+03  0.49490979928E+03  0.00000000000E+00 0.  1.
         -3    1    6    6    0  502 -0.34650408655E+03 -0.37150150408E+03  0.42237346569E+02  0.50976704775E+03  0.00000000000E+00 0.  1.
<mgrwt>
<rscale>  0 0.18993163E+04</rscale>
<asrwt>0</asrwt>
<pdfrwt beam="1">  1        1 0.12387843E+00 0.18993163E+04</pdfrwt>
<pdfrwt beam="2">  1       -1 0.17231069E+00 0.18993163E+04</pdfrwt>
<totfact> 0.48444281E+00</totfact>
</mgrwt>
</event>
<event>
12    1  0.1566802E-007  0.3047380E+04  0.7818608E-02  0.8230329E-01
          2   -1    0    0  501    0  0.00000000000E+00  0.00000000000E+00  0.19232299304E+04  0.19232299304E+04  0.00000000000E+00 0. -1.
         -2   -1    0    0    0  501 -0.00000000000E+00 -0.00000000000E+00 -0.12071518803E+04  0.12071518803E+04  0.00000000000E+00 0.  1.
         23    2    1    2    0    0  0.11454788806E+04  0.26442675290E+03 -0.43226948200E+03  0.12558819250E+04  0.91318842336E+02 0.  0.
        254    2    1    2    0    0 -0.11454788806E+04 -0.26442675290E+03  0.11483475321E+04  0.18744998856E+04  0.90166756245E+03 0.  0.
        -24    2    4    4    0    0  0.14135389916E+03 -0.49753752867E+02  0.87044735944E+02  0.19088689867E+03  0.80029127786E+02 0.  0.
         24    2    4    4    0    0 -0.12868327798E+04 -0.21467300003E+03  0.10613027961E+04  0.16836129869E+04  0.78523657021E+02 0.  0.
         11    1    3    3    0    0  0.11543084268E+03  0.26874535356E+01 -0.57233926591E+02  0.12886901956E+03  0.00000000000E+00 0. -1.
        -11    1    3    3    0    0  0.10300480379E+04  0.26173929936E+03 -0.37503555541E+03  0.11270129055E+04  0.00000000000E+00 0.  1.
          4    1    6    6  502    0 -0.17532654510E+03 -0.34508177097E+01  0.13204918552E+03  0.21951832032E+03  0.00000000000E+00 0. -1.
          3    1    5    5  503    0  0.51642836160E+02 -0.60314097475E+02  0.36693956979E+02  0.87471248760E+02  0.00000000000E+00 0. -1.
         -4    1    5    5    0  503  0.89711063001E+02  0.10560344608E+02  0.50350778965E+02  0.10341564991E+03  0.00000000000E+00 0.  1.
         -3    1    6    6    0  502 -0.11115062347E+04 -0.21122218232E+03  0.92925361063E+03  0.14640946666E+04  0.00000000000E+00 0.  1.
<mgrwt>
<rscale>  0 0.30473796E+04</rscale>
<asrwt>0</asrwt>
<pdfrwt beam="1">  1        2 0.29588153E+00 0.30473796E+04</pdfrwt>
<pdfrwt beam="2">  1       -2 0.18571567E+00 0.30473796E+04</pdfrwt>
<totfact> 0.10414925E+00</totfact>
</mgrwt>
</event>
<event>
12    1  0.1496989E-007  0.1413472E+04  0.7818608E-02  0.8944124E-01
          2   -1    0    0  501    0  0.00000000000E+00  0.00000000000E+00  0.23622595448E+04  0.23622595448E+04  0.00000000000E+00 0. -1.
         -2   -1    0    0    0  501 -0.00000000000E+00 -0.00000000000E+00 -0.21143982424E+03  0.21143982424E+03  0.00000000000E+00 0.  1.
         23    2    1    2    0    0 -0.17616933561E+03 -0.34549998556E+03  0.90728477973E+03  0.99069727606E+03  0.88935630843E+02 0.  0.
        254    2    1    2    0    0  0.17616933561E+03  0.34549998556E+03  0.12435349408E+04  0.15830020929E+04  0.89950575455E+03 0.  0.
        -24    2    4    4    0    0  0.35358250898E+03 -0.18222459521E+03  0.64470647023E+03  0.76160318240E+03  0.78527580703E+02 0.  0.
         24    2    4    4    0    0 -0.17741317337E+03  0.52772458077E+03  0.59882847057E+03  0.82139891055E+03  0.78306869756E+02 0.  0.
         13    1    3    3    0    0 -0.22733543614E+02 -0.69751014557E+02  0.26667265660E+03  0.27657968800E+03  0.00000000000E+00 0. -1.
        -13    1    3    3    0    0 -0.15343579199E+03 -0.27574897100E+03  0.64061212313E+03  0.71411758806E+03  0.00000000000E+00 0.  1.
          4    1    6    6  502    0 -0.11281715731E+03  0.37311755580E+03  0.46628464247E+03  0.60775471140E+03  0.00000000000E+00 0. -1.
          1    1    5    5  503    0  0.33737890303E+03 -0.18961986618E+03  0.60667342532E+03  0.71960604699E+03  0.00000000000E+00 0. -1.
         -2    1    5    5    0  503  0.16203605945E+02  0.73952709695E+01  0.38033044906E+02  0.41997135416E+02  0.00000000000E+00 0.  1.
         -3    1    6    6    0  502 -0.64596016065E+02  0.15460702497E+03  0.13254382810E+03  0.21364419915E+03  0.00000000000E+00 0.  1.
<mgrwt>
<rscale>  0 0.14134720E+04</rscale>
<asrwt>0</asrwt>
<pdfrwt beam="1">  1        2 0.36342453E+00 0.14134720E+04</pdfrwt>
<pdfrwt beam="2">  1       -2 0.32529205E-01 0.14134720E+04</pdfrwt>
<totfact> 0.35868657E+01</totfact>
</mgrwt>
</event>
<event>
12    1  0.1496989E-007  0.2354748E+04  0.7818608E-02  0.8456642E-01
          2   -1    0    0  501    0  0.00000000000E+00  0.00000000000E+00  0.17300400447E+04  0.17300400447E+04  0.00000000000E+00 0. -1.
         -2   -1    0    0    0  501 -0.00000000000E+00 -0.00000000000E+00 -0.80125837544E+03  0.80125837544E+03  0.00000000000E+00 0.  1.
         23    2    1    2    0    0 -0.43692902087E+03  0.56575488085E+03  0.11328159173E+04  0.13418358071E+04  0.79157287759E+02 0.  0.
        254    2    1    2    0    0  0.43692902087E+03 -0.56575488085E+03 -0.20403424806E+03  0.11894626130E+04  0.92855036423E+03 0.  0.
        -24    2    4    4    0    0 -0.26570269645E+03 -0.18959619210E+02 -0.48506836389E+02  0.28214214898E+03  0.79334034259E+02 0.  0.
         24    2    4    4    0    0  0.70263171732E+03 -0.54679526164E+03 -0.15552741167E+03  0.90732046405E+03  0.79782581858E+02 0.  0.
         13    1    3    3    0    0 -0.13836278950E+03  0.15742473607E+03  0.27177319515E+03  0.34320180455E+03  0.00000000000E+00 0.  1.
        -13    1    3    3    0    0 -0.29856623137E+03  0.40833014478E+03  0.86104272216E+03  0.99863400254E+03  0.00000000000E+00 0. -1.
          4    1    6    6  502    0 -0.47926344281E+00 -0.53205370517E+01  0.25273633706E+01  0.59097693333E+01  0.00000000000E+00 0. -1.
          3    1    5    5  503    0 -0.19741256389E+02 -0.64051998620E+01 -0.28214785024E+02  0.35025960130E+02  0.00000000000E+00 0. -1.
         -4    1    5    5    0  503 -0.24596144006E+03 -0.12554419348E+02 -0.20292051366E+02  0.24711618885E+03  0.00000000000E+00 0.  1.
         -3    1    6    6    0  502  0.70311098076E+03 -0.54147472459E+03 -0.15805477504E+03  0.90141069472E+03  0.00000000000E+00 0.  1.
<mgrwt>
<rscale>  0 0.23547476E+04</rscale>
<asrwt>0</asrwt>
<pdfrwt beam="1">  1        2 0.26616001E+00 0.23547476E+04</pdfrwt>
<pdfrwt beam="2">  1       -2 0.12327052E+00 0.23547476E+04</pdfrwt>
<totfact> 0.42295517E+00</totfact>
</mgrwt>
</event>
<event>
12    1  0.1496989E-007  0.1734479E+04  0.7818608E-02  0.8741940E-01
         -2   -1    0    0    0  501 -0.00000000000E+00  0.00000000000E+00  0.44616909929E+03  0.44616909929E+03  0.00000000000E+00 0.  1.
          2   -1    0    0  501    0  0.00000000000E+00 -0.00000000000E+00 -0.16856932599E+04  0.16856932599E+04  0.00000000000E+00 0. -1.
         23    2    1    2    0    0 -0.31950632923E+03  0.76783759439E+02  0.20164534804E+03  0.39651776509E+03  0.92657711569E+02 0.  0.
        254    2    1    2    0    0  0.31950632923E+03 -0.76783759439E+02 -0.14411695086E+04  0.17353445941E+04  0.90910465153E+03 0.  0.
        -24    2    4    4    0    0 -0.26261045228E+03 -0.14791949396E+03 -0.23913132566E+03  0.39493271301E+03  0.89127047266E+02 0.  0.
         24    2    4    4    0    0  0.58211678152E+03  0.71135734518E+02 -0.12020381830E+04  0.13404118811E+04  0.88814286674E+02 0.  0.
         13    1    3    3    0    0  0.69010373204E+00  0.58093251349E+01 -0.59703253393E+01  0.83587849799E+01  0.00000000000E+00 0. -1.
        -13    1    3    3    0    0 -0.32019643297E+03  0.70974434304E+02  0.20761567338E+03  0.38815898011E+03  0.00000000000E+00 0.  1.
          4    1    6    6  502    0  0.23794281225E+03  0.68858015548E+02 -0.46061154378E+03  0.52299254533E+03  0.00000000000E+00 0. -1.
          1    1    5    5  503    0 -0.16301305970E+02  0.92549777557E+01 -0.30894655715E+02  0.36136781004E+02  0.00000000000E+00 0. -1.
         -2    1    5    5    0  503 -0.24630914631E+03 -0.15717447171E+03 -0.20823666995E+03  0.35879593201E+03  0.00000000000E+00 0.  1.
         -3    1    6    6    0  502  0.34417396927E+03  0.22777189704E+01 -0.74142663919E+03  0.81741933573E+03  0.00000000000E+00 0.  1.
<mgrwt>
<rscale>  0 0.17344789E+04</rscale>
<asrwt>0</asrwt>
<pdfrwt beam="1">  1        2 0.25933743E+00 0.17344789E+04</pdfrwt>
<pdfrwt beam="2">  1       -2 0.68641400E-01 0.17344789E+04</pdfrwt>
<totfact> 0.18388435E+01</totfact>
</mgrwt>
</event>
<event>
12    1  0.1496989E-007  0.1445802E+04  0.7818608E-02  0.8921316E-01
         -2   -1    0    0    0  501 -0.00000000000E+00  0.00000000000E+00  0.12453917904E+04  0.12453917904E+04  0.00000000000E+00 0.  1.
          2   -1    0    0  501    0  0.00000000000E+00 -0.00000000000E+00 -0.41961581758E+03  0.41961581758E+03  0.00000000000E+00 0. -1.
         23    2    1    2    0    0 -0.26737318774E+03  0.34539439067E+03  0.26616092604E+03  0.51984778184E+03  0.92813636392E+02 0.  0.
        254    2    1    2    0    0  0.26737318774E+03 -0.34539439067E+03  0.55961504679E+03  0.11451598262E+04  0.89857460470E+03 0.  0.
        -24    2    4    4    0    0  0.15694017800E+03  0.13589186230E+03  0.60331341123E+03  0.64304779281E+03  0.80165915222E+02 0.  0.
         24    2    4    4    0    0  0.11043300974E+03 -0.48128625297E+03 -0.43698364441E+02  0.50211203334E+03  0.79843847837E+02 0.  0.
         11    1    3    3    0    0 -0.89272543767E+02  0.11417938128E+03  0.39240044996E+02  0.15015425173E+03  0.00000000000E+00 0.  1.
        -11    1    3    3    0    0 -0.17810064397E+03  0.23121500939E+03  0.22692088105E+03  0.36969353011E+03  0.00000000000E+00 0. -1.
          4    1    6    6  502    0  0.29382859575E+02 -0.22274248962E+03  0.13921037475E+02  0.22510300842E+03  0.00000000000E+00 0. -1.
          1    1    5    5  503    0  0.17518102748E+02  0.59185712910E+02  0.13511544827E+03  0.14854634596E+03  0.00000000000E+00 0. -1.
         -2    1    5    5    0  503  0.13942207525E+03  0.76706149387E+02  0.46819796296E+03  0.49450144686E+03  0.00000000000E+00 0.  1.
         -3    1    6    6    0  502  0.81050150162E+02 -0.25854376335E+03 -0.57619401916E+02  0.27700902492E+03  0.00000000000E+00 0.  1.
<mgrwt>
<rscale>  0 0.14458023E+04</rscale>
<asrwt>0</asrwt>
<pdfrwt beam="1">  1        2 0.64556280E-01 0.14458023E+04</pdfrwt>
<pdfrwt beam="2">  1       -2 0.19159874E+00 0.14458023E+04</pdfrwt>
<totfact> 0.11037228E+01</totfact>
</mgrwt>
</event>
<event>
12    1  0.1496989E-007  0.1940704E+04  0.7818608E-02  0.8634856E-01
          2   -1    0    0  501    0  0.00000000000E+00  0.00000000000E+00  0.35655218756E+03  0.35655218756E+03  0.00000000000E+00 0. -1.
         -2   -1    0    0    0  501 -0.00000000000E+00 -0.00000000000E+00 -0.26408003343E+04  0.26408003343E+04  0.00000000000E+00 0.  1.
         23    2    1    2    0    0 -0.32042670506E+03 -0.10718575114E+03 -0.19540641903E+04  0.19851934170E+04  0.91999915800E+02 0.  0.
        254    2    1    2    0    0  0.32042670506E+03  0.10718575114E+03 -0.33018395641E+03  0.10121591048E+04  0.89514387104E+03 0.  0.
        -24    2    4    4    0    0  0.57770890818E+03 -0.12909253344E+03 -0.22596487189E+03  0.63924215240E+03  0.84604617406E+02 0.  0.
         24    2    4    4    0    0 -0.25728220312E+03  0.23627828458E+03 -0.10421908452E+03  0.37291695243E+03  0.78637624735E+02 0.  0.
         13    1    3    3    0    0 -0.28135788216E+03 -0.12161110777E+03 -0.16421727784E+04  0.16705337331E+04  0.00000000000E+00 0.  1.
        -13    1    3    3    0    0 -0.39068822893E+02  0.14425356636E+02 -0.31189141191E+03  0.31465968388E+03  0.00000000000E+00 0. -1.
          2    1    6    6  502    0 -0.14867772710E+03  0.10426197553E+03 -0.86228538164E+02  0.20102484143E+03  0.00000000000E+00 0. -1.
          3    1    5    5  503    0  0.52225657282E+03 -0.11077201664E+03 -0.17527350294E+03  0.56191028498E+03  0.00000000000E+00 0. -1.
         -4    1    5    5    0  503  0.55452335359E+02 -0.18320516799E+02 -0.50691368950E+02  0.77331867420E+02  0.00000000000E+00 0.  1.
         -1    1    6    6    0  502 -0.10860447603E+03  0.13201630905E+03 -0.17990546357E+02  0.17189211101E+03  0.00000000000E+00 0.  1.
<mgrwt>
<rscale>  0 0.19407041E+04</rscale>
<asrwt>0</asrwt>
<pdfrwt beam="1">  1        2 0.54854181E-01 0.19407041E+04</pdfrwt>
<pdfrwt beam="2">  1       -2 0.40627699E+00 0.19407041E+04</pdfrwt>
<totfact> 0.57236882E-01</totfact>
</mgrwt>
</event>
<event>
12    1  0.1496989E-007  0.2306781E+04  0.7818608E-02  0.8475252E-01
         -2   -1    0    0    0  501 -0.00000000000E+00  0.00000000000E+00  0.37552785243E+03  0.37552785243E+03  0.00000000000E+00 0.  1.
          2   -1    0    0  501    0  0.00000000000E+00 -0.00000000000E+00 -0.35425045026E+04  0.35425045026E+04  0.00000000000E+00 0. -1.
         23    2    1    2    0    0  0.12622717339E+03 -0.68721964899E+03 -0.21437347048E+03  0.73986904419E+03  0.11509158284E+03 0.  0.
        254    2    1    2    0    0 -0.12622717339E+03  0.68721964899E+03 -0.29526031797E+04  0.31781633109E+04  0.94586063901E+03 0.  0.
        -24    2    4    4    0    0 -0.23148459640E+03  0.77749799233E+03 -0.14214564799E+04  0.16385652802E+04  0.79179585962E+02 0.  0.
         24    2    4    4    0    0  0.10525742301E+03 -0.90278343332E+02 -0.15311466998E+04  0.15395980307E+04  0.81991312099E+02 0.  0.
         11    1    3    3    0    0  0.75586808879E+02 -0.26775818374E+03 -0.33347412366E+02  0.28021395495E+03  0.00000000000E+00 0.  1.
        -11    1    3    3    0    0  0.50640364511E+02 -0.41946146525E+03 -0.18102605811E+03  0.45965508924E+03  0.00000000000E+00 0. -1.
          2    1    6    6  502    0  0.47380856498E+01  0.96731099159E+01 -0.32043403413E+03  0.32061501640E+03  0.00000000000E+00 0. -1.
          3    1    5    5  503    0 -0.85131095544E+02  0.17200062747E+03 -0.35159882465E+03  0.40056616529E+03  0.00000000000E+00 0. -1.
         -4    1    5    5    0  503 -0.14635350085E+03  0.60549736486E+03 -0.10698576552E+04  0.12379991149E+04  0.00000000000E+00 0.  1.
         -1    1    6    6    0  502  0.10051933736E+03 -0.99951453248E+02 -0.12107126657E+04  0.12189830143E+04  0.00000000000E+00 0.  1.
<mgrwt>
<rscale>  0 0.23067805E+04</rscale>
<asrwt>0</asrwt>
<pdfrwt beam="1">  1        2 0.54500069E+00 0.23067805E+04</pdfrwt>
<pdfrwt beam="2">  1       -2 0.57773516E-01 0.23067805E+04</pdfrwt>
<totfact> 0.19341108E+00</totfact>
</mgrwt>
</event>
<event>
12    1  0.1496989E-007  0.1205126E+04  0.7818608E-02  0.9108382E-01
         -2   -1    0    0    0  501 -0.00000000000E+00  0.00000000000E+00  0.30917875976E+03  0.30917875976E+03  0.00000000000E+00 0.  1.
          2   -1    0    0  501    0  0.00000000000E+00 -0.00000000000E+00 -0.11743435484E+04  0.11743435484E+04  0.00000000000E+00 0. -1.
         23    2    1    2    0    0 -0.23140741631E+03 -0.88088478002E+02 -0.24237689950E+03  0.35816920100E+03  0.90717378990E+02 0.  0.
        254    2    1    2    0    0  0.23140741631E+03  0.88088478002E+02 -0.62278788916E+03  0.11253531072E+04  0.90401653120E+03 0.  0.
        -24    2    4    4    0    0  0.87147983501E+02 -0.24101302381E+03  0.12168291408E+03  0.29479077278E+03  0.80080081572E+02 0.  0.
         24    2    4    4    0    0  0.14425943281E+03  0.32910150182E+03 -0.74447080324E+03  0.83056233440E+03  0.80488707239E+02 0.  0.
         11    1    3    3    0    0 -0.31906234539E+02 -0.35461066276E+02 -0.12570808761E+02  0.49330723255E+02  0.00000000000E+00 0.  1.
        -11    1    3    3    0    0 -0.19950118177E+03 -0.52627411725E+02 -0.22980609074E+03  0.30883847774E+03  0.00000000000E+00 0. -1.
          2    1    6    6  502    0  0.55459706639E+02  0.99492280003E+02 -0.32255290357E+03  0.34207436098E+03  0.00000000000E+00 0. -1.
          3    1    5    5  503    0  0.74292783110E+02 -0.24418776464E+03  0.11481444737E+03  0.27987397047E+03  0.00000000000E+00 0. -1.
         -4    1    5    5    0  503  0.12855200391E+02  0.31747408255E+01  0.68684667074E+01  0.14916802315E+02  0.00000000000E+00 0.  1.
         -1    1    6    6    0  502  0.88799726172E+02  0.22960922181E+03 -0.42191789967E+03  0.48848797341E+03  0.00000000000E+00 0.  1.
<mgrwt>
<rscale>  0 0.12051259E+04</rscale>
<asrwt>0</asrwt>
<pdfrwt beam="1">  1        2 0.18066824E+00 0.12051259E+04</pdfrwt>
<pdfrwt beam="2">  1       -2 0.47565964E-01 0.12051259E+04</pdfrwt>
<totfact> 0.81053274E+01</totfact>
</mgrwt>
</event>
<event>
12    1  0.1496989E-007  0.5066738E+04  0.7818608E-02  0.7818294E-01
         -1   -1    0    0    0  501 -0.00000000000E+00  0.00000000000E+00  0.30482036010E+04  0.30482036010E+04  0.00000000000E+00 0.  1.
          1   -1    0    0  501    0  0.00000000000E+00 -0.00000000000E+00 -0.21054884519E+04  0.21054884519E+04  0.00000000000E+00 0. -1.
         23    2    1    2    0    0  0.73241393316E+01 -0.16195869352E+04  0.23289816745E+04  0.28382241158E+04  0.90802025707E+02 0.  0.
        254    2    1    2    0    0 -0.73241393316E+01  0.16195869352E+04 -0.13862665254E+04  0.23154679371E+04  0.90362680615E+03 0.  0.
        -24    2    4    4    0    0 -0.15219213214E+03  0.54814962149E+03 -0.10204408311E+04  0.11713239062E+04  0.84081810965E+02 0.  0.
         24    2    4    4    0    0  0.14486799281E+03  0.10714373137E+04 -0.36582569437E+03  0.11441440309E+04  0.79198941698E+02 0.  0.
         13    1    3    3    0    0  0.35895825193E+01 -0.52817504220E+03  0.83526264939E+03  0.98825373957E+03  0.00000000000E+00 0. -1.
        -13    1    3    3    0    0  0.37345568123E+01 -0.10914118929E+04  0.14937190251E+04  0.18499703762E+04  0.00000000000E+00 0.  1.
          2    1    6    6  502    0  0.12237794569E+03  0.95645032402E+03 -0.30044417739E+03  0.10099704390E+04  0.00000000000E+00 0. -1.
          3    1    5    5  503    0 -0.11961524150E+03  0.48964042433E+03 -0.85012830996E+03  0.98831861995E+03  0.00000000000E+00 0. -1.
         -4    1    5    5    0  503 -0.32576890646E+02  0.58509197160E+02 -0.17031252111E+03  0.18300528627E+03  0.00000000000E+00 0.  1.
         -1    1    6    6    0  502  0.22490047118E+02  0.11498698964E+03 -0.65381516985E+02  0.13417359192E+03  0.00000000000E+00 0.  1.
<mgrwt>
<rscale>  0 0.50667376E+04</rscale>
<asrwt>0</asrwt>
<pdfrwt beam="1">  1        1 0.32392130E+00 0.50667376E+04</pdfrwt>
<pdfrwt beam="2">  1       -1 0.46895440E+00 0.50667376E+04</pdfrwt>
<totfact> 0.43687631E-03</totfact>
</mgrwt>
</event>
<event>
12    1  0.1496989E-007  0.2251349E+04  0.7818608E-02  0.8497354E-01
          2   -1    0    0  501    0  0.00000000000E+00  0.00000000000E+00  0.13647689861E+04  0.13647689861E+04  0.00000000000E+00 0. -1.
         -2   -1    0    0    0  501 -0.00000000000E+00 -0.00000000000E+00 -0.92846707538E+03  0.92846707538E+03  0.00000000000E+00 0.  1.
         23    2    1    2    0    0  0.88869595730E+02  0.49464154945E+02 -0.77909950260E+03  0.79080781226E+03  0.89646267720E+02 0.  0.
        254    2    1    2    0    0 -0.88869595730E+02 -0.49464154945E+02  0.12154014134E+04  0.15024282493E+04  0.87735143525E+03 0.  0.
        -24    2    4    4    0    0  0.10232305984E+03 -0.35509894159E+03  0.10130428824E+04  0.10812834520E+04  0.79704172965E+02 0.  0.
         24    2    4    4    0    0 -0.19119265557E+03  0.30563478664E+03  0.20235853097E+03  0.42114479723E+03  0.80291411933E+02 0.  0.
         11    1    3    3    0    0  0.63536195005E+02 -0.13709217269E+02 -0.45668441213E+03  0.46128672536E+03  0.00000000000E+00 0. -1.
        -11    1    3    3    0    0  0.25333400725E+02  0.63173372215E+02 -0.32241509047E+03  0.32952108690E+03  0.00000000000E+00 0.  1.
          4    1    6    6  502    0 -0.10726340014E+03  0.23953100190E+03  0.14713001509E+03  0.30087834621E+03  0.00000000000E+00 0. -1.
          1    1    5    5  503    0  0.47002412275E+01 -0.10621810271E+03  0.21902979696E+03  0.24347161963E+03  0.00000000000E+00 0. -1.
         -2    1    5    5    0  503  0.97622818615E+02 -0.24888083888E+03  0.79401308542E+03  0.83781183239E+03  0.00000000000E+00 0.  1.
         -3    1    6    6    0  502 -0.83929255432E+02  0.66103784747E+02  0.55228515884E+02  0.12026645102E+03  0.00000000000E+00 0.  1.
<mgrwt>
<rscale>  0 0.22513490E+04</rscale>
<asrwt>0</asrwt>
<pdfrwt beam="1">  1        2 0.20996446E+00 0.22513490E+04</pdfrwt>
<pdfrwt beam="2">  1       -2 0.14284109E+00 0.22513490E+04</pdfrwt>
<totfact> 0.47041403E+00</totfact>
</mgrwt>
</event>
<event>
12    1  0.1496989E-007  0.1230419E+04  0.7818608E-02  0.9086639E-01
          2   -1    0    0  501    0  0.00000000000E+00  0.00000000000E+00  0.72994808616E+03  0.72994808616E+03  0.00000000000E+00 0. -1.
         -2   -1    0    0    0  501 -0.00000000000E+00 -0.00000000000E+00 -0.51850667949E+03  0.51850667949E+03  0.00000000000E+00 0.  1.
         23    2    1    2    0    0  0.65294626887E+02  0.58355033697E+02  0.31513413989E+03  0.33929874662E+03  0.90251953288E+02 0.  0.
        254    2    1    2    0    0 -0.65294626887E+02 -0.58355033697E+02 -0.10369273322E+03  0.90915601903E+03  0.89896817839E+03 0.  0.
        -24    2    4    4    0    0 -0.19453776629E+03  0.29447686295E+03 -0.30667999781E+03  0.47459201202E+03  0.81384221371E+02 0.  0.
         24    2    4    4    0    0  0.12924313940E+03 -0.35283189665E+03  0.20298726460E+03  0.43456400701E+03  0.80298880589E+02 0.  0.
         11    1    3    3    0    0  0.59132378241E+02  0.79717632839E+02  0.21616726900E+03  0.23786514526E+03  0.00000000000E+00 0. -1.
        -11    1    3    3    0    0  0.61622486463E+01 -0.21362599142E+02  0.98966870889E+02  0.10143360136E+03  0.00000000000E+00 0.  1.
          2    1    6    6  502    0  0.26434810325E+02 -0.42030869630E+02  0.58504188769E+02  0.76734172976E+02  0.00000000000E+00 0. -1.
          3    1    5    5  503    0  0.33391086470E+00  0.25128671860E+02 -0.49103598072E+01  0.25606118007E+02  0.00000000000E+00 0. -1.
         -4    1    5    5    0  503 -0.19487167715E+03  0.26934819109E+03 -0.30176963801E+03  0.44898589401E+03  0.00000000000E+00 0.  1.
         -1    1    6    6    0  502  0.10280832908E+03 -0.31080102702E+03  0.14448307583E+03  0.35782983403E+03  0.00000000000E+00 0.  1.
<mgrwt>
<rscale>  0 0.12304194E+04</rscale>
<asrwt>0</asrwt>
<pdfrwt beam="1">  1        2 0.11229971E+00 0.12304194E+04</pdfrwt>
<pdfrwt beam="2">  1       -2 0.79770258E-01 0.12304194E+04</pdfrwt>
<totfact> 0.53237197E+01</totfact>
</mgrwt>
</event>
<event>
12    1  0.1496989E-007  0.1547675E+04  0.7818608E-02  0.8853354E-01
         -2   -1    0    0    0  501 -0.00000000000E+00  0.00000000000E+00  0.22136893514E+03  0.22136893514E+03  0.00000000000E+00 0.  1.
          2   -1    0    0  501    0  0.00000000000E+00 -0.00000000000E+00 -0.27050956721E+04  0.27050956721E+04  0.00000000000E+00 0. -1.
         23    2    1    2    0    0 -0.21976943918E+03 -0.44842158334E+03 -0.67676536710E+03  0.84598837875E+03  0.91128766438E+02 0.  0.
        254    2    1    2    0    0  0.21976943918E+03  0.44842158334E+03 -0.18069613699E+04  0.20804762285E+04  0.90215931094E+03 0.  0.
        -24    2    4    4    0    0 -0.18008859815E+03  0.31107647908E+03 -0.15184354667E+04  0.15623556792E+04  0.78157039305E+02 0.  0.
         24    2    4    4    0    0  0.39985803734E+03  0.13734510426E+03 -0.28852590315E+03  0.51812054926E+03  0.80321722445E+02 0.  0.
         13    1    3    3    0    0 -0.85841962814E+02 -0.27755889955E+03 -0.38662069575E+03  0.48361487537E+03  0.00000000000E+00 0.  1.
        -13    1    3    3    0    0 -0.13392747637E+03 -0.17086268379E+03 -0.29014467135E+03  0.36237350338E+03  0.00000000000E+00 0. -1.
          4    1    6    6  502    0  0.23568233840E+02  0.60855996524E+01  0.27505427564E+01  0.24496155921E+02  0.00000000000E+00 0. -1.
          1    1    5    5  503    0 -0.19952468354E+02  0.94432206398E+02 -0.33383767935E+03  0.34750991173E+03  0.00000000000E+00 0. -1.
         -2    1    5    5    0  503 -0.16013612980E+03  0.21664427268E+03 -0.11845977874E+04  0.12148457675E+04  0.00000000000E+00 0.  1.
         -3    1    6    6    0  502  0.37628980350E+03  0.13125950460E+03 -0.29127644590E+03  0.49362439334E+03  0.00000000000E+00 0.  1.
<mgrwt>
<rscale>  0 0.15476746E+04</rscale>
<asrwt>0</asrwt>
<pdfrwt beam="1">  1        2 0.41616856E+00 0.15476746E+04</pdfrwt>
<pdfrwt beam="2">  1       -2 0.34056760E-01 0.15476746E+04</pdfrwt>
<totfact> 0.20571917E+01</totfact>
</mgrwt>
</event>
<event>
12    1  0.1496989E-007  0.1480895E+04  0.7818608E-02  0.8897258E-01
          1   -1    0    0  501    0  0.00000000000E+00  0.00000000000E+00  0.69053139148E+03  0.69053139148E+03  0.00000000000E+00 0. -1.
         -1   -1    0    0    0  501 -0.00000000000E+00 -0.00000000000E+00 -0.79397232832E+03  0.79397232832E+03  0.00000000000E+00 0.  1.
         23    2    1    2    0    0  0.39529430218E+02 -0.15043349573E+02 -0.48659551805E+03  0.50323156283E+03  0.12115250481E+03 0.  0.
        254    2    1    2    0    0 -0.39529430218E+02  0.15043349573E+02  0.38315458120E+03  0.98127215697E+03  0.90238502577E+03 0.  0.
        -24    2    4    4    0    0 -0.30790843135E+03  0.23865532969E+03 -0.69970576625E+02  0.40370950707E+03  0.79507961977E+02 0.  0.
         24    2    4    4    0    0  0.26837900114E+03 -0.22361198012E+03  0.45312515783E+03  0.57756264990E+03  0.78908808121E+02 0.  0.
         13    1    3    3    0    0  0.97638212211E+01  0.50465779982E+02 -0.27427082356E+03  0.27904589553E+03  0.00000000000E+00 0. -1.
        -13    1    3    3    0    0  0.29765608996E+02 -0.65509129555E+02 -0.21232469449E+03  0.22418566730E+03  0.00000000000E+00 0.  1.
          2    1    6    6  502    0  0.59399367237E+02 -0.91215785381E+02  0.11206926807E+03  0.15623099941E+03  0.00000000000E+00 0. -1.
          3    1    5    5  503    0  0.15938174070E+01  0.16602723467E+02 -0.26804257324E+01  0.16893056638E+02  0.00000000000E+00 0. -1.
         -4    1    5    5    0  503 -0.30950224876E+03  0.22205260623E+03 -0.67290150892E+02  0.38681645043E+03  0.00000000000E+00 0.  1.
         -1    1    6    6    0  502  0.20897963390E+03 -0.13239619474E+03  0.34105588976E+03  0.42133165049E+03  0.00000000000E+00 0.  1.
<mgrwt>
<rscale>  0 0.14808954E+04</rscale>
<asrwt>0</asrwt>
<pdfrwt beam="1">  1        1 0.10623560E+00 0.14808954E+04</pdfrwt>
<pdfrwt beam="2">  1       -1 0.12214959E+00 0.14808954E+04</pdfrwt>
<totfact> 0.15973826E+01</totfact>
</mgrwt>
</event>
<event>
12    1  0.1496989E-007  0.2714010E+04  0.7818608E-02  0.8330473E-01
          1   -1    0    0  501    0  0.00000000000E+00  0.00000000000E+00  0.12562987168E+04  0.12562987168E+04  0.00000000000E+00 0. -1.
         -1   -1    0    0    0  501 -0.00000000000E+00 -0.00000000000E+00 -0.14657843896E+04  0.14657843896E+04  0.00000000000E+00 0.  1.
         23    2    1    2    0    0  0.67181757525E+03  0.28218656650E+03 -0.10543193025E+04  0.12850392923E+04  0.93641221755E+02 0.  0.
        254    2    1    2    0    0 -0.67181757525E+03 -0.28218656650E+03  0.84483362972E+03  0.14370438141E+04  0.90574993743E+03 0.  0.
        -24    2    4    4    0    0 -0.75006738518E+03  0.83974751681E+02  0.43115765093E+03  0.87314382014E+03  0.82646049240E+02 0.  0.
         24    2    4    4    0    0  0.78249809932E+02 -0.36616131818E+03  0.41367597879E+03  0.56389999401E+03  0.81598064498E+02 0.  0.
         13    1    3    3    0    0  0.44495649910E+03  0.15314028956E+03 -0.73341555518E+03  0.87139922594E+03  0.00000000000E+00 0.  1.
        -13    1    3    3    0    0  0.22686107615E+03  0.12904627694E+03 -0.32090374736E+03  0.41364006640E+03  0.00000000000E+00 0. -1.
          2    1    6    6  502    0  0.65257586700E+01 -0.20771926583E+03  0.24968470555E+03  0.32485740119E+03  0.00000000000E+00 0. -1.
          1    1    5    5  503    0 -0.17058408265E+03  0.49977141298E+02  0.12066573229E+03  0.21484148308E+03  0.00000000000E+00 0. -1.
         -2    1    5    5    0  503 -0.57948330253E+03  0.33997610382E+02  0.31049191864E+03  0.65830233705E+03  0.00000000000E+00 0.  1.
         -1    1    6    6    0  502  0.71724051262E+02 -0.15844205235E+03  0.16399127324E+03  0.23904259282E+03  0.00000000000E+00 0.  1.
<mgrwt>
<rscale>  0 0.27140104E+04</rscale>
<asrwt>0</asrwt>
<pdfrwt beam="1">  1        1 0.19327673E+00 0.27140104E+04</pdfrwt>
<pdfrwt beam="2">  1       -1 0.22550529E+00 0.27140104E+04</pdfrwt>
<totfact> 0.85751143E-01</totfact>
</mgrwt>
</event>
<event>
12    1  0.1496989E-007  0.2577878E+04  0.7818608E-02  0.8375755E-01
         -1   -1    0    0    0  501 -0.00000000000E+00  0.00000000000E+00  0.14977924727E+04  0.14977924727E+04  0.00000000000E+00 0.  1.
          1   -1    0    0  501    0  0.00000000000E+00 -0.00000000000E+00 -0.11092079435E+04  0.11092079435E+04  0.00000000000E+00 0. -1.
         23    2    1    2    0    0  0.10690692520E+04  0.98177436281E+02  0.52209496900E+03  0.11970754576E+04  0.88648857827E+02 0.  0.
        254    2    1    2    0    0 -0.10690692520E+04 -0.98177436281E+02 -0.13351043984E+03  0.14099249586E+04  0.90416562464E+03 0.  0.
        -24    2    4    4    0    0 -0.11457531606E+04  0.11128512018E+03 -0.41283566052E+02  0.11547207879E+04  0.80876956382E+02 0.  0.
         24    2    4    4    0    0  0.76683908589E+02 -0.20946255647E+03 -0.92226873784E+02  0.25520417076E+03  0.82875739074E+02 0.  0.
         11    1    3    3    0    0  0.51116650630E+02  0.15606631815E+02  0.92246407754E+01  0.54236269466E+02  0.00000000000E+00 0. -1.
        -11    1    3    3    0    0  0.10179526014E+04  0.82570804467E+02  0.51287032823E+03  0.11428391882E+04  0.00000000000E+00 0.  1.
          2    1    6    6  502    0  0.26146225111E+02 -0.54585854375E+02 -0.67100387008E+02  0.90364276802E+02  0.00000000000E+00 0. -1.
          1    1    5    5  503    0 -0.14591186284E+03 -0.54742007580E+01 -0.23743020531E+02  0.14793231430E+03  0.00000000000E+00 0. -1.
         -2    1    5    5    0  503 -0.99984129776E+03  0.11675932094E+03 -0.17540545521E+02  0.10067884736E+04  0.00000000000E+00 0.  1.
         -1    1    6    6    0  502  0.50537683478E+02 -0.15487670209E+03 -0.25126486776E+02  0.16483989396E+03  0.00000000000E+00 0.  1.
<mgrwt>
<rscale>  0 0.25778777E+04</rscale>
<asrwt>0</asrwt>
<pdfrwt beam="1">  1        1 0.17064738E+00 0.25778777E+04</pdfrwt>
<pdfrwt beam="2">  1       -1 0.23042961E+00 0.25778777E+04</pdfrwt>
<totfact> 0.10325171E+00</totfact>
</mgrwt>
</event>
<event>
12    1  0.1496989E-007  0.2176253E+04  0.7818608E-02  0.8528378E-01
         -1   -1    0    0    0  501 -0.00000000000E+00  0.00000000000E+00  0.48438279729E+03  0.48438279729E+03  0.00000000000E+00 0.  1.
          1   -1    0    0  501    0  0.00000000000E+00 -0.00000000000E+00 -0.24443868532E+04  0.24443868532E+04  0.00000000000E+00 0. -1.
         23    2    1    2    0    0  0.47928895987E+03  0.59193654419E+03 -0.15584518060E+03  0.78269729867E+03  0.90667312920E+02 0.  0.
        254    2    1    2    0    0 -0.47928895987E+03 -0.59193654419E+03 -0.18041588753E+04  0.21460723518E+04  0.87779867422E+03 0.  0.
        -24    2    4    4    0    0 -0.24791422969E+03  0.86259931689E+02 -0.94682306221E+02  0.29075235260E+03  0.81669763910E+02 0.  0.
         24    2    4    4    0    0 -0.23137473018E+03 -0.67819647588E+03 -0.17094765691E+04  0.18553199992E+04  0.80108885573E+02 0.  0.
         13    1    3    3    0    0  0.30256438660E+03  0.43985762069E+03 -0.10788750161E+03  0.54466471110E+03  0.00000000000E+00 0.  1.
        -13    1    3    3    0    0  0.17672457327E+03  0.15207892350E+03 -0.47957678989E+02  0.23803258757E+03  0.00000000000E+00 0. -1.
          4    1    6    6  502    0 -0.18336334912E+03 -0.51640419589E+03 -0.13874950548E+04  0.14917901790E+04  0.00000000000E+00 0. -1.
          1    1    5    5  503    0 -0.17241505352E+03  0.19912206306E+02 -0.48978153665E+02  0.18033941937E+03  0.00000000000E+00 0. -1.
         -2    1    5    5    0  503 -0.75499176162E+02  0.66347725383E+02 -0.45704152557E+02  0.11041293324E+03  0.00000000000E+00 0.  1.
         -3    1    6    6    0  502 -0.48011381061E+02 -0.16179227999E+03 -0.32198151433E+03  0.36352982015E+03  0.00000000000E+00 0.  1.
<mgrwt>
<rscale>  0 0.21762527E+04</rscale>
<asrwt>0</asrwt>
<pdfrwt beam="1">  1        1 0.37605951E+00 0.21762527E+04</pdfrwt>
<pdfrwt beam="2">  1       -1 0.74520432E-01 0.21762527E+04</pdfrwt>
<totfact> 0.24509685E+00</totfact>
</mgrwt>
</event>
<event>
12    1  0.1496989E-007  0.1330202E+04  0.7818608E-02  0.9005952E-01
         -2   -1    0    0    0  501 -0.00000000000E+00  0.00000000000E+00  0.77252618196E+03  0.77252618196E+03  0.00000000000E+00 0.  1.
          2   -1    0    0  501    0  0.00000000000E+00 -0.00000000000E+00 -0.57261408956E+03  0.57261408956E+03  0.00000000000E+00 0. -1.
         23    2    1    2    0    0 -0.28661576837E+02  0.30354070879E+03  0.24945764133E+03  0.40446215323E+03  0.91662809795E+02 0.  0.
        254    2    1    2    0    0  0.28661576837E+02 -0.30354070879E+03 -0.49545548930E+02  0.94067811829E+03  0.88851680509E+03 0.  0.
        -24    2    4    4    0    0  0.35510121300E+03  0.11087522877E+03  0.85833745490E+02  0.39029955127E+03  0.81093279795E+02 0.  0.
         24    2    4    4    0    0 -0.32643963616E+03 -0.41441593755E+03 -0.13537929442E+03  0.55037856702E+03  0.79281828479E+02 0.  0.
         11    1    3    3    0    0 -0.28687031124E+02  0.12446872527E+03  0.15865743689E+03  0.20368503039E+03  0.00000000000E+00 0. -1.
        -11    1    3    3    0    0  0.25454287158E-01  0.17907198352E+03  0.90800204438E+02  0.20077712284E+03  0.00000000000E+00 0.  1.
          4    1    6    6  502    0 -0.26726570475E+03 -0.30590012369E+03 -0.13059105360E+03  0.42668473829E+03  0.00000000000E+00 0. -1.
          3    1    5    5  503    0  0.32804635683E+03  0.88969510256E+02  0.97467608826E+02  0.35359570239E+03  0.00000000000E+00 0. -1.
         -4    1    5    5    0  503  0.27054856173E+02  0.21905718510E+02 -0.11633863336E+02  0.36703848873E+02  0.00000000000E+00 0.  1.
         -3    1    6    6    0  502 -0.59173931416E+02 -0.10851581386E+03 -0.47882408202E+01  0.12369382874E+03  0.00000000000E+00 0.  1.
<mgrwt>
<rscale>  0 0.13302021E+04</rscale>
<asrwt>0</asrwt>
<pdfrwt beam="1">  1        2 0.88094476E-01 0.13302021E+04</pdfrwt>
<pdfrwt beam="2">  1       -2 0.11885018E+00 0.13302021E+04</pdfrwt>
<totfact> 0.27905685E+01</totfact>
</mgrwt>
</event>
<event>
12    1  0.1496989E-007  0.1803424E+04  0.7818608E-02  0.8704481E-01
         -2   -1    0    0    0  501 -0.00000000000E+00  0.00000000000E+00  0.80845581248E+03  0.80845581248E+03  0.00000000000E+00 0.  1.
          2   -1    0    0  501    0  0.00000000000E+00 -0.00000000000E+00 -0.10057254082E+04  0.10057254082E+04  0.00000000000E+00 0. -1.
         23    2    1    2    0    0 -0.53554544644E+03  0.40771692969E+03 -0.34589062961E+02  0.67987807206E+03  0.89419067463E+02 0.  0.
        254    2    1    2    0    0  0.53554544644E+03 -0.40771692969E+03 -0.16268053276E+03  0.11343031486E+04  0.89840784573E+03 0.  0.
        -24    2    4    4    0    0 -0.28723602313E+02  0.19868255439E+03 -0.20932618786E+03  0.30086059888E+03  0.79999026790E+02 0.  0.
         24    2    4    4    0    0  0.56426904876E+03 -0.60639948408E+03  0.46645655101E+02  0.83344254974E+03  0.79566154224E+02 0.  0.
         13    1    3    3    0    0 -0.38456892367E+03  0.24515991568E+03 -0.41225600170E+02  0.45792596718E+03  0.00000000000E+00 0.  1.
        -13    1    3    3    0    0 -0.15097652277E+03  0.16255701402E+03  0.66365372085E+01  0.22195210488E+03  0.00000000000E+00 0. -1.
          2    1    6    6  502    0  0.47478872575E+03 -0.50388657606E+03  0.68157187098E+02  0.69568054291E+03  0.00000000000E+00 0. -1.
          3    1    5    5  503    0 -0.49643323441E+01  0.61706209333E+02 -0.12166485640E+03  0.13650874751E+03  0.00000000000E+00 0. -1.
         -4    1    5    5    0  503 -0.23759269969E+02  0.13697634505E+03 -0.87661331466E+02  0.16435185137E+03  0.00000000000E+00 0.  1.
         -1    1    6    6    0  502  0.89480323002E+02 -0.10251290802E+03 -0.21511531997E+02  0.13776200683E+03  0.00000000000E+00 0.  1.
<mgrwt>
<rscale>  0 0.18034240E+04</rscale>
<asrwt>0</asrwt>
<pdfrwt beam="1">  1        2 0.15472699E+00 0.18034240E+04</pdfrwt>
<pdfrwt beam="2">  1       -2 0.12437782E+00 0.18034240E+04</pdfrwt>
<totfact> 0.11445585E+01</totfact>
</mgrwt>
</event>
<event>
12    1  0.1496989E-007  0.1573142E+04  0.7818608E-02  0.8837220E-01
         -2   -1    0    0    0  501 -0.00000000000E+00  0.00000000000E+00  0.43642438598E+03  0.43642438598E+03  0.00000000000E+00 0. -1.
          2   -1    0    0  501    0  0.00000000000E+00 -0.00000000000E+00 -0.14176428898E+04  0.14176428898E+04  0.00000000000E+00 0.  1.
         23    2    1    2    0    0  0.40728882012E+03 -0.32073257084E+03 -0.40327613927E+03  0.66292615063E+03  0.89921475158E+02 0.  0.
        254    2    1    2    0    0 -0.40728882012E+03  0.32073257084E+03 -0.57794236460E+03  0.11911411252E+04  0.90335277625E+03 0.  0.
        -24    2    4    4    0    0 -0.36815493736E+03 -0.16589498145E+03  0.22230022332E+02  0.41345554239E+03  0.85977374165E+02 0.  0.
         24    2    4    4    0    0 -0.39133882758E+02  0.48662755229E+03 -0.60017238693E+03  0.77768558281E+03  0.79057803243E+02 0.  0.
         11    1    3    3    0    0  0.26130504881E+03 -0.24842372291E+03 -0.30805411898E+03  0.47422780903E+03  0.00000000000E+00 0. -1.
        -11    1    3    3    0    0  0.14598377131E+03 -0.72308847930E+02 -0.95222020291E+02  0.18869834160E+03  0.00000000000E+00 0.  1.
          2    1    6    6  502    0  0.18751423637E+02  0.22986156618E+03 -0.25936729077E+03  0.34707253855E+03  0.00000000000E+00 0. -1.
          1    1    5    5  503    0 -0.32757099267E+03 -0.15015821906E+03 -0.80396979492E+01  0.36043707181E+03  0.00000000000E+00 0. -1.
         -2    1    5    5    0  503 -0.40583944688E+02 -0.15736762392E+02  0.30269720281E+02  0.53018470583E+02  0.00000000000E+00 0.  1.
         -1    1    6    6    0  502 -0.57885306395E+02  0.25676598611E+03 -0.34080509616E+03  0.43061304426E+03  0.00000000000E+00 0.  1.
<mgrwt>
<rscale>  0 0.15731420E+04</rscale>
<asrwt>0</asrwt>
<pdfrwt beam="1">  1        2 0.21809891E+00 0.15731420E+04</pdfrwt>
<pdfrwt beam="2">  1       -2 0.67142213E-01 0.15731420E+04</pdfrwt>
<totfact> 0.27650929E+01</totfact>
</mgrwt>
</event>
<event>
12    1  0.1496989E-007  0.1380332E+04  0.7818608E-02  0.8968180E-01
          2   -1    0    0  501    0  0.00000000000E+00  0.00000000000E+00  0.10087858259E+04  0.10087858259E+04  0.00000000000E+00 0. -1.
         -2   -1    0    0    0  501 -0.00000000000E+00 -0.00000000000E+00 -0.47218051239E+03  0.47218051239E+03  0.00000000000E+00 0.  1.
         23    2    1    2    0    0  0.38873401671E+03  0.26323811290E+02  0.21170174178E+03  0.45272170975E+03  0.91281105508E+02 0.  0.
        254    2    1    2    0    0 -0.38873401671E+03 -0.26323811290E+02  0.32490357169E+03  0.10282446285E+04  0.89438113036E+03 0.  0.
        -24    2    4    4    0    0 -0.10786326740E+02 -0.37700129473E+03 -0.45566595192E+02  0.38831567544E+03  0.80414104003E+02 0.  0.
         24    2    4    4    0    0 -0.37794768997E+03  0.35067748344E+03  0.37047016688E+03  0.63992895305E+03  0.80260617159E+02 0.  0.
         11    1    3    3    0    0  0.31859583196E+03 -0.14498988665E+02  0.17270040082E+03  0.36268299279E+03  0.00000000000E+00 0. -1.
        -11    1    3    3    0    0  0.70138184744E+02  0.40822799955E+02  0.39001340955E+02  0.90038716959E+02  0.00000000000E+00 0.  1.
          2    1    6    6  502    0 -0.21525931914E+03  0.24564410155E+03  0.20867872300E+03  0.38758793652E+03  0.00000000000E+00 0. -1.
          1    1    5    5  503    0 -0.25619758301E+02 -0.33717460159E+03 -0.60007760036E+02  0.34342978211E+03  0.00000000000E+00 0. -1.
         -2    1    5    5    0  503  0.14833431561E+02 -0.39826693138E+02  0.14441164844E+02  0.44885893333E+02  0.00000000000E+00 0.  1.
         -1    1    6    6    0  502 -0.16268837082E+03  0.10503338189E+03  0.16179144388E+03  0.25234101654E+03  0.00000000000E+00 0.  1.
<mgrwt>
<rscale>  0 0.13803319E+04</rscale>
<asrwt>0</asrwt>
<pdfrwt beam="1">  1        2 0.15519782E+00 0.13803319E+04</pdfrwt>
<pdfrwt beam="2">  1       -2 0.72643156E-01 0.13803319E+04</pdfrwt>
<totfact> 0.41538181E+01</totfact>
</mgrwt>
</event>
<event>
12    1  0.1496989E-007  0.1531888E+04  0.7818608E-02  0.8863520E-01
          2   -1    0    0  501    0  0.00000000000E+00  0.00000000000E+00  0.95172107657E+03  0.95172107657E+03  0.00000000000E+00 0. -1.
         -2   -1    0    0    0  501 -0.00000000000E+00 -0.00000000000E+00 -0.61643103125E+03  0.61643103125E+03  0.00000000000E+00 0.  1.
         23    2    1    2    0    0  0.31511516025E+03  0.18670428084E+03 -0.24230433905E+03  0.44585511251E+03  0.76937220697E+02 0.  0.
        254    2    1    2    0    0 -0.31511516025E+03 -0.18670428084E+03  0.57759438437E+03  0.11222969953E+04  0.88981976832E+03 0.  0.
        -24    2    4    4    0    0 -0.34240070568E+02 -0.12468012960E+03  0.75891924977E+03  0.77397858114E+03  0.79792852087E+02 0.  0.
         24    2    4    4    0    0 -0.28087508969E+03 -0.62024151232E+02 -0.18132486540E+03  0.34831841416E+03  0.75559244895E+02 0.  0.
         11    1    3    3    0    0  0.22871679726E+03  0.11292076483E+03 -0.13076449904E+03  0.28663884365E+03  0.00000000000E+00 0. -1.
        -11    1    3    3    0    0  0.86398362989E+02  0.73783516009E+02 -0.11153984001E+03  0.15921626886E+03  0.00000000000E+00 0.  1.
          4    1    6    6  502    0 -0.60971566218E+02 -0.32481288286E+02 -0.14171127738E+02  0.70522243563E+02  0.00000000000E+00 0. -1.
          1    1    5    5  503    0  0.24895863720E+01 -0.71111102473E+02  0.22149314059E+03  0.23264178099E+03  0.00000000000E+00 0. -1.
         -2    1    5    5    0  503 -0.36729656940E+02 -0.53569027132E+02  0.53742610918E+03  0.54133680015E+03  0.00000000000E+00 0.  1.
         -3    1    6    6    0  502 -0.21990352347E+03 -0.29542862946E+02 -0.16715373766E+03  0.27779617060E+03  0.00000000000E+00 0.  1.
<mgrwt>
<rscale>  0 0.15318883E+04</rscale>
<asrwt>0</asrwt>
<pdfrwt beam="1">  1        2 0.14641863E+00 0.15318883E+04</pdfrwt>
<pdfrwt beam="2">  1       -2 0.94835543E-01 0.15318883E+04</pdfrwt>
<totfact> 0.24430929E+01</totfact>
</mgrwt>
</event>
<event>
12    1  0.1637240E-007  0.2987564E+04  0.7818608E-02  0.8247291E-01
         -2   -1    0    0    0  501 -0.00000000000E+00  0.00000000000E+00  0.13286337306E+04  0.13286337306E+04  0.00000000000E+00 0.  1.
          2   -1    0    0  501    0  0.00000000000E+00 -0.00000000000E+00 -0.16794576711E+04  0.16794576711E+04  0.00000000000E+00 0. -1.
         23    2    1    2    0    0  0.12901897430E+04  0.30680903422E+03 -0.43046340754E+03  0.13972124969E+04  0.90458056197E+02 0.  0.
        254    2    1    2    0    0 -0.12901897430E+04 -0.30680903422E+03  0.79639467018E+02  0.16108789047E+04  0.91097038625E+03 0.  0.
        -24    2    4    4    0    0 -0.10217513062E+04 -0.45013045162E+03  0.37317627595E+03  0.11799131461E+04  0.79632556668E+02 0.  0.
         24    2    4    4    0    0 -0.26843843676E+03  0.14332141739E+03 -0.29353680893E+03  0.43096575866E+03  0.83470976579E+02 0.  0.
         11    1    3    3    0    0  0.93068717819E+03  0.21835962961E+03 -0.26728580239E+03  0.99262341885E+03  0.00000000000E+00 0. -1.
        -11    1    3    3    0    0  0.35950256479E+03  0.88449404615E+02 -0.16317760514E+03  0.40458907806E+03  0.00000000000E+00 0.  1.
          4    1    6    6  502    0 -0.26593895855E+03  0.13127239930E+03 -0.25707624787E+03  0.39248461080E+03  0.00000000000E+00 0. -1.
          1    1    5    5  503    0 -0.80466607435E+03 -0.38501886531E+03  0.31385845664E+03  0.94563954478E+03  0.00000000000E+00 0. -1.
         -4    1    5    5    0  503 -0.21708523188E+03 -0.65111586302E+02  0.59317819313E+02  0.23427360128E+03  0.00000000000E+00 0.  1.
         -3    1    6    6    0  502 -0.24994782057E+01  0.12049018093E+02 -0.36460561060E+02  0.38481147866E+02  0.00000000000E+00 0.  1.
<mgrwt>
<rscale>  0 0.29875636E+04</rscale>
<asrwt>0</asrwt>
<pdfrwt beam="1">  1        2 0.25837810E+00 0.29875636E+04</pdfrwt>
<pdfrwt beam="2">  1       -2 0.20440519E+00 0.29875636E+04</pdfrwt>
<totfact> 0.10739624E+00</totfact>
</mgrwt>
</event>
<event>
12    1  0.1496989E-007  0.2011235E+04  0.7818608E-02  0.8601386E-01
          2   -1    0    0  501    0  0.00000000000E+00  0.00000000000E+00  0.11317559920E+04  0.11317559920E+04  0.00000000000E+00 0.  1.
         -2   -1    0    0    0  501 -0.00000000000E+00 -0.00000000000E+00 -0.89353727652E+03  0.89353727652E+03  0.00000000000E+00 0. -1.
         23    2    1    2    0    0  0.17235215148E+01  0.79424352714E+03  0.21851545061E+03  0.82898843811E+03  0.92989663082E+02 0.  0.
        254    2    1    2    0    0 -0.17235215148E+01 -0.79424352714E+03  0.19703264889E+02  0.11963048304E+04  0.89438877324E+03 0.  0.
        -24    2    4    4    0    0 -0.84196494955E+02 -0.40753032409E+03 -0.42206869078E+03  0.59803118654E+03  0.79556932561E+02 0.  0.
         24    2    4    4    0    0  0.82472973441E+02 -0.38671320305E+03  0.44177195567E+03  0.59827364388E+03  0.80124898619E+02 0.  0.
         11    1    3    3    0    0  0.91789300143E+00  0.62723002928E+03  0.21112439508E+03  0.66180953632E+03  0.00000000000E+00 0.  1.
        -11    1    3    3    0    0  0.80562851332E+00  0.16701349786E+03  0.73910555256E+01  0.16717890179E+03  0.00000000000E+00 0. -1.
          2    1    6    6  502    0 -0.11920445455E+02 -0.85936400901E+02  0.75384839755E+02  0.11493492108E+03  0.00000000000E+00 0. -1.
          3    1    5    5  503    0 -0.33057249064E+02 -0.23704628943E+03 -0.29214677443E+03  0.37766845627E+03  0.00000000000E+00 0. -1.
         -4    1    5    5    0  503 -0.51139245892E+02 -0.17048403466E+03 -0.12992191635E+03  0.22036273027E+03  0.00000000000E+00 0.  1.
         -1    1    6    6    0  502  0.94393418895E+02 -0.30077680215E+03  0.36638711592E+03  0.48333872279E+03  0.00000000000E+00 0.  1.
<mgrwt>
<rscale>  0 0.20112346E+04</rscale>
<asrwt>0</asrwt>
<pdfrwt beam="1">  1        2 0.17411631E+00 0.20112346E+04</pdfrwt>
<pdfrwt beam="2">  1       -2 0.13746727E+00 0.20112346E+04</pdfrwt>
<totfact> 0.72812077E+00</totfact>
</mgrwt>
</event>
<event>
12    1  0.1496989E-007  0.1310594E+04  0.7818608E-02  0.9021206E-01
         -1   -1    0    0    0  501 -0.00000000000E+00  0.00000000000E+00  0.12113665681E+04  0.12113665681E+04  0.00000000000E+00 0.  1.
          1   -1    0    0  501    0  0.00000000000E+00 -0.00000000000E+00 -0.35448735992E+03  0.35448735992E+03  0.00000000000E+00 0. -1.
         23    2    1    2    0    0 -0.18844737013E+03  0.14650223947E+02 -0.10177214915E+03  0.23414506553E+03  0.93484228603E+02 0.  0.
        254    2    1    2    0    0  0.18844737013E+03 -0.14650223947E+02  0.95865135734E+03  0.13317088625E+04  0.90482541362E+03 0.  0.
        -24    2    4    4    0    0 -0.10941974056E+03 -0.34960896577E+03  0.73351381851E+03  0.82389027370E+03  0.80954015226E+02 0.  0.
         24    2    4    4    0    0  0.29786711070E+03  0.33495874183E+03  0.22513753883E+03  0.50781858879E+03  0.79187330861E+02 0.  0.
         11    1    3    3    0    0  0.58408598911E+00  0.35408858773E+00 -0.32205022401E+02  0.32212264792E+02  0.00000000000E+00 0.  1.
        -11    1    3    3    0    0 -0.18903145612E+03  0.14296135359E+02 -0.69567126751E+02  0.20193280074E+03  0.00000000000E+00 0. -1.
          4    1    6    6  502    0  0.81249591793E+02  0.12597267076E+03  0.10834850250E+03  0.18495947648E+03  0.00000000000E+00 0. -1.
          1    1    5    5  503    0  0.11821178168E+02 -0.53193483185E+02  0.12111604942E+03  0.13280957923E+03  0.00000000000E+00 0. -1.
         -2    1    5    5    0  503 -0.12124091873E+03 -0.29641548259E+03  0.61239776909E+03  0.69108069448E+03  0.00000000000E+00 0.  1.
         -3    1    6    6    0  502  0.21661751890E+03  0.20898607107E+03  0.11678903633E+03  0.32285911231E+03  0.00000000000E+00 0.  1.
<mgrwt>
<rscale>  0 0.13105940E+04</rscale>
<asrwt>0</asrwt>
<pdfrwt beam="1">  1        1 0.54536518E-01 0.13105940E+04</pdfrwt>
<pdfrwt beam="2">  1       -1 0.18636408E+00 0.13105940E+04</pdfrwt>
<totfact> 0.12959385E+01</totfact>
</mgrwt>
</event>
<event>
12    1  0.1496989E-007  0.1499199E+04  0.7818608E-02  0.8884985E-01
          1   -1    0    0  501    0  0.00000000000E+00  0.00000000000E+00  0.52020959984E+03  0.52020959984E+03  0.00000000000E+00 0. -1.
         -1   -1    0    0    0  501 -0.00000000000E+00 -0.00000000000E+00 -0.10801409943E+04  0.10801409943E+04  0.00000000000E+00 0.  1.
         23    2    1    2    0    0  0.43404422535E+03 -0.11152606043E+03 -0.34071990548E+03  0.57046354683E+03  0.92228805508E+02 0.  0.
        254    2    1    2    0    0 -0.43404422535E+03  0.11152606043E+03 -0.21921148900E+03  0.10298870473E+04  0.90098901304E+03 0.  0.
        -24    2    4    4    0    0 -0.52228866677E+03  0.10670331405E+02 -0.48688916609E+03  0.71941319151E+03  0.87149140302E+02 0.  0.
         24    2    4    4    0    0  0.88244441425E+02  0.10085572902E+03  0.26767767709E+03  0.31047385581E+03  0.82363321979E+02 0.  0.
         11    1    3    3    0    0  0.33352940275E+03 -0.99966882354E+02 -0.21552226933E+03  0.40949369792E+03  0.00000000000E+00 0.  1.
        -11    1    3    3    0    0  0.10051482260E+03 -0.11559178074E+02 -0.12519763615E+03  0.16096984891E+03  0.00000000000E+00 0. -1.
          4    1    6    6  502    0 -0.97333795791E+01  0.39863537760E+02  0.56676622989E+02  0.69971993784E+02  0.00000000000E+00 0. -1.
          3    1    5    5  503    0 -0.22925026012E+03  0.30115793978E+02 -0.16743489659E+03  0.28547694725E+03  0.00000000000E+00 0. -1.
         -4    1    5    5    0  503 -0.29303840665E+03 -0.19445462573E+02 -0.31945426950E+03  0.43393624427E+03  0.00000000000E+00 0.  1.
         -3    1    6    6    0  502  0.97977821004E+02  0.60992191263E+02  0.21100105410E+03  0.24050186202E+03  0.00000000000E+00 0.  1.
<mgrwt>
<rscale>  0 0.14991994E+04</rscale>
<asrwt>0</asrwt>
<pdfrwt beam="1">  1        1 0.80032247E-01 0.14991994E+04</pdfrwt>
<pdfrwt beam="2">  1       -1 0.16617554E+00 0.14991994E+04</pdfrwt>
<totfact> 0.10657228E+01</totfact>
</mgrwt>
</event>
<event>
12    1  0.1496989E-007  0.3337257E+04  0.7818608E-02  0.8153480E-01
         -2   -1    0    0    0  501 -0.00000000000E+00  0.00000000000E+00  0.11093069858E+04  0.11093069858E+04  0.00000000000E+00 0. -1.
          2   -1    0    0  501    0  0.00000000000E+00 -0.00000000000E+00 -0.25099637472E+04  0.25099637472E+04  0.00000000000E+00 0.  1.
         23    2    1    2    0    0  0.79810804943E+00 -0.11007049412E+04  0.52691858353E+03  0.12237557080E+04  0.91557821917E+02 0.  0.
        254    2    1    2    0    0 -0.79810804943E+00  0.11007049412E+04 -0.19275753450E+04  0.23955150249E+04  0.90077384485E+03 0.  0.
        -24    2    4    4    0    0 -0.74920300470E+02  0.12400209667E+04 -0.16871670663E+04  0.20967336772E+04  0.80587556594E+02 0.  0.
         24    2    4    4    0    0  0.74122192421E+02 -0.13931602548E+03 -0.24040827873E+03  0.29878134778E+03  0.81062315123E+02 0.  0.
         13    1    3    3    0    0 -0.28709776752E+02 -0.94694534276E+03  0.46560708607E+03  0.10556134198E+04  0.00000000000E+00 0. -1.
        -13    1    3    3    0    0  0.29507884802E+02 -0.15375959842E+03  0.61311497457E+02  0.16814228824E+03  0.00000000000E+00 0.  1.
          2    1    6    6  502    0  0.77160040892E+02 -0.12027538904E+03 -0.15333319101E+03  0.20959701473E+03  0.00000000000E+00 0. -1.
          3    1    5    5  503    0 -0.30505519985E+02  0.91025425767E+03 -0.12786024017E+04  0.15698144801E+04  0.00000000000E+00 0. -1.
         -4    1    5    5    0  503 -0.44414780485E+02  0.32976670900E+03 -0.40856466460E+03  0.52691919708E+03  0.00000000000E+00 0.  1.
         -1    1    6    6    0  502 -0.30378484706E+01 -0.19040636441E+02 -0.87075087722E+02  0.89184333048E+02  0.00000000000E+00 0.  1.
<mgrwt>
<rscale>  0 0.33372565E+04</rscale>
<asrwt>0</asrwt>
<pdfrwt beam="1">  1        2 0.38614827E+00 0.33372565E+04</pdfrwt>
<pdfrwt beam="2">  1       -2 0.17066261E+00 0.33372565E+04</pdfrwt>
<totfact> 0.60294718E-01</totfact>
</mgrwt>
</event>
<event>
12    1  0.1496989E-007  0.1398690E+04  0.7818608E-02  0.8954768E-01
          2   -1    0    0  501    0  0.00000000000E+00  0.00000000000E+00  0.14594795505E+04  0.14594795505E+04  0.00000000000E+00 0. -1.
         -2   -1    0    0    0  501 -0.00000000000E+00 -0.00000000000E+00 -0.33510794853E+03  0.33510794853E+03  0.00000000000E+00 0.  1.
         23    2    1    2    0    0 -0.23177972560E+03 -0.52345537045E+02  0.76427096329E+03  0.80576033169E+03  0.93154228901E+02 0.  0.
        254    2    1    2    0    0  0.23177972560E+03  0.52345537045E+02  0.36010063867E+03  0.98882716732E+03  0.88974423314E+03 0.  0.
        -24    2    4    4    0    0  0.35465771416E+03 -0.34258804436E+03  0.17787905482E+03  0.53026266100E+03  0.79930401921E+02 0.  0.
         24    2    4    4    0    0 -0.12287798856E+03  0.39493358140E+03  0.18222158386E+03  0.45856450632E+03  0.77493012861E+02 0.  0.
         13    1    3    3    0    0 -0.20178864004E+03 -0.11081361310E+02  0.56469540817E+03  0.59976858523E+03  0.00000000000E+00 0. -1.
        -13    1    3    3    0    0 -0.29991085555E+02 -0.41264175734E+02  0.19957555512E+03  0.20599174647E+03  0.00000000000E+00 0.  1.
          4    1    6    6  502    0 -0.45428515299E+02  0.12677212045E+03  0.21192328412E+02  0.13632327501E+03  0.00000000000E+00 0. -1.
          1    1    5    5  503    0  0.98094885599E+02 -0.13140050508E+03  0.87627170655E+02  0.18592261926E+03  0.00000000000E+00 0. -1.
         -2    1    5    5    0  503  0.25656282856E+03 -0.21118753928E+03  0.90251884162E+02  0.34434004174E+03  0.00000000000E+00 0.  1.
         -3    1    6    6    0  502 -0.77449473264E+02  0.26816146095E+03  0.16102925544E+03  0.32224123131E+03  0.00000000000E+00 0.  1.
<mgrwt>
<rscale>  0 0.13986897E+04</rscale>
<asrwt>0</asrwt>
<pdfrwt beam="1">  1        2 0.22453531E+00 0.13986897E+04</pdfrwt>
<pdfrwt beam="2">  1       -2 0.51555070E-01 0.13986897E+04</pdfrwt>
<totfact> 0.46288447E+01</totfact>
</mgrwt>
</event>
<event>
12    1  0.1496989E-007  0.2387923E+04  0.7818608E-02  0.8444039E-01
          2   -1    0    0  501    0  0.00000000000E+00  0.00000000000E+00  0.24523297034E+04  0.24523297034E+04  0.00000000000E+00 0. -1.
         -2   -1    0    0    0  501 -0.00000000000E+00 -0.00000000000E+00 -0.58130191034E+03  0.58130191034E+03  0.00000000000E+00 0.  1.
         23    2    1    2    0    0  0.30463293994E+03  0.51185117088E+03 -0.25205356873E+03  0.65327896495E+03  0.91921462674E+02 0.  0.
        254    2    1    2    0    0 -0.30463293994E+03 -0.51185117088E+03  0.21230813618E+04  0.23803526488E+04  0.89655530484E+03 0.  0.
        -24    2    4    4    0    0 -0.26062033291E+03 -0.36602652061E+03  0.21561195790E+04  0.22039151987E+04  0.80574143552E+02 0.  0.
         24    2    4    4    0    0 -0.44012607032E+02 -0.14582465027E+03 -0.33038217162E+02  0.17643745010E+03  0.82684410854E+02 0.  0.
         13    1    3    3    0    0  0.79782699303E+02  0.18011093004E+03 -0.44470448191E+02  0.20194763428E+03  0.00000000000E+00 0. -1.
        -13    1    3    3    0    0  0.22485024064E+03  0.33174024084E+03 -0.20758312054E+03  0.45133133067E+03  0.00000000000E+00 0.  1.
          2    1    6    6  502    0 -0.60397281588E+02 -0.62571558706E+02 -0.51352289869E+01  0.87117174879E+02  0.00000000000E+00 0. -1.
          1    1    5    5  503    0 -0.22814164438E+03 -0.35005305440E+03  0.19116546267E+04  0.19567854155E+04  0.00000000000E+00 0. -1.
         -4    1    5    5    0  503 -0.32478688528E+02 -0.15973466206E+02  0.24446495231E+03  0.24712978319E+03  0.00000000000E+00 0.  1.
         -1    1    6    6    0  502  0.16384674556E+02 -0.83253091567E+02 -0.27902988175E+02  0.89320275217E+02  0.00000000000E+00 0.  1.
<mgrwt>
<rscale>  0 0.23879229E+04</rscale>
<asrwt>0</asrwt>
<pdfrwt beam="1">  1        2 0.37728149E+00 0.23879229E+04</pdfrwt>
<pdfrwt beam="2">  1       -2 0.89431064E-01 0.23879229E+04</pdfrwt>
<totfact> 0.35801014E+00</totfact>
</mgrwt>
</event>
<event>
12    1  0.1496989E-007  0.1239159E+04  0.7818608E-02  0.9079255E-01
         -2   -1    0    0    0  501 -0.00000000000E+00  0.00000000000E+00  0.15918985216E+03  0.15918985216E+03  0.00000000000E+00 0. -1.
          2   -1    0    0  501    0  0.00000000000E+00 -0.00000000000E+00 -0.24114507842E+04  0.24114507842E+04  0.00000000000E+00 0.  1.
         23    2    1    2    0    0  0.75156486174E+02  0.16776670447E+00 -0.11136716335E+04  0.11193752506E+04  0.84189778380E+02 0.  0.
        254    2    1    2    0    0 -0.75156486174E+02 -0.16776670447E+00 -0.11385892986E+04  0.14512653858E+04  0.89673691999E+03 0.  0.
        -24    2    4    4    0    0 -0.48059229702E+02  0.43545813847E+03 -0.45791479913E+03  0.63871992296E+03  0.79647327698E+02 0.  0.
         24    2    4    4    0    0 -0.27097256472E+02 -0.43562590518E+03 -0.68067449945E+03  0.81254546285E+03  0.80051011412E+02 0.  0.
         13    1    3    3    0    0  0.69526471125E+02 -0.20036962758E+02 -0.48633214218E+03  0.49168522713E+03  0.00000000000E+00 0.  1.
        -13    1    3    3    0    0  0.56300150495E+01  0.20204729462E+02 -0.62733949132E+03  0.62769002345E+03  0.00000000000E+00 0. -1.
          2    1    6    6  502    0  0.13769805796E+02 -0.23688905327E+03 -0.31527102481E+03  0.39459073760E+03  0.00000000000E+00 0. -1.
          3    1    5    5  503    0 -0.38495760410E+02  0.93777057116E+02 -0.13196637673E+03  0.16640668435E+03  0.00000000000E+00 0. -1.
         -4    1    5    5    0  503 -0.95634692917E+01  0.34168108136E+03 -0.32594842240E+03  0.47231323861E+03  0.00000000000E+00 0.  1.
         -1    1    6    6    0  502 -0.40867062268E+02 -0.19873685190E+03 -0.36540347464E+03  0.41795472525E+03  0.00000000000E+00 0.  1.
<mgrwt>
<rscale>  0 0.12391586E+04</rscale>
<asrwt>0</asrwt>
<pdfrwt beam="1">  1        2 0.37099240E+00 0.12391586E+04</pdfrwt>
<pdfrwt beam="2">  1       -2 0.24490748E-01 0.12391586E+04</pdfrwt>
<totfact> 0.57659466E+01</totfact>
</mgrwt>
</event>
<event>
12    1  0.1496989E-007  0.2188648E+04  0.7818608E-02  0.8523168E-01
          2   -1    0    0  501    0  0.00000000000E+00  0.00000000000E+00  0.23303117924E+04  0.23303117924E+04  0.00000000000E+00 0. -1.
         -2   -1    0    0    0  501 -0.00000000000E+00 -0.00000000000E+00 -0.51389908468E+03  0.51389908468E+03  0.00000000000E+00 0.  1.
         23    2    1    2    0    0  0.77698084281E+03  0.52101671548E+01  0.20703605326E+03  0.80924353732E+03  0.91020873491E+02 0.  0.
        254    2    1    2    0    0 -0.77698084281E+03 -0.52101671548E+01  0.16093766544E+04  0.20349673397E+04  0.97327924154E+03 0.  0.
        -24    2    4    4    0    0 -0.87358977187E+03 -0.29576087792E+03  0.11313747880E+04  0.14618702050E+04  0.80137375600E+02 0.  0.
         24    2    4    4    0    0  0.96608929061E+02  0.29055071077E+03  0.47800186643E+03  0.57309713471E+03  0.78749862260E+02 0.  0.
         11    1    3    3    0    0  0.74749973876E+03  0.17094894270E+02  0.21176970013E+03  0.77710649254E+03  0.00000000000E+00 0.  1.
        -11    1    3    3    0    0  0.29481104044E+02 -0.11884727115E+02 -0.47336468655E+01  0.32137044776E+02  0.00000000000E+00 0. -1.
          4    1    6    6  502    0 -0.53538453330E+01  0.10033728715E+02  0.24423360847E+01  0.11632040979E+02  0.00000000000E+00 0. -1.
          3    1    5    5  503    0 -0.46779091883E+03 -0.19761574474E+03  0.59804402279E+03  0.78456164799E+03  0.00000000000E+00 0. -1.
         -4    1    5    5    0  503 -0.40579885303E+03 -0.98145133179E+02  0.53333076519E+03  0.67730855701E+03  0.00000000000E+00 0.  1.
         -3    1    6    6    0  502  0.10196277439E+03  0.28051698205E+03  0.47555953034E+03  0.56146509373E+03  0.00000000000E+00 0.  1.
<mgrwt>
<rscale>  0 0.21886481E+04</rscale>
<asrwt>0</asrwt>
<pdfrwt beam="1">  1        2 0.35850950E+00 0.21886481E+04</pdfrwt>
<pdfrwt beam="2">  1       -2 0.79061399E-01 0.21886481E+04</pdfrwt>
<totfact> 0.56582531E+00</totfact>
</mgrwt>
</event>
<event>
12    1  0.1496989E-007  0.1187171E+04  0.7818608E-02  0.9124160E-01
          1   -1    0    0  501    0  0.00000000000E+00  0.00000000000E+00  0.10483275139E+04  0.10483275139E+04  0.00000000000E+00 0. -1.
         -1   -1    0    0    0  501 -0.00000000000E+00 -0.00000000000E+00 -0.33610084899E+03  0.33610084899E+03  0.00000000000E+00 0.  1.
         23    2    1    2    0    0 -0.87114942088E+02  0.39241113270E+02  0.39317885645E+03  0.41417279541E+03  0.88434230899E+02 0.  0.
        254    2    1    2    0    0  0.87114942088E+02 -0.39241113270E+02  0.31904780844E+03  0.97025556747E+03  0.91130427631E+03 0.  0.
        -24    2    4    4    0    0  0.89434102751E+02 -0.12858843811E+03  0.62093638531E+03  0.64532849239E+03  0.79708364348E+02 0.  0.
         24    2    4    4    0    0 -0.23191606624E+01  0.89347324843E+02 -0.30188857686E+03  0.32492707507E+03  0.80327880045E+02 0.  0.
         11    1    3    3    0    0 -0.54498314741E+02  0.59347232135E+02  0.17504047274E+03  0.19269490748E+03  0.00000000000E+00 0.  1.
        -11    1    3    3    0    0 -0.32616627347E+02 -0.20106118865E+02  0.21813838371E+03  0.22147788793E+03  0.00000000000E+00 0. -1.
          4    1    6    6  502    0 -0.79101059072E+01  0.76527642134E+02 -0.30125835023E+03  0.31092707082E+03  0.00000000000E+00 0. -1.
          1    1    5    5  503    0  0.93614242930E+02 -0.11125734697E+03  0.60203895650E+03  0.61934863274E+03  0.00000000000E+00 0. -1.
         -2    1    5    5    0  503 -0.41801401795E+01 -0.17331091142E+02  0.18897428806E+02  0.25979859653E+02  0.00000000000E+00 0.  1.
         -3    1    6    6    0  502  0.55909452447E+01  0.12819682709E+02 -0.63022663439E+00  0.14000004254E+02  0.00000000000E+00 0.  1.
<mgrwt>
<rscale>  0 0.11871710E+04</rscale>
<asrwt>0</asrwt>
<pdfrwt beam="1">  1        1 0.16128115E+00 0.11871710E+04</pdfrwt>
<pdfrwt beam="2">  1       -1 0.51707823E-01 0.11871710E+04</pdfrwt>
<totfact> 0.51743370E+01</totfact>
</mgrwt>
</event>
<event>
12    1  0.1496989E-007  0.1498980E+04  0.7818608E-02  0.8885131E-01
          2   -1    0    0  501    0  0.00000000000E+00  0.00000000000E+00  0.10756375088E+04  0.10756375088E+04  0.00000000000E+00 0. -1.
         -2   -1    0    0    0  501 -0.00000000000E+00 -0.00000000000E+00 -0.52223500544E+03  0.52223500544E+03  0.00000000000E+00 0.  1.
         23    2    1    2    0    0 -0.26076677291E+03  0.39059184849E+03  0.12397972446E+03  0.49427475522E+03  0.91516444465E+02 0.  0.
        254    2    1    2    0    0  0.26076677291E+03 -0.39059184849E+03  0.42942277887E+03  0.11035977590E+04  0.90164449130E+03 0.  0.
        -24    2    4    4    0    0  0.65536115605E+02 -0.51203551722E+03  0.60842607216E+03  0.80196535375E+03  0.80565439116E+02 0.  0.
         24    2    4    4    0    0  0.19523065730E+03  0.12144366873E+03 -0.17900329330E+03  0.30163240525E+03  0.77950976007E+02 0.  0.
         13    1    3    3    0    0  0.18364999360E+01  0.15221904805E+02  0.18777939658E+02  0.24242321169E+02  0.00000000000E+00 0. -1.
        -13    1    3    3    0    0 -0.26260327284E+03  0.37536994369E+03  0.10520178480E+03  0.47003243405E+03  0.00000000000E+00 0.  1.
          2    1    6    6  502    0  0.36639312488E+02  0.28520627971E+00 -0.56869749533E+02  0.67651230397E+02  0.00000000000E+00 0. -1.
          3    1    5    5  503    0  0.38339220657E+02 -0.72349859667E+02  0.91167018332E+02  0.12253906832E+03  0.00000000000E+00 0. -1.
         -4    1    5    5    0  503  0.27196894948E+02 -0.43968565755E+03  0.51725905383E+03  0.67942628542E+03  0.00000000000E+00 0.  1.
         -1    1    6    6    0  502  0.15859134481E+03  0.12115846245E+03 -0.12213354376E+03  0.23398117485E+03  0.00000000000E+00 0.  1.
<mgrwt>
<rscale>  0 0.14989804E+04</rscale>
<asrwt>0</asrwt>
<pdfrwt beam="1">  1        2 0.16548269E+00 0.14989804E+04</pdfrwt>
<pdfrwt beam="2">  1       -2 0.80343847E-01 0.14989804E+04</pdfrwt>
<totfact> 0.29846750E+01</totfact>
</mgrwt>
</event>
<event>
12    1  0.1496989E-007  0.1445360E+04  0.7818608E-02  0.8921623E-01
         -2   -1    0    0    0  501 -0.00000000000E+00  0.00000000000E+00  0.40981926923E+03  0.40981926923E+03  0.00000000000E+00 0.  1.
          2   -1    0    0  501    0  0.00000000000E+00 -0.00000000000E+00 -0.12743830167E+04  0.12743830167E+04  0.00000000000E+00 0. -1.
         23    2    1    2    0    0 -0.68986191145E+02 -0.30312195565E+03 -0.61245282276E+03  0.69298527054E+03  0.92130942173E+02 0.  0.
        254    2    1    2    0    0  0.68986191145E+02  0.30312195565E+03 -0.25211092472E+03  0.99121701540E+03  0.90681268115E+03 0.  0.
        -24    2    4    4    0    0  0.27713308486E+03  0.30104144963E+03 -0.50470280672E+03  0.65457530725E+03  0.79468286936E+02 0.  0.
         24    2    4    4    0    0 -0.20814689371E+03  0.20805060233E+01  0.25259188200E+03  0.33664170816E+03  0.78711644319E+02 0.  0.
         13    1    3    3    0    0 -0.52222365426E+02 -0.29336958929E+03 -0.52749066530E+03  0.60583767904E+03  0.00000000000E+00 0. -1.
        -13    1    3    3    0    0 -0.16763825718E+02 -0.97523663606E+01 -0.84962157463E+02  0.87147591493E+02  0.00000000000E+00 0.  1.
          2    1    6    6  502    0 -0.50817694333E+02 -0.17585746349E+02  0.11403308267E+03  0.12607632798E+03  0.00000000000E+00 0. -1.
          1    1    5    5  503    0  0.23920496234E+03  0.28621832186E+03 -0.42802175214E+03  0.56775220130E+03  0.00000000000E+00 0. -1.
         -2    1    5    5    0  503  0.37928122518E+02  0.14823127768E+02 -0.76681054580E+02  0.86823105946E+02  0.00000000000E+00 0.  1.
         -1    1    6    6    0  502 -0.15732919938E+03  0.19666252373E+02  0.13855879932E+03  0.21056538018E+03  0.00000000000E+00 0.  1.
<mgrwt>
<rscale>  0 0.14453605E+04</rscale>
<asrwt>0</asrwt>
<pdfrwt beam="1">  1        2 0.19605892E+00 0.14453605E+04</pdfrwt>
<pdfrwt beam="2">  1       -2 0.63049120E-01 0.14453605E+04</pdfrwt>
<totfact> 0.38690375E+01</totfact>
</mgrwt>
</event>
<event>
12    1  0.1496989E-007  0.2244984E+04  0.7818608E-02  0.8499935E-01
          2   -1    0    0  501    0  0.00000000000E+00  0.00000000000E+00  0.16255734615E+04  0.16255734615E+04  0.00000000000E+00 0.  1.
         -2   -1    0    0    0  501 -0.00000000000E+00 -0.00000000000E+00 -0.77510393652E+03  0.77510393652E+03  0.00000000000E+00 0. -1.
         23    2    1    2    0    0 -0.35360180295E+03 -0.67603660060E+03  0.93015819201E+03  0.12063665933E+04  0.89812999238E+02 0.  0.
        254    2    1    2    0    0  0.35360180295E+03  0.67603660060E+03 -0.79688666997E+02  0.11943108048E+04  0.91540608165E+03 0.  0.
        -24    2    4    4    0    0  0.17857246473E+03  0.65507247762E+03  0.31654895221E+03  0.75338629461E+03  0.79872358629E+02 0.  0.
         24    2    4    4    0    0  0.17502933822E+03  0.20964122979E+02 -0.39623761920E+03  0.44092451015E+03  0.79595283080E+02 0.  0.
         11    1    3    3    0    0 -0.24417247792E+02 -0.10430774356E+03  0.10633252696E+03  0.15094009953E+03  0.00000000000E+00 0. -1.
        -11    1    3    3    0    0 -0.32918455516E+03 -0.57172885704E+03  0.82382566505E+03  0.10554264938E+04  0.00000000000E+00 0.  1.
          2    1    6    6  502    0  0.93959029697E+02 -0.21545376036E+02 -0.15086332758E+03  0.17903141093E+03  0.00000000000E+00 0. -1.
          1    1    5    5  503    0 -0.79567019380E+00  0.63400398801E+01 -0.43503947431E+01  0.77301443169E+01  0.00000000000E+00 0. -1.
         -2    1    5    5    0  503  0.17936813492E+03  0.64873243774E+03  0.32089934695E+03  0.74565615030E+03  0.00000000000E+00 0.  1.
         -1    1    6    6    0  502  0.81070308521E+02  0.42509499015E+02 -0.24537429162E+03  0.26189309922E+03  0.00000000000E+00 0.  1.
<mgrwt>
<rscale>  0 0.22449841E+04</rscale>
<asrwt>0</asrwt>
<pdfrwt beam="1">  1        2 0.25008822E+00 0.22449841E+04</pdfrwt>
<pdfrwt beam="2">  1       -2 0.11924676E+00 0.22449841E+04</pdfrwt>
<totfact> 0.53010855E+00</totfact>
</mgrwt>
</event>
<event>
12    1  0.1496989E-007  0.1647972E+04  0.7818608E-02  0.8791607E-01
          2   -1    0    0  501    0  0.00000000000E+00  0.00000000000E+00  0.66331440579E+03  0.66331440579E+03  0.00000000000E+00 0. -1.
         -2   -1    0    0    0  501 -0.00000000000E+00 -0.00000000000E+00 -0.10235768313E+04  0.10235768313E+04  0.00000000000E+00 0.  1.
         23    2    1    2    0    0  0.40988220377E+02  0.32007756656E+02 -0.71281063134E+03  0.72024949989E+03  0.89195376821E+02 0.  0.
        254    2    1    2    0    0 -0.40988220377E+02 -0.32007756656E+02  0.35254820579E+03  0.96664173723E+03  0.89855521814E+03 0.  0.
        -24    2    4    4    0    0  0.24477492831E+03  0.26521239902E+03 -0.63729839692E+02  0.37524117857E+03  0.80573367237E+02 0.  0.
         24    2    4    4    0    0 -0.28576314868E+03 -0.29722015568E+03  0.41627804548E+03  0.59140055865E+03  0.80416487968E+02 0.  0.
         13    1    3    3    0    0  0.22918007959E+02  0.77775402258E+01 -0.39940793125E+02  0.46701093950E+02  0.00000000000E+00 0. -1.
        -13    1    3    3    0    0  0.18070212418E+02  0.24230216430E+02 -0.67286983821E+03  0.67354840594E+03  0.00000000000E+00 0.  1.
          2    1    6    6  502    0 -0.19329697248E+03 -0.14913393725E+03  0.21908338601E+03  0.32802771352E+03  0.00000000000E+00 0. -1.
          3    1    5    5  503    0  0.21288394124E+03  0.18064523306E+03 -0.42692177289E+02  0.28244449839E+03  0.00000000000E+00 0. -1.
         -4    1    5    5    0  503  0.31890987063E+02  0.84567165961E+02 -0.21037662403E+02  0.92796680188E+02  0.00000000000E+00 0.  1.
         -1    1    6    6    0  502 -0.92466176202E+02 -0.14808621843E+03  0.19719465948E+03  0.26337284514E+03  0.00000000000E+00 0.  1.
<mgrwt>
<rscale>  0 0.16479724E+04</rscale>
<asrwt>0</asrwt>
<pdfrwt beam="1">  1        2 0.10204837E+00 0.16479724E+04</pdfrwt>
<pdfrwt beam="2">  1       -2 0.15747336E+00 0.16479724E+04</pdfrwt>
<totfact> 0.11010086E+01</totfact>
</mgrwt>
</event>
<event>
12    1  0.1496989E-007  0.1411869E+04  0.7818608E-02  0.8945272E-01
          2   -1    0    0  501    0  0.00000000000E+00  0.00000000000E+00  0.24049518393E+04  0.24049518393E+04  0.00000000000E+00 0. -1.
         -2   -1    0    0    0  501 -0.00000000000E+00 -0.00000000000E+00 -0.20721548025E+03  0.20721548025E+03  0.00000000000E+00 0.  1.
         23    2    1    2    0    0  0.72674908166E+02  0.14254724646E+03  0.13538815324E+04  0.13663152900E+04  0.90669224292E+02 0.  0.
        254    2    1    2    0    0 -0.72674908166E+02 -0.14254724646E+03  0.84385482668E+03  0.12458520296E+04  0.90247157922E+03 0.  0.
        -24    2    4    4    0    0 -0.30550153447E+02  0.30993236721E+03  0.68946025343E+03  0.76034083427E+03  0.75969461467E+02 0.  0.
         24    2    4    4    0    0 -0.42124754719E+02 -0.45247961367E+03  0.15439457325E+03  0.48551119529E+03  0.73288066970E+02 0.  0.
         13    1    3    3    0    0  0.29189308302E+02  0.12315765922E+02  0.54044050171E+03  0.54136829395E+03  0.00000000000E+00 0.  1.
        -13    1    3    3    0    0  0.43485599864E+02  0.13023148054E+03  0.81344103065E+03  0.82494699603E+03  0.00000000000E+00 0. -1.
          2    1    6    6  502    0 -0.21189720946E+01 -0.32702299973E+03  0.91548951225E+02  0.33960233047E+03  0.00000000000E+00 0. -1.
          3    1    5    5  503    0 -0.52792323515E+02  0.25614403713E+03  0.54163783095E+03  0.60147180906E+03  0.00000000000E+00 0. -1.
         -4    1    5    5    0  503  0.22242170068E+02  0.53788330077E+02  0.14782242249E+03  0.15886902521E+03  0.00000000000E+00 0.  1.
         -1    1    6    6    0  502 -0.40005782624E+02 -0.12545661394E+03  0.62845622023E+02  0.14590886482E+03  0.00000000000E+00 0.  1.
<mgrwt>
<rscale>  0 0.14118686E+04</rscale>
<asrwt>0</asrwt>
<pdfrwt beam="1">  1        2 0.36999257E+00 0.14118686E+04</pdfrwt>
<pdfrwt beam="2">  1       -2 0.31879306E-01 0.14118686E+04</pdfrwt>
<totfact> 0.35239188E+01</totfact>
</mgrwt>
</event>
<event>
12    1  0.1496989E-007  0.1831673E+04  0.7818608E-02  0.8689635E-01
         -2   -1    0    0    0  501 -0.00000000000E+00  0.00000000000E+00  0.92786785759E+03  0.92786785759E+03  0.00000000000E+00 0.  1.
          2   -1    0    0  501    0  0.00000000000E+00 -0.00000000000E+00 -0.90396094697E+03  0.90396094697E+03  0.00000000000E+00 0. -1.
         23    2    1    2    0    0  0.48502677675E+03 -0.52216192774E+03  0.17669564856E+03  0.74085184460E+03  0.98671426815E+02 0.  0.
        254    2    1    2    0    0 -0.48502677675E+03  0.52216192774E+03 -0.15278873794E+03  0.10909769600E+04  0.81177723286E+03 0.  0.
        -24    2    4    4    0    0 -0.37995922372E+03  0.73258725310E+03 -0.86138511876E+02  0.83381131362E+03  0.82270094162E+02 0.  0.
         24    2    4    4    0    0 -0.10506755303E+03 -0.21042532536E+03 -0.66650226060E+02  0.25716564635E+03  0.79836763325E+02 0.  0.
         13    1    3    3    0    0  0.35052282129E+03 -0.42469957942E+03  0.10829440819E+03  0.56121623270E+03  0.00000000000E+00 0.  1.
        -13    1    3    3    0    0  0.13450395546E+03 -0.97462348320E+02  0.68401240370E+02  0.17963561189E+03  0.00000000000E+00 0. -1.
          4    1    6    6  502    0 -0.76677513159E+02 -0.66226240367E+02 -0.23739732861E+02  0.10406214900E+03  0.00000000000E+00 0. -1.
          3    1    5    5  503    0 -0.80137216151E+02  0.17270752656E+03  0.13790263896E+02  0.19089273040E+03  0.00000000000E+00 0. -1.
         -4    1    5    5    0  503 -0.29982200757E+03  0.55987972654E+03 -0.99928775772E+02  0.64291858321E+03  0.00000000000E+00 0.  1.
         -3    1    6    6    0  502 -0.28390039871E+02 -0.14419908499E+03 -0.42910493199E+02  0.15310349735E+03  0.00000000000E+00 0.  1.
<mgrwt>
<rscale>  0 0.18316728E+04</rscale>
<asrwt>0</asrwt>
<pdfrwt beam="1">  1        2 0.13907092E+00 0.18316728E+04</pdfrwt>
<pdfrwt beam="2">  1       -2 0.14274890E+00 0.18316728E+04</pdfrwt>
<totfact> 0.93668393E+00</totfact>
</mgrwt>
</event>
<event>
12    1  0.1496989E-007  0.1391620E+04  0.7818608E-02  0.8959907E-01
          1   -1    0    0  501    0  0.00000000000E+00  0.00000000000E+00  0.93872867868E+03  0.93872867868E+03  0.00000000000E+00 0. -1.
         -1   -1    0    0    0  501 -0.00000000000E+00 -0.00000000000E+00 -0.51575210110E+03  0.51575210110E+03  0.00000000000E+00 0.  1.
         23    2    1    2    0    0  0.15092991804E+02  0.35242380509E+02 -0.28455690631E+03  0.30129614498E+03  0.91306682494E+02 0.  0.
        254    2    1    2    0    0 -0.15092991804E+02 -0.35242380509E+02  0.70753348389E+03  0.11531846348E+04  0.90981390807E+03 0.  0.
        -24    2    4    4    0    0  0.25369818098E+03 -0.14252286216E+03 -0.78478458095E+02  0.31164090597E+03  0.79282107810E+02 0.  0.
         24    2    4    4    0    0 -0.26879117278E+03  0.10728048165E+03  0.78601194199E+03  0.84154372883E+03  0.81383525830E+02 0.  0.
         13    1    3    3    0    0  0.46217966463E+02  0.44177475132E+01 -0.20775589209E+03  0.21288054777E+03  0.00000000000E+00 0.  1.
        -13    1    3    3    0    0 -0.31124974660E+02  0.30824632996E+02 -0.76801014211E+02  0.88415597214E+02  0.00000000000E+00 0. -1.
          4    1    6    6  502    0 -0.25458844797E+03  0.11552958469E+03  0.69611972665E+03  0.75016333996E+03  0.00000000000E+00 0. -1.
          3    1    5    5  503    0  0.11098150105E+03 -0.55409269177E+02 -0.73870892362E+02  0.14437447636E+03  0.00000000000E+00 0. -1.
         -4    1    5    5    0  503  0.14271667993E+03 -0.87113592985E+02 -0.46075657334E+01  0.16726642961E+03  0.00000000000E+00 0.  1.
         -3    1    6    6    0  502 -0.14202724810E+02 -0.82491030358E+01  0.89892215331E+02  0.91380388870E+02  0.00000000000E+00 0.  1.
<mgrwt>
<rscale>  0 0.13916196E+04</rscale>
<asrwt>0</asrwt>
<pdfrwt beam="1">  1        1 0.14441980E+00 0.13916196E+04</pdfrwt>
<pdfrwt beam="2">  1       -1 0.79346477E-01 0.13916196E+04</pdfrwt>
<totfact> 0.26219273E+01</totfact>
</mgrwt>
</event>
<event>
12    1  0.1496989E-007  0.2535209E+04  0.7818608E-02  0.8390549E-01
         -2   -1    0    0    0  501 -0.00000000000E+00  0.00000000000E+00  0.13404095320E+04  0.13404095320E+04  0.00000000000E+00 0.  1.
          2   -1    0    0  501    0  0.00000000000E+00 -0.00000000000E+00 -0.11987536256E+04  0.11987536256E+04  0.00000000000E+00 0. -1.
         23    2    1    2    0    0 -0.47534834491E+03 -0.94878586819E+03 -0.23326101953E+03  0.10903612304E+04  0.91248215356E+02 0.  0.
        254    2    1    2    0    0  0.47534834491E+03  0.94878586819E+03  0.37491692597E+03  0.14488019273E+04  0.91231225489E+03 0.  0.
        -24    2    4    4    0    0  0.18036436739E+03  0.70729291673E+03 -0.19338844069E+03  0.75940892694E+03  0.80673751840E+02 0.  0.
         24    2    4    4    0    0  0.29498397752E+03  0.24149295146E+03  0.56830536665E+03  0.68939300034E+03  0.83410590202E+02 0.  0.
         11    1    3    3    0    0 -0.51851375073E+02 -0.14734188243E+03 -0.83645114799E+01  0.15642301770E+03  0.00000000000E+00 0.  1.
        -11    1    3    3    0    0 -0.42349696984E+03 -0.80144398576E+03 -0.22489650805E+03  0.93393821268E+03  0.00000000000E+00 0. -1.
          2    1    6    6  502    0  0.13182897117E+03  0.12450845939E+03  0.20029725927E+03  0.27018554027E+03  0.00000000000E+00 0. -1.
          1    1    5    5  503    0  0.36511067611E+02  0.28804540648E+03 -0.93714976992E+02  0.30509951026E+03  0.00000000000E+00 0. -1.
         -2    1    5    5    0  503  0.14385329978E+03  0.41924751026E+03 -0.99673463694E+02  0.45430941667E+03  0.00000000000E+00 0.  1.
         -1    1    6    6    0  502  0.16315500635E+03  0.11698449207E+03  0.36800810738E+03  0.41920746007E+03  0.00000000000E+00 0.  1.
<mgrwt>
<rscale>  0 0.25352087E+04</rscale>
<asrwt>0</asrwt>
<pdfrwt beam="1">  1        2 0.18442363E+00 0.25352087E+04</pdfrwt>
<pdfrwt beam="2">  1       -2 0.20621685E+00 0.25352087E+04</pdfrwt>
<totfact> 0.20438706E+00</totfact>
</mgrwt>
</event>
<event>
12    1  0.1496989E-007  0.2743597E+04  0.7818608E-02  0.8320996E-01
          1   -1    0    0  501    0  0.00000000000E+00  0.00000000000E+00  0.18263217172E+04  0.18263217172E+04  0.00000000000E+00 0. -1.
         -1   -1    0    0    0  501 -0.00000000000E+00 -0.00000000000E+00 -0.10303941943E+04  0.10303941943E+04  0.00000000000E+00 0.  1.
         23    2    1    2    0    0  0.74676035596E+03  0.59626945130E+03  0.10428716600E+04  0.14169700009E+04  0.83871308888E+02 0.  0.
        254    2    1    2    0    0 -0.74676035596E+03 -0.59626945130E+03 -0.24694413710E+03  0.14397459106E+04  0.10481882428E+04 0.  0.
        -24    2    4    4    0    0 -0.55940070483E+03 -0.88844005921E+03 -0.11166384456E+03  0.10587949581E+04  0.79517681263E+02 0.  0.
         24    2    4    4    0    0 -0.18735965112E+03  0.29217060791E+03 -0.13528029254E+03  0.38095095253E+03  0.79721814375E+02 0.  0.
         11    1    3    3    0    0  0.34276548690E+03  0.23086860695E+03  0.41372019802E+03  0.58476738532E+03  0.00000000000E+00 0. -1.
        -11    1    3    3    0    0  0.40399486906E+03  0.36540084435E+03  0.62915146199E+03  0.83220261560E+03  0.00000000000E+00 0.  1.
          2    1    6    6  502    0 -0.29556752225E+02  0.10406297304E+03 -0.21316280322E+02  0.11025918451E+03  0.00000000000E+00 0. -1.
          3    1    5    5  503    0 -0.76915669794E+01 -0.16914030064E+01 -0.41631840094E+01  0.89080383826E+01  0.00000000000E+00 0. -1.
         -4    1    5    5    0  503 -0.55170913786E+03 -0.88674865621E+03 -0.10750066055E+03  0.10498869197E+04  0.00000000000E+00 0.  1.
         -1    1    6    6    0  502 -0.15780289890E+03  0.18810763487E+03 -0.11396401221E+03  0.27069176802E+03  0.00000000000E+00 0.  1.
<mgrwt>
<rscale>  0 0.27435971E+04</rscale>
<asrwt>0</asrwt>
<pdfrwt beam="1">  1        1 0.28097257E+00 0.27435971E+04</pdfrwt>
<pdfrwt beam="2">  1       -1 0.15852218E+00 0.27435971E+04</pdfrwt>
<totfact> 0.10199251E+00</totfact>
</mgrwt>
</event>
<event>
12    1  0.1496989E-007  0.3871057E+04  0.7818608E-02  0.8031076E-01
          2   -1    0    0  501    0  0.00000000000E+00  0.00000000000E+00  0.19583485097E+04  0.19583485097E+04  0.00000000000E+00 0. -1.
         -2   -1    0    0    0  501 -0.00000000000E+00 -0.00000000000E+00 -0.19129744944E+04  0.19129744944E+04  0.00000000000E+00 0.  1.
         23    2    1    2    0    0  0.24317354511E+03  0.13472766380E+04  0.12324476829E+04  0.18442058086E+04  0.88769706704E+02 0.  0.
        254    2    1    2    0    0 -0.24317354511E+03 -0.13472766380E+04 -0.11870736677E+04  0.20271171955E+04  0.90872026473E+03 0.  0.
        -24    2    4    4    0    0 -0.18570741591E+03 -0.47681163285E+03  0.40113919037E+02  0.51932709881E+03  0.79088124950E+02 0.  0.
         24    2    4    4    0    0 -0.57466129201E+02 -0.87046500515E+03 -0.12271875867E+04  0.15077900967E+04  0.80186791754E+02 0.  0.
         13    1    3    3    0    0  0.11597166209E+03  0.88060548499E+03  0.80211735637E+03  0.11967905832E+04  0.00000000000E+00 0. -1.
        -13    1    3    3    0    0  0.12720188302E+03  0.46667115301E+03  0.43033032655E+03  0.64741522537E+03  0.00000000000E+00 0.  1.
          4    1    6    6  502    0 -0.32757395833E+02 -0.12817822311E+03 -0.21293001767E+03  0.25068285997E+03  0.00000000000E+00 0. -1.
          3    1    5    5  503    0 -0.11706107345E+03 -0.36679975624E+03  0.53010676825E+01  0.38506292657E+03  0.00000000000E+00 0. -1.
         -4    1    5    5    0  503 -0.68646342459E+02 -0.11001187661E+03  0.34812851354E+02  0.13426417224E+03  0.00000000000E+00 0.  1.
         -3    1    6    6    0  502 -0.24708733368E+02 -0.74228678205E+03 -0.10142575690E+04  0.12571072367E+04  0.00000000000E+00 0.  1.
<mgrwt>
<rscale>  0 0.38710571E+04</rscale>
<asrwt>0</asrwt>
<pdfrwt beam="1">  1        2 0.30128438E+00 0.38710571E+04</pdfrwt>
<pdfrwt beam="2">  1       -2 0.29430377E+00 0.38710571E+04</pdfrwt>
<totfact> 0.19347949E-01</totfact>
</mgrwt>
</event>
<event>
12    1  0.1496989E-007  0.1197437E+04  0.7818608E-02  0.9115103E-01
          1   -1    0    0  501    0  0.00000000000E+00  0.00000000000E+00  0.23832556484E+03  0.23832556484E+03  0.00000000000E+00 0. -1.
         -1   -1    0    0    0  501 -0.00000000000E+00 -0.00000000000E+00 -0.15040927380E+04  0.15040927380E+04  0.00000000000E+00 0.  1.
         23    2    1    2    0    0 -0.15754206021E+03  0.67440038869E+01 -0.59515160968E+00  0.18225695267E+03  0.91390701208E+02 0.  0.
        254    2    1    2    0    0  0.15754206021E+03 -0.67440038869E+01 -0.12651720216E+04  0.15601613502E+04  0.89920977093E+03 0.  0.
        -24    2    4    4    0    0  0.25651416189E+03  0.12448689826E+03 -0.17074536362E+02  0.29859027133E+03  0.86994869114E+02 0.  0.
         24    2    4    4    0    0 -0.98972101687E+02 -0.13123090214E+03 -0.12480974852E+04  0.12615710788E+04  0.82445302174E+02 0.  0.
         13    1    3    3    0    0 -0.14816733767E+03 -0.60986026892E+01 -0.27675999498E+02  0.15085328587E+03  0.00000000000E+00 0.  1.
        -13    1    3    3    0    0 -0.93747225326E+01  0.12842606576E+02  0.27080847888E+02  0.31403666801E+02  0.00000000000E+00 0. -1.
          4    1    6    6  502    0 -0.40974786480E+02 -0.11722437729E+03 -0.85565451584E+03  0.86461849288E+03  0.00000000000E+00 0. -1.
          1    1    5    5  503    0  0.20882906086E+03  0.12361241435E+03  0.11585635341E+02  0.24294820968E+03  0.00000000000E+00 0. -1.
         -2    1    5    5    0  503  0.47685101032E+02  0.87448390793E+00 -0.28660171703E+02  0.55642061649E+02  0.00000000000E+00 0.  1.
         -3    1    6    6    0  502 -0.57997315207E+02 -0.14006524856E+02 -0.39244296935E+03  0.39695258597E+03  0.00000000000E+00 0.  1.
<mgrwt>
<rscale>  0 0.11974368E+04</rscale>
<asrwt>0</asrwt>
<pdfrwt beam="1">  1        1 0.36665472E-01 0.11974368E+04</pdfrwt>
<pdfrwt beam="2">  1       -1 0.23139888E+00 0.11974368E+04</pdfrwt>
<totfact> 0.10841620E+01</totfact>
</mgrwt>
</event>
<event>
12    1  0.1496989E-007  0.1892645E+04  0.7818608E-02  0.8658526E-01
         -2   -1    0    0    0  501 -0.00000000000E+00  0.00000000000E+00  0.43939127351E+03  0.43939127351E+03  0.00000000000E+00 0.  1.
          2   -1    0    0  501    0  0.00000000000E+00 -0.00000000000E+00 -0.20381075861E+04  0.20381075861E+04  0.00000000000E+00 0. -1.
         23    2    1    2    0    0  0.63586251317E+03  0.18265674808E+03 -0.21138586358E+03  0.70038161555E+03  0.90364820585E+02 0.  0.
        254    2    1    2    0    0 -0.63586251317E+03 -0.18265674808E+03 -0.13873304490E+04  0.17771172440E+04  0.89206238631E+03 0.  0.
        -24    2    4    4    0    0 -0.20898960637E+03 -0.25885007328E+03 -0.12769421933E+04  0.13222073067E+04  0.83491202655E+02 0.  0.
         24    2    4    4    0    0 -0.42687290680E+03  0.76193325204E+02 -0.11038825573E+03  0.45490993735E+03  0.82046223125E+02 0.  0.
         11    1    3    3    0    0  0.33854812815E+03  0.52389657429E+02 -0.12264160544E+03  0.36386876022E+03  0.00000000000E+00 0. -1.
        -11    1    3    3    0    0  0.29731438502E+03  0.13026709065E+03 -0.88744258137E+02  0.33651285532E+03  0.00000000000E+00 0.  1.
          2    1    6    6  502    0 -0.28689947849E+03  0.15246353363E+02 -0.88864412074E+02  0.30073351290E+03  0.00000000000E+00 0. -1.
          1    1    5    5  503    0 -0.15760664394E+03 -0.22878470433E+03 -0.94589169585E+03  0.98584653747E+03  0.00000000000E+00 0. -1.
         -2    1    5    5    0  503 -0.51382962427E+02 -0.30065368956E+02 -0.33105049740E+03  0.33636076922E+03  0.00000000000E+00 0.  1.
         -1    1    6    6    0  502 -0.13997342831E+03  0.60946971840E+02 -0.21523843657E+02  0.15417642445E+03  0.00000000000E+00 0.  1.
<mgrwt>
<rscale>  0 0.18926454E+04</rscale>
<asrwt>0</asrwt>
<pdfrwt beam="1">  1        2 0.31355501E+00 0.18926454E+04</pdfrwt>
<pdfrwt beam="2">  1       -2 0.67598658E-01 0.18926454E+04</pdfrwt>
<totfact> 0.11958926E+01</totfact>
</mgrwt>
</event>
<event>
12    1  0.1496989E-007  0.1401529E+04  0.7818608E-02  0.8952713E-01
          2   -1    0    0  501    0  0.00000000000E+00  0.00000000000E+00  0.15533801872E+04  0.15533801872E+04  0.00000000000E+00 0.  1.
         -2   -1    0    0    0  501 -0.00000000000E+00 -0.00000000000E+00 -0.31613031825E+03  0.31613031825E+03  0.00000000000E+00 0. -1.
         23    2    1    2    0    0  0.22750920199E+03  0.70222418625E+02  0.79735600306E+03  0.83705746220E+03  0.90537143473E+02 0.  0.
        254    2    1    2    0    0 -0.22750920199E+03 -0.70222418625E+02  0.43989386589E+03  0.10324530432E+04  0.90319491151E+03 0.  0.
        -24    2    4    4    0    0  0.12252510102E+01  0.44012839132E+02 -0.26415561337E+03  0.27941590685E+03  0.79727220427E+02 0.  0.
         24    2    4    4    0    0 -0.22873445300E+03 -0.11423525776E+03  0.70404947926E+03  0.75303713639E+03  0.77524934187E+02 0.  0.
         11    1    3    3    0    0  0.20716899491E+03  0.71449988905E+02  0.60209180236E+03  0.64073288650E+03  0.00000000000E+00 0.  1.
        -11    1    3    3    0    0  0.20340207081E+02 -0.12275702809E+01  0.19526420069E+03  0.19632457570E+03  0.00000000000E+00 0. -1.
          2    1    6    6  502    0 -0.12796984746E+03 -0.51805451677E+02  0.27213065281E+03  0.30514779842E+03  0.00000000000E+00 0. -1.
          1    1    5    5  503    0 -0.36911176156E+02  0.35304219541E+02 -0.16848486179E+03  0.17605672806E+03  0.00000000000E+00 0. -1.
         -2    1    5    5    0  503  0.38136427166E+02  0.87086195918E+01 -0.95670751583E+02  0.10335917879E+03  0.00000000000E+00 0.  1.
         -1    1    6    6    0  502 -0.10076460554E+03 -0.62429806079E+02  0.43191882645E+03  0.44788933796E+03  0.00000000000E+00 0.  1.
<mgrwt>
<rscale>  0 0.14015286E+04</rscale>
<asrwt>0</asrwt>
<pdfrwt beam="1">  1        2 0.23898156E+00 0.14015286E+04</pdfrwt>
<pdfrwt beam="2">  1       -2 0.48635434E-01 0.14015286E+04</pdfrwt>
<totfact> 0.46139953E+01</totfact>
</mgrwt>
</event>
<event>
12    1  0.1496989E-007  0.1900037E+04  0.7818608E-02  0.8654838E-01
         -1   -1    0    0    0  501 -0.00000000000E+00  0.00000000000E+00  0.98783328853E+03  0.98783328853E+03  0.00000000000E+00 0.  1.
          1   -1    0    0  501    0  0.00000000000E+00 -0.00000000000E+00 -0.91365100358E+03  0.91365100358E+03  0.00000000000E+00 0. -1.
         23    2    1    2    0    0  0.23639918188E+03 -0.46281343260E+03 -0.48373723416E+03  0.71595577154E+03  0.92250249323E+02 0.  0.
        254    2    1    2    0    0 -0.23639918188E+03  0.46281343260E+03  0.55791951912E+03  0.11855285206E+04  0.90781211530E+03 0.  0.
        -24    2    4    4    0    0  0.23045429580E+02  0.68762026946E+03  0.34601780335E+03  0.77423016137E+03  0.79695017085E+02 0.  0.
         24    2    4    4    0    0 -0.25944461146E+03 -0.22480683686E+03  0.21190171577E+03  0.41129835920E+03  0.80089842142E+02 0.  0.
         13    1    3    3    0    0  0.19081170706E+03 -0.33698912248E+03 -0.30654280470E+03  0.49390208274E+03  0.00000000000E+00 0. -1.
        -13    1    3    3    0    0  0.45587474820E+02 -0.12582431011E+03 -0.17719442947E+03  0.22205368880E+03  0.00000000000E+00 0.  1.
          4    1    6    6  502    0 -0.13905231151E+03 -0.69325458030E+02  0.82781277495E+02  0.17605199338E+03  0.00000000000E+00 0. -1.
          1    1    5    5  503    0  0.44915826908E+02  0.28817413071E+03  0.12638898214E+03  0.31786150431E+03  0.00000000000E+00 0. -1.
         -2    1    5    5    0  503 -0.21870397328E+02  0.39944613875E+03  0.21962882121E+03  0.45636865707E+03  0.00000000000E+00 0.  1.
         -3    1    6    6    0  502 -0.12039229995E+03 -0.15548137883E+03  0.12912043827E+03  0.23524636582E+03  0.00000000000E+00 0.  1.
<mgrwt>
<rscale>  0 0.19000367E+04</rscale>
<asrwt>0</asrwt>
<pdfrwt beam="1">  1        1 0.14056169E+00 0.19000367E+04</pdfrwt>
<pdfrwt beam="2">  1       -1 0.15197435E+00 0.19000367E+04</pdfrwt>
<totfact> 0.55881691E+00</totfact>
</mgrwt>
</event>
<event>
12    1  0.1496989E-007  0.1164421E+04  0.7818608E-02  0.9144581E-01
         -1   -1    0    0    0  501 -0.00000000000E+00  0.00000000000E+00  0.69648384268E+03  0.69648384268E+03  0.00000000000E+00 0.  1.
          1   -1    0    0  501    0  0.00000000000E+00 -0.00000000000E+00 -0.48668647657E+03  0.48668647657E+03  0.00000000000E+00 0. -1.
         23    2    1    2    0    0 -0.13030122514E+03 -0.61207893517E+02 -0.11791302122E+03  0.21370751242E+03  0.10508379889E+03 0.  0.
        254    2    1    2    0    0  0.13030122514E+03  0.61207893517E+02  0.32771038732E+03  0.96946280683E+03  0.90096571542E+03 0.  0.
        -24    2    4    4    0    0 -0.34262180442E+02 -0.33629643607E+02 -0.29711332198E+03  0.31132457604E+03  0.79635517267E+02 0.  0.
         24    2    4    4    0    0  0.16456340559E+03  0.94837537125E+02  0.62482370930E+03  0.65813823079E+03  0.81645515577E+02 0.  0.
         11    1    3    3    0    0 -0.10055238925E+03 -0.69854987650E+02 -0.13168040317E+03  0.17980609240E+03  0.00000000000E+00 0. -1.
        -11    1    3    3    0    0 -0.29748835891E+02  0.86470941328E+01  0.13767381953E+02  0.33901420024E+02  0.00000000000E+00 0.  1.
          2    1    6    6  502    0  0.10648323340E+03  0.58869784181E+02  0.51187103619E+03  0.52613333688E+03  0.00000000000E+00 0. -1.
          1    1    5    5  503    0 -0.93139631565E+01 -0.43999127126E+02 -0.26743608604E+03  0.27119132215E+03  0.00000000000E+00 0. -1.
         -2    1    5    5    0  503 -0.24948217286E+02  0.10369483518E+02 -0.29677235945E+02  0.40133253887E+02  0.00000000000E+00 0.  1.
         -1    1    6    6    0  502  0.58080172187E+02  0.35967752944E+02  0.11295267311E+03  0.13200489391E+03  0.00000000000E+00 0.  1.
<mgrwt>
<rscale>  0 0.11644213E+04</rscale>
<asrwt>0</asrwt>
<pdfrwt beam="1">  1        1 0.74874842E-01 0.11644213E+04</pdfrwt>
<pdfrwt beam="2">  1       -1 0.10715136E+00 0.11644213E+04</pdfrwt>
<totfact> 0.37078013E+01</totfact>
</mgrwt>
</event>
<event>
12    1  0.1496989E-007  0.1759237E+04  0.7818608E-02  0.8728282E-01
          1   -1    0    0  501    0  0.00000000000E+00  0.00000000000E+00  0.22873116879E+04  0.22873116879E+04  0.00000000000E+00 0. -1.
         -1   -1    0    0    0  501 -0.00000000000E+00 -0.00000000000E+00 -0.33826991447E+03  0.33826991447E+03  0.00000000000E+00 0.  1.
         23    2    1    2    0    0 -0.44004926669E+03  0.21916957592E+03  0.11181059134E+04  0.12245326626E+04  0.87411373488E+02 0.  0.
        254    2    1    2    0    0  0.44004926669E+03 -0.21916957592E+03  0.83093586006E+03  0.14010489397E+04  0.10152857075E+04 0.  0.
        -24    2    4    4    0    0 -0.13748324604E+03  0.14235239867E+03 -0.10643336196E+03  0.23951327916E+03  0.82901761165E+02 0.  0.
         24    2    4    4    0    0  0.57753251273E+03 -0.36152197460E+03  0.93736922201E+03  0.11615356606E+04  0.79133375014E+02 0.  0.
         11    1    3    3    0    0 -0.44232567236E+03  0.22198574514E+03  0.11144011062E+04  0.12193520808E+04  0.00000000000E+00 0. -1.
        -11    1    3    3    0    0  0.22764056750E+01 -0.28161692141E+01  0.37048071689E+01  0.51805818205E+01  0.00000000000E+00 0.  1.
          2    1    6    6  502    0  0.47984170841E+03 -0.33122097771E+03  0.81413728852E+03  0.10013865017E+04  0.00000000000E+00 0. -1.
          1    1    5    5  503    0 -0.78307273011E+02  0.11661927045E+03 -0.38141461934E+02  0.14555704849E+03  0.00000000000E+00 0. -1.
         -2    1    5    5    0  503 -0.59175973030E+02  0.25733128225E+02 -0.68291900022E+02  0.93956230665E+02  0.00000000000E+00 0.  1.
         -1    1    6    6    0  502  0.97690804319E+02 -0.30300996891E+02  0.12323193350E+03  0.16014915889E+03  0.00000000000E+00 0.  1.
<mgrwt>
<rscale>  0 0.17592370E+04</rscale>
<asrwt>0</asrwt>
<pdfrwt beam="1">  1        1 0.35189410E+00 0.17592370E+04</pdfrwt>
<pdfrwt beam="2">  1       -1 0.52041527E-01 0.17592370E+04</pdfrwt>
<totfact> 0.66890223E+00</totfact>
</mgrwt>
</event>
<event>
12    1  0.1496989E-007  0.1401835E+04  0.7818608E-02  0.8952491E-01
         -2   -1    0    0    0  501 -0.00000000000E+00  0.00000000000E+00  0.24891111229E+03  0.24891111229E+03  0.00000000000E+00 0.  1.
          2   -1    0    0  501    0  0.00000000000E+00 -0.00000000000E+00 -0.19737384936E+04  0.19737384936E+04  0.00000000000E+00 0. -1.
         23    2    1    2    0    0 -0.18226402388E+03  0.10923097773E+03 -0.10701750524E+04  0.10947885076E+04  0.90197853543E+02 0.  0.
        254    2    1    2    0    0  0.18226402388E+03 -0.10923097773E+03 -0.65465232897E+03  0.11278610983E+04  0.89350400355E+03 0.  0.
        -24    2    4    4    0    0 -0.28551033737E+03 -0.10735618419E+03 -0.56179560468E+03  0.64429183806E+03  0.80350283893E+02 0.  0.
         24    2    4    4    0    0  0.46777436125E+03 -0.18747935421E+01 -0.92856724287E+02  0.48356926025E+03  0.80003064447E+02 0.  0.
         11    1    3    3    0    0 -0.13337186085E+03  0.28418765182E+02 -0.63982663017E+03  0.65419706217E+03  0.00000000000E+00 0. -1.
        -11    1    3    3    0    0 -0.48892163033E+02  0.80812212548E+02 -0.43034842222E+03  0.44059144546E+03  0.00000000000E+00 0.  1.
          2    1    6    6  502    0  0.23528054311E+03  0.34692791071E+02 -0.65185258976E+02  0.24659611048E+03  0.00000000000E+00 0. -1.
          3    1    5    5  503    0  0.18443053340E+01  0.28797291255E+01  0.31948319450E+00  0.34345846201E+01  0.00000000000E+00 0. -1.
         -4    1    5    5    0  503 -0.28735464270E+03 -0.11023591331E+03 -0.56211508787E+03  0.64085725344E+03  0.00000000000E+00 0.  1.
         -3    1    6    6    0  502  0.23249381814E+03 -0.36567584613E+02 -0.27671465311E+02  0.23697314977E+03  0.00000000000E+00 0.  1.
<mgrwt>
<rscale>  0 0.14018351E+04</rscale>
<asrwt>0</asrwt>
<pdfrwt beam="1">  1        2 0.30365208E+00 0.14018351E+04</pdfrwt>
<pdfrwt beam="2">  1       -2 0.38294017E-01 0.14018351E+04</pdfrwt>
<totfact> 0.43325971E+01</totfact>
</mgrwt>
</event>
<event>
12    1  0.1735680E-007  0.1131020E+04  0.7818608E-02  0.9175475E-01
         -2   -1    0    0    0  501 -0.00000000000E+00  0.00000000000E+00  0.14752814308E+03  0.14752814308E+03  0.00000000000E+00 0.  1.
          2   -1    0    0  501    0  0.00000000000E+00 -0.00000000000E+00 -0.21677310374E+04  0.21677310374E+04  0.00000000000E+00 0. -1.
         23    2    1    2    0    0  0.65769854293E+02  0.49736932980E+02  0.12642232886E+02  0.11867800103E+03  0.84410933178E+02 0.  0.
        254    2    1    2    0    0 -0.65769854293E+02 -0.49736932980E+02 -0.20328451272E+04  0.21965811794E+04  0.82807616225E+03 0.  0.
        -24    2    4    4    0    0  0.36382331390E+03 -0.76223913139E+02 -0.11451712037E+04  0.12067235150E+04  0.81160748939E+02 0.  0.
         24    2    4    4    0    0 -0.42959316819E+03  0.26486980159E+02 -0.88767392347E+03  0.98985766443E+03  0.81248699359E+02 0.  0.
         13    1    3    3    0    0  0.77243453375E+01 -0.37336846926E+01 -0.28439603134E+02  0.29705503509E+02  0.00000000000E+00 0. -1.
        -13    1    3    3    0    0  0.58045508955E+02  0.53470617672E+02  0.41081836021E+02  0.88972497520E+02  0.00000000000E+00 0.  1.
          2    1    6    6  502    0 -0.32226037762E+03  0.47338701326E+02 -0.61173858840E+03  0.69304891902E+03  0.00000000000E+00 0. -1.
          3    1    5    5  503    0  0.36777338003E+03 -0.77570358330E+02 -0.11250905008E+04  0.11862137474E+04  0.00000000000E+00 0. -1.
         -4    1    5    5    0  503 -0.39500661336E+01  0.13464451915E+01 -0.20080702921E+02  0.20509767598E+02  0.00000000000E+00 0.  1.
         -1    1    6    6    0  502 -0.10733279057E+03 -0.20851721167E+02 -0.27593533507E+03  0.29680874541E+03  0.00000000000E+00 0.  1.
<mgrwt>
<rscale>  0 0.11310196E+04</rscale>
<asrwt>0</asrwt>
<pdfrwt beam="1">  1        2 0.33349709E+00 0.11310196E+04</pdfrwt>
<pdfrwt beam="2">  1       -2 0.22696637E-01 0.11310196E+04</pdfrwt>
<totfact> 0.91443657E+01</totfact>
</mgrwt>
</event>
