<event>
12    1  0.1549527E-007  0.1387305E+04  0.7818608E-02  0.8963060E-01
         -1   -1    0    0    0  501 -0.00000000000E+00  0.00000000000E+00  0.18645955445E+04  0.18645955445E+04  0.00000000000E+00 0. -1.
          1   -1    0    0  501    0  0.00000000000E+00 -0.00000000000E+00 -0.25804720165E+03  0.25804720165E+03  0.00000000000E+00 0.  1.
         23    2    1    2    0    0  0.20146336571E+03  0.64632378161E+02 -0.43607315710E+02  0.23468736792E+03  0.91715487499E+02 0.  0.
        254    2    1    2    0    0 -0.20146336571E+03 -0.64632378161E+02  0.16501556585E+04  0.18879553782E+04  0.89252281803E+03 0.  0.
        -24    2    4    4    0    0 -0.68323148641E+02  0.38081024235E+03  0.10683324202E+04  0.11388992950E+04  0.77929139646E+02 0.  0.
         24    2    4    4    0    0 -0.13314021706E+03 -0.44544262051E+03  0.58182323831E+03  0.74905608318E+03  0.80132949158E+02 0.  0.
         13    1    3    3    0    0  0.15598980573E+03  0.50483328221E+02 -0.72189908950E+02  0.17914454743E+03  0.00000000000E+00 0.  1.
        -13    1    3    3    0    0  0.45473559978E+02  0.14149049940E+02  0.28582593240E+02  0.55542820487E+02  0.00000000000E+00 0. -1.
          2    1    6    6  502    0 -0.19689623165E+02 -0.20446575870E+03  0.25585977663E+03  0.32811301870E+03  0.00000000000E+00 0. -1.
          1    1    5    5  503    0  0.15340883946E+02  0.47317630969E+02  0.10900076613E+03  0.11981430607E+03  0.00000000000E+00 0. -1.
         -2    1    5    5    0  503 -0.83664032587E+02  0.33349261138E+03  0.95933165409E+03  0.10190849890E+04  0.00000000000E+00 0.  1.
         -1    1    6    6    0  502 -0.11345059390E+03 -0.24097686181E+03  0.32596346168E+03  0.42094306448E+03  0.00000000000E+00 0.  1.
<mgrwt>
<rscale>  0 0.13873048E+04</rscale>
<asrwt>0</asrwt>
<pdfrwt beam="1">  1        1 0.39699571E-01 0.13873048E+04</pdfrwt>
<pdfrwt beam="2">  1       -1 0.28686084E+00 0.13873048E+04</pdfrwt>
<totfact> 0.41966647E+00</totfact>
</mgrwt>
</event>
<event>
12    1  0.1549527E-007  0.1744974E+04  0.7818608E-02  0.8736122E-01
         -3   -1    0    0    0  501 -0.00000000000E+00  0.00000000000E+00  0.23174228904E+04  0.23174228904E+04  0.00000000000E+00 0.  1.
          3   -1    0    0  501    0  0.00000000000E+00 -0.00000000000E+00 -0.32848268226E+03  0.32848268226E+03  0.00000000000E+00 0. -1.
         23    2    1    2    0    0  0.52532650350E+02 -0.62909407376E+03  0.58521292194E+03  0.86538173187E+03  0.88838870117E+02 0.  0.
        254    2    1    2    0    0 -0.52532650350E+02  0.62909407376E+03  0.14037272862E+04  0.17805238408E+04  0.89515128366E+03 0.  0.
        -24    2    4    4    0    0 -0.97450443206E+02  0.54861707373E+03  0.15145768319E+04  0.16159113404E+04  0.82153501966E+02 0.  0.
         24    2    4    4    0    0  0.44917792856E+02  0.80477000032E+02 -0.11084954563E+03  0.16461250044E+03  0.79470106875E+02 0.  0.
         11    1    3    3    0    0  0.44923800784E+02 -0.40416693956E+03  0.31941725738E+03  0.51710390370E+03  0.00000000000E+00 0.  1.
        -11    1    3    3    0    0  0.76088495661E+01 -0.22492713420E+03  0.26579566456E+03  0.34827782816E+03  0.00000000000E+00 0. -1.
          2    1    6    6  502    0 -0.78009511423E+01 -0.11153677441E+02 -0.37292304956E+01  0.14112636864E+02  0.00000000000E+00 0. -1.
          1    1    5    5  503    0 -0.32985626727E+02  0.14065812797E+03  0.29881008874E+03  0.33190394644E+03  0.00000000000E+00 0. -1.
         -2    1    5    5    0  503 -0.64464816478E+02  0.40795894576E+03  0.12157667431E+04  0.12840073939E+04  0.00000000000E+00 0.  1.
         -1    1    6    6    0  502  0.52718743998E+02  0.91630677473E+02 -0.10712031513E+03  0.15049986358E+03  0.00000000000E+00 0.  1.
<mgrwt>
<rscale>  0 0.17449737E+04</rscale>
<asrwt>0</asrwt>
<pdfrwt beam="1">  1        3 0.50535799E-01 0.17449737E+04</pdfrwt>
<pdfrwt beam="2">  1       -3 0.35652659E+00 0.17449737E+04</pdfrwt>
<totfact> 0.17814272E-01</totfact>
</mgrwt>
</event>
<event>
12    1  0.1549527E-007  0.1178642E+04  0.7818608E-02  0.9131759E-01
         -1   -1    0    0    0  501 -0.00000000000E+00  0.00000000000E+00  0.47095696333E+03  0.47095696333E+03  0.00000000000E+00 0. -1.
          1   -1    0    0  501    0  0.00000000000E+00 -0.00000000000E+00 -0.73743320137E+03  0.73743320137E+03  0.00000000000E+00 0.  1.
         23    2    1    2    0    0 -0.14732699803E+03 -0.19868703890E+03  0.60859668888E+02  0.27279539577E+03  0.97630143309E+02 0.  0.
        254    2    1    2    0    0  0.14732699803E+03  0.19868703890E+03 -0.32733590693E+03  0.93559476892E+03  0.84083707809E+03 0.  0.
        -24    2    4    4    0    0  0.13580188805E+03  0.46082295924E+03 -0.42300401396E+03  0.64496519995E+03  0.79042777997E+02 0.  0.
         24    2    4    4    0    0  0.11525109977E+02 -0.26213592034E+03  0.95668107034E+02  0.29062956897E+03  0.80405788127E+02 0.  0.
         11    1    3    3    0    0 -0.41192807649E+02 -0.11106760627E+03 -0.83315701104E+01  0.11875300259E+03  0.00000000000E+00 0.  1.
        -11    1    3    3    0    0 -0.10613419038E+03 -0.87619432627E+02  0.69191238998E+02  0.15404239318E+03  0.00000000000E+00 0. -1.
          4    1    6    6  502    0 -0.34361550579E+02 -0.11714785709E+03  0.36169421377E+02  0.12732856561E+03  0.00000000000E+00 0. -1.
          3    1    5    5  503    0  0.90574835867E+01  0.16157559489E+03 -0.14558078803E+03  0.21767516330E+03  0.00000000000E+00 0. -1.
         -4    1    5    5    0  503  0.12674440447E+03  0.29924736435E+03 -0.27742322593E+03  0.42729003665E+03  0.00000000000E+00 0.  1.
         -3    1    6    6    0  502  0.45886660556E+02 -0.14498806326E+03  0.59498685658E+02  0.16330100336E+03  0.00000000000E+00 0.  1.
<mgrwt>
<rscale>  0 0.11786421E+04</rscale>
<asrwt>0</asrwt>
<pdfrwt beam="1">  1        1 0.11345126E+00 0.11786421E+04</pdfrwt>
<pdfrwt beam="2">  1       -1 0.72454917E-01 0.11786421E+04</pdfrwt>
<totfact> 0.47908833E+01</totfact>
</mgrwt>
</event>
<event>
12    1  0.1549527E-007  0.1105231E+04  0.7818608E-02  0.9200109E-01
          1   -1    0    0  501    0  0.00000000000E+00  0.00000000000E+00  0.13116328017E+04  0.13116328017E+04  0.00000000000E+00 0. -1.
         -1   -1    0    0    0  501 -0.00000000000E+00 -0.00000000000E+00 -0.23282711264E+03  0.23282711264E+03  0.00000000000E+00 0.  1.
         23    2    1    2    0    0  0.10371471746E+02  0.12936660760E+03  0.33587303095E+03  0.37132489423E+03  0.90709412771E+02 0.  0.
        254    2    1    2    0    0 -0.10371471746E+02 -0.12936660760E+03  0.74293265808E+03  0.11731350201E+04  0.89858419432E+03 0.  0.
        -24    2    4    4    0    0  0.27063388934E+03 -0.39642150731E+03  0.54390639885E+03  0.72997817842E+03  0.81493906214E+02 0.  0.
         24    2    4    4    0    0 -0.28100536108E+03  0.26705489970E+03  0.19902625923E+03  0.44315684165E+03  0.80586611945E+02 0.  0.
         11    1    3    3    0    0  0.39393641523E+02  0.11527902067E+03  0.29563139604E+03  0.31974839159E+03  0.00000000000E+00 0. -1.
        -11    1    3    3    0    0 -0.29022169778E+02  0.14087586930E+02  0.40241634905E+02  0.51576502634E+02  0.00000000000E+00 0.  1.
          4    1    6    6  502    0 -0.15932839555E+03  0.19912674703E+03  0.14733740789E+03  0.29452556896E+03  0.00000000000E+00 0. -1.
          3    1    5    5  503    0  0.12207073103E+03 -0.24317372664E+03  0.27786524981E+03  0.38890078651E+03  0.00000000000E+00 0. -1.
         -4    1    5    5    0  503  0.14856315831E+03 -0.15324778067E+03  0.26604114904E+03  0.34107739191E+03  0.00000000000E+00 0.  1.
         -3    1    6    6    0  502 -0.12167696553E+03  0.67928152675E+02  0.51688851345E+02  0.14863127269E+03  0.00000000000E+00 0.  1.
<mgrwt>
<rscale>  0 0.11052306E+04</rscale>
<asrwt>0</asrwt>
<pdfrwt beam="1">  1        1 0.20178966E+00 0.11052306E+04</pdfrwt>
<pdfrwt beam="2">  1       -1 0.35819557E-01 0.11052306E+04</pdfrwt>
<totfact> 0.65755698E+01</totfact>
</mgrwt>
</event>
<event>
12    1  0.1549527E-007  0.2133626E+04  0.7818608E-02  0.8546574E-01
         -1   -1    0    0    0  501 -0.00000000000E+00  0.00000000000E+00  0.10120540277E+04  0.10120540277E+04  0.00000000000E+00 0.  1.
          1   -1    0    0  501    0  0.00000000000E+00 -0.00000000000E+00 -0.11245349925E+04  0.11245349925E+04  0.00000000000E+00 0. -1.
         23    2    1    2    0    0 -0.28213864827E+02 -0.85049386545E+03 -0.24057099331E+03  0.88914108516E+03  0.92529071967E+02 0.  0.
        254    2    1    2    0    0  0.28213864827E+02  0.85049386545E+03  0.12809002845E+03  0.12474479350E+04  0.90309659384E+03 0.  0.
        -24    2    4    4    0    0  0.22527232617E+02  0.99975640933E+03  0.25619226165E+03  0.10354836452E+04  0.81065100061E+02 0.  0.
         24    2    4    4    0    0  0.56866322100E+01 -0.14926254387E+03 -0.12810223320E+03  0.21196428975E+03  0.78784726887E+02 0.  0.
         11    1    3    3    0    0 -0.32252237835E+02 -0.24772376450E+03 -0.34926942703E+02  0.25224425002E+03  0.00000000000E+00 0. -1.
        -11    1    3    3    0    0  0.40383730079E+01 -0.60277010096E+03 -0.20564405060E+03  0.63689683514E+03  0.00000000000E+00 0.  1.
          2    1    6    6  502    0  0.17055212176E+02 -0.17083354167E+02  0.43138326933E+01  0.24522039158E+02  0.00000000000E+00 0. -1.
          1    1    5    5  503    0  0.11202713638E+02  0.55342849110E+03  0.10014811765E+03  0.56252843574E+03  0.00000000000E+00 0. -1.
         -2    1    5    5    0  503  0.11324518979E+02  0.44632791823E+03  0.15604414400E+03  0.47295520951E+03  0.00000000000E+00 0.  1.
         -1    1    6    6    0  502 -0.11368579966E+02 -0.13217918971E+03 -0.13241606589E+03  0.18744225060E+03  0.00000000000E+00 0.  1.
<mgrwt>
<rscale>  0 0.21336262E+04</rscale>
<asrwt>0</asrwt>
<pdfrwt beam="1">  1        1 0.17300538E+00 0.21336262E+04</pdfrwt>
<pdfrwt beam="2">  1       -1 0.15570062E+00 0.21336262E+04</pdfrwt>
<totfact> 0.35125410E+00</totfact>
</mgrwt>
</event>
<event>
12    1  0.1549527E-007  0.2291223E+04  0.7818608E-02  0.8481390E-01
         -1   -1    0    0    0  501 -0.00000000000E+00  0.00000000000E+00  0.20463560609E+04  0.20463560609E+04  0.00000000000E+00 0.  1.
          1   -1    0    0  501    0  0.00000000000E+00 -0.00000000000E+00 -0.64134752051E+03  0.64134752051E+03  0.00000000000E+00 0. -1.
         23    2    1    2    0    0  0.22791668582E+03  0.40422742632E+03 -0.39857746614E+03  0.61793272286E+03  0.87355741663E+02 0.  0.
        254    2    1    2    0    0 -0.22791668582E+03 -0.40422742632E+03  0.18035860065E+04  0.20697708585E+04  0.90315175695E+03 0.  0.
        -24    2    4    4    0    0  0.15252029609E+03  0.21876820623E+03  0.44297490309E+03  0.52364190342E+03  0.82777469569E+02 0.  0.
         24    2    4    4    0    0 -0.38043698190E+03 -0.62299563254E+03  0.13606111034E+04  0.15461289551E+04  0.79976970045E+02 0.  0.
         11    1    3    3    0    0  0.21868966072E+03  0.39507159839E+03 -0.40190846412E+03  0.60451397758E+03  0.00000000000E+00 0. -1.
        -11    1    3    3    0    0  0.92270250990E+01  0.91558279265E+01  0.33309979809E+01  0.13418745275E+02  0.00000000000E+00 0.  1.
          2    1    6    6  502    0 -0.51036469548E+02 -0.46181966095E+02  0.15620541095E+03  0.17069746813E+03  0.00000000000E+00 0. -1.
          3    1    5    5  503    0  0.29500067275E+02  0.28752731557E+02  0.24668007277E+02  0.48015457138E+02  0.00000000000E+00 0. -1.
         -4    1    5    5    0  503  0.12302022881E+03  0.19001547467E+03  0.41830689582E+03  0.47562644628E+03  0.00000000000E+00 0.  1.
         -1    1    6    6    0  502 -0.32940051236E+03 -0.57681366645E+03  0.12044056925E+04  0.13754314870E+04  0.00000000000E+00 0.  1.
<mgrwt>
<rscale>  0 0.22912227E+04</rscale>
<asrwt>0</asrwt>
<pdfrwt beam="1">  1        1 0.98668850E-01 0.22912227E+04</pdfrwt>
<pdfrwt beam="2">  1       -1 0.31482401E+00 0.22912227E+04</pdfrwt>
<totfact> 0.74369487E-01</totfact>
</mgrwt>
</event>
<event>
12    1  0.1549527E-007  0.1210641E+04  0.7818608E-02  0.9103593E-01
         -1   -1    0    0    0  501 -0.00000000000E+00  0.00000000000E+00  0.19096346589E+03  0.19096346589E+03  0.00000000000E+00 0.  1.
          1   -1    0    0  501    0  0.00000000000E+00 -0.00000000000E+00 -0.19187605002E+04  0.19187605002E+04  0.00000000000E+00 0. -1.
         23    2    1    2    0    0 -0.16650665658E+03  0.16125293914E+03 -0.20508325405E+03  0.32432456759E+03  0.96955180261E+02 0.  0.
        254    2    1    2    0    0  0.16650665658E+03 -0.16125293914E+03 -0.15227137803E+04  0.17853993985E+04  0.90292124713E+03 0.  0.
        -24    2    4    4    0    0 -0.10154711324E+03 -0.39352976725E+03 -0.30308799902E+03  0.51291103716E+03  0.77703944407E+02 0.  0.
         24    2    4    4    0    0  0.26805376982E+03  0.23227682811E+03 -0.12196257813E+04  0.12724883614E+04  0.77033986651E+02 0.  0.
         11    1    3    3    0    0  0.90454584927E+01  0.31291576094E+02 -0.31693465085E+02  0.45447318764E+02  0.00000000000E+00 0. -1.
        -11    1    3    3    0    0 -0.17555211507E+03  0.12996136305E+03 -0.17338978897E+03  0.27887724882E+03  0.00000000000E+00 0.  1.
          4    1    6    6  502    0  0.15934043411E+03  0.87857628961E+02 -0.63489558020E+03  0.66045494522E+03  0.00000000000E+00 0. -1.
          1    1    5    5  503    0 -0.67432112420E+02 -0.28160549522E+03 -0.17032585313E+03  0.33594588994E+03  0.00000000000E+00 0. -1.
         -2    1    5    5    0  503 -0.34115000820E+02 -0.11192427203E+03 -0.13276214589E+03  0.17696514722E+03  0.00000000000E+00 0.  1.
         -3    1    6    6    0  502  0.10871333572E+03  0.14441919914E+03 -0.58473020106E+03  0.61203341614E+03  0.00000000000E+00 0.  1.
<mgrwt>
<rscale>  0 0.12106414E+04</rscale>
<asrwt>0</asrwt>
<pdfrwt beam="1">  1        1 0.29519392E+00 0.12106414E+04</pdfrwt>
<pdfrwt beam="2">  1       -1 0.29378995E-01 0.12106414E+04</pdfrwt>
<totfact> 0.35467519E+01</totfact>
</mgrwt>
</event>
<event>
12    1  0.1549527E-007  0.2105719E+04  0.7818608E-02  0.8558728E-01
         -2   -1    0    0    0  501 -0.00000000000E+00  0.00000000000E+00  0.84479397239E+03  0.84479397239E+03  0.00000000000E+00 0.  1.
          2   -1    0    0  501    0  0.00000000000E+00 -0.00000000000E+00 -0.13121702966E+04  0.13121702966E+04  0.00000000000E+00 0. -1.
         23    2    1    2    0    0 -0.69157394489E+03  0.40099306999E+03  0.95735908403E+02  0.81039962632E+03  0.92261729636E+02 0.  0.
        254    2    1    2    0    0  0.69157394489E+03 -0.40099306999E+03 -0.56311223265E+03  0.13465646427E+04  0.92578128465E+03 0.  0.
        -24    2    4    4    0    0  0.31090861737E+03  0.23100191838E+02  0.20868819700E+03  0.38378767493E+03  0.80897642992E+02 0.  0.
         24    2    4    4    0    0  0.38066532751E+03 -0.42409326183E+03 -0.77180042965E+03  0.96277696778E+03  0.80637461434E+02 0.  0.
         13    1    3    3    0    0 -0.71539945395E+02  0.27137535166E+02 -0.14959754550E+02  0.77962836392E+02  0.00000000000E+00 0. -1.
        -13    1    3    3    0    0 -0.62003399949E+03  0.37385553483E+03  0.11069566295E+03  0.73243678993E+03  0.00000000000E+00 0.  1.
          4    1    6    6  502    0  0.35639465657E+03 -0.36615917206E+03 -0.70914694836E+03  0.87405897105E+03  0.00000000000E+00 0. -1.
          3    1    5    5  503    0  0.12269711810E+03 -0.21620286195E+02  0.11195453538E+03  0.16749876882E+03  0.00000000000E+00 0. -1.
         -2    1    5    5    0  503  0.18821149927E+03  0.44720478033E+02  0.96733661612E+02  0.21628890610E+03  0.00000000000E+00 0.  1.
         -3    1    6    6    0  502  0.24270670945E+02 -0.57934089773E+02 -0.62653481288E+02  0.88717996728E+02  0.00000000000E+00 0.  1.
<mgrwt>
<rscale>  0 0.21057194E+04</rscale>
<asrwt>0</asrwt>
<pdfrwt beam="1">  1        2 0.20187235E+00 0.21057194E+04</pdfrwt>
<pdfrwt beam="2">  1       -2 0.12996830E+00 0.21057194E+04</pdfrwt>
<totfact> 0.65112347E+00</totfact>
</mgrwt>
</event>
<event>
12    1  0.1549527E-007  0.2218938E+04  0.7818608E-02  0.8510587E-01
         -2   -1    0    0    0  501 -0.00000000000E+00  0.00000000000E+00  0.41977099410E+03  0.41977099410E+03  0.00000000000E+00 0. -1.
          2   -1    0    0  501    0  0.00000000000E+00 -0.00000000000E+00 -0.29323648404E+04  0.29323648404E+04  0.00000000000E+00 0.  1.
         23    2    1    2    0    0 -0.30841354184E+03  0.62130464146E+03 -0.12838520826E+03  0.71145470870E+03  0.92448204647E+02 0.  0.
        254    2    1    2    0    0  0.30841354184E+03 -0.62130464146E+03 -0.23842086380E+04  0.26406811258E+04  0.89866991057E+03 0.  0.
        -24    2    4    4    0    0  0.55990427373E+03 -0.65282664513E+03 -0.19284176009E+04  0.21130289690E+04  0.80134610274E+02 0.  0.
         24    2    4    4    0    0 -0.25149073190E+03  0.31522003674E+02 -0.45579103706E+03  0.52765215679E+03  0.80187930237E+02 0.  0.
         13    1    3    3    0    0 -0.25533850804E+03  0.45795509029E+03 -0.12788102657E+03  0.53969822620E+03  0.00000000000E+00 0.  1.
        -13    1    3    3    0    0 -0.53075033803E+02  0.16334955117E+03 -0.50418168206E+00  0.17175648249E+03  0.00000000000E+00 0. -1.
          2    1    6    6  502    0 -0.22357932235E+03  0.49508639469E+02 -0.36400664637E+03  0.43004611075E+03  0.00000000000E+00 0. -1.
          1    1    5    5  503    0  0.30349589803E+03 -0.34493055039E+03 -0.11262740868E+04  0.12163799420E+04  0.00000000000E+00 0. -1.
         -2    1    5    5    0  503  0.25640837571E+03 -0.30789609474E+03 -0.80214351418E+03  0.89664902701E+03  0.00000000000E+00 0.  1.
         -1    1    6    6    0  502 -0.27911409540E+02 -0.17986635795E+02 -0.91784390696E+02  0.97606046048E+02  0.00000000000E+00 0.  1.
<mgrwt>
<rscale>  0 0.22189382E+04</rscale>
<asrwt>0</asrwt>
<pdfrwt beam="1">  1        2 0.45113305E+00 0.22189382E+04</pdfrwt>
<pdfrwt beam="2">  1       -2 0.64580153E-01 0.22189382E+04</pdfrwt>
<totfact> 0.38799933E+00</totfact>
</mgrwt>
</event>
<event>
12    1  0.1549527E-007  0.1218819E+04  0.7818608E-02  0.9096542E-01
         -2   -1    0    0    0  501 -0.00000000000E+00  0.00000000000E+00  0.38966381218E+03  0.38966381218E+03  0.00000000000E+00 0. -1.
          2   -1    0    0  501    0  0.00000000000E+00 -0.00000000000E+00 -0.95307808145E+03  0.95307808145E+03  0.00000000000E+00 0.  1.
         23    2    1    2    0    0  0.15161534203E+03 -0.16749460982E+03 -0.30528767435E+03  0.39005452849E+03  0.88883715196E+02 0.  0.
        254    2    1    2    0    0 -0.15161534203E+03  0.16749460982E+03 -0.25812659493E+03  0.95268736514E+03  0.88878693759E+03 0.  0.
        -24    2    4    4    0    0 -0.26698582923E+03  0.39316229258E+03 -0.42085320491E+03  0.63975892471E+03  0.79473519753E+02 0.  0.
         24    2    4    4    0    0  0.11537048719E+03 -0.22566768276E+03  0.16272660999E+03  0.31292844043E+03  0.84899981590E+02 0.  0.
         11    1    3    3    0    0  0.60022856353E+02 -0.92859038243E+02 -0.82780152892E+02  0.13812348816E+03  0.00000000000E+00 0. -1.
        -11    1    3    3    0    0  0.91592485682E+02 -0.74635571582E+02 -0.22250752146E+03  0.25193104033E+03  0.00000000000E+00 0.  1.
          2    1    6    6  502    0  0.77481204895E+02 -0.21249528076E+03  0.14748128915E+03  0.27001539236E+03  0.00000000000E+00 0. -1.
          3    1    5    5  503    0 -0.97884067660E+02  0.20378440193E+03 -0.22652497710E+03  0.32003583927E+03  0.00000000000E+00 0. -1.
         -4    1    5    5    0  503 -0.16910176157E+03  0.18937789065E+03 -0.19432822782E+03  0.31972308544E+03  0.00000000000E+00 0.  1.
         -1    1    6    6    0  502  0.37889282299E+02 -0.13172401992E+02  0.15245320836E+02  0.42913048071E+02  0.00000000000E+00 0.  1.
<mgrwt>
<rscale>  0 0.12188192E+04</rscale>
<asrwt>0</asrwt>
<pdfrwt beam="1">  1        2 0.14662739E+00 0.12188192E+04</pdfrwt>
<pdfrwt beam="2">  1       -2 0.59948280E-01 0.12188192E+04</pdfrwt>
<totfact> 0.69113899E+01</totfact>
</mgrwt>
</event>
<event>
12    1  0.1549527E-007  0.1706902E+04  0.7818608E-02  0.8757437E-01
          2   -1    0    0  501    0  0.00000000000E+00  0.00000000000E+00  0.20713907550E+04  0.20713907550E+04  0.00000000000E+00 0. -1.
         -2   -1    0    0    0  501 -0.00000000000E+00 -0.00000000000E+00 -0.35163763871E+03  0.35163763871E+03  0.00000000000E+00 0.  1.
         23    2    1    2    0    0 -0.56991123540E+03 -0.71105573380E+02  0.31202736204E+03  0.65984152005E+03  0.90415364423E+02 0.  0.
        254    2    1    2    0    0  0.56991123540E+03  0.71105573380E+02  0.14077257542E+04  0.17631868736E+04  0.89290611682E+03 0.  0.
        -24    2    4    4    0    0  0.35610880151E+03 -0.25056804201E+03  0.18732621202E+03  0.48061861572E+03  0.79406056909E+02 0.  0.
         24    2    4    4    0    0  0.21380243389E+03  0.32167361539E+03  0.12203995422E+04  0.12825682579E+04  0.80130506157E+02 0.  0.
         11    1    3    3    0    0 -0.22326164861E+02  0.57080828875E+01  0.33624367236E+02  0.40763193198E+02  0.00000000000E+00 0. -1.
        -11    1    3    3    0    0 -0.54758507054E+03 -0.76813656268E+02  0.27840299480E+03  0.61907832686E+03  0.00000000000E+00 0.  1.
          4    1    6    6  502    0  0.17665155291E+03  0.24805716716E+03  0.84447186453E+03  0.89770310198E+03  0.00000000000E+00 0. -1.
          1    1    5    5  503    0  0.30167769295E+03 -0.19558997053E+03  0.12296012238E+03  0.37997902402E+03  0.00000000000E+00 0. -1.
         -2    1    5    5    0  503  0.54431108564E+02 -0.54978071477E+02  0.64366089636E+02  0.10063959170E+03  0.00000000000E+00 0.  1.
         -3    1    6    6    0  502  0.37150880979E+02  0.73616448230E+02  0.37592767769E+03  0.38486515594E+03  0.00000000000E+00 0.  1.
<mgrwt>
<rscale>  0 0.17069024E+04</rscale>
<asrwt>0</asrwt>
<pdfrwt beam="1">  1        2 0.31867549E+00 0.17069024E+04</pdfrwt>
<pdfrwt beam="2">  1       -2 0.54098099E-01 0.17069024E+04</pdfrwt>
<totfact> 0.18659014E+01</totfact>
</mgrwt>
</event>
<event>
12    1  0.1549527E-007  0.1261404E+04  0.7818608E-02  0.9060745E-01
          1   -1    0    0  501    0  0.00000000000E+00  0.00000000000E+00  0.11294386660E+04  0.11294386660E+04  0.00000000000E+00 0. -1.
         -1   -1    0    0    0  501 -0.00000000000E+00 -0.00000000000E+00 -0.35219720144E+03  0.35219720144E+03  0.00000000000E+00 0.  1.
         23    2    1    2    0    0  0.24302925497E+03 -0.35625251226E+02 -0.19198265885E+02  0.26271768662E+03  0.91212017582E+02 0.  0.
        254    2    1    2    0    0 -0.24302925497E+03  0.35625251226E+02  0.79643973044E+03  0.12189181808E+04  0.88944528219E+03 0.  0.
        -24    2    4    4    0    0 -0.60295300101E+02  0.34907760374E+03  0.26496542263E+02  0.36394079566E+03  0.79121042400E+02 0.  0.
         24    2    4    4    0    0 -0.18273395487E+03 -0.31345235251E+03  0.76994318818E+03  0.85497738516E+03  0.80806810072E+02 0.  0.
         11    1    3    3    0    0  0.75970374774E+02 -0.27583373834E+02  0.33308078367E+02  0.87417209060E+02  0.00000000000E+00 0. -1.
        -11    1    3    3    0    0  0.16705888020E+03 -0.80418773921E+01 -0.52506344252E+02  0.17530047755E+03  0.00000000000E+00 0.  1.
          2    1    6    6  502    0 -0.11956414108E+03 -0.17427116623E+03  0.52886070350E+03  0.56952582638E+03  0.00000000000E+00 0. -1.
          3    1    5    5  503    0 -0.29382799296E+02  0.31068303319E+03  0.10974180966E+02  0.31226227542E+03  0.00000000000E+00 0. -1.
         -4    1    5    5    0  503 -0.30912500806E+02  0.38394570547E+02  0.15522361298E+02  0.51678520237E+02  0.00000000000E+00 0.  1.
         -1    1    6    6    0  502 -0.63169813788E+02 -0.13918118628E+03  0.24108248468E+03  0.28545155878E+03  0.00000000000E+00 0.  1.
<mgrwt>
<rscale>  0 0.12614042E+04</rscale>
<asrwt>0</asrwt>
<pdfrwt beam="1">  1        1 0.17375979E+00 0.12614042E+04</pdfrwt>
<pdfrwt beam="2">  1       -1 0.54184186E-01 0.12614042E+04</pdfrwt>
<totfact> 0.40829645E+01</totfact>
</mgrwt>
</event>
<event>
12    1  0.1549527E-007  0.2641755E+04  0.7818608E-02  0.8354155E-01
          2   -1    0    0  501    0  0.00000000000E+00  0.00000000000E+00  0.21084453149E+04  0.21084453149E+04  0.00000000000E+00 0. -1.
         -2   -1    0    0    0  501 -0.00000000000E+00 -0.00000000000E+00 -0.82749006911E+03  0.82749006911E+03  0.00000000000E+00 0.  1.
         23    2    1    2    0    0 -0.36967392323E+03  0.34103215094E+03  0.17303344607E+04  0.18042134192E+04  0.90371337175E+02 0.  0.
        254    2    1    2    0    0  0.36967392323E+03 -0.34103215094E+03 -0.44937921490E+03  0.11317219648E+04  0.90878555746E+03 0.  0.
        -24    2    4    4    0    0  0.17198995385E+03 -0.62410589988E+03 -0.15263318577E+03  0.67075670715E+03  0.86769535565E+02 0.  0.
         24    2    4    4    0    0  0.19768396938E+03  0.28307374893E+03 -0.29674602913E+03  0.46096525769E+03  0.72256929845E+02 0.  0.
         11    1    3    3    0    0 -0.77851098086E+02  0.81838701488E+02  0.53411228199E+03  0.54592517464E+03  0.00000000000E+00 0.  1.
        -11    1    3    3    0    0 -0.29182282514E+03  0.25919344946E+03  0.11962221787E+04  0.12582882445E+04  0.00000000000E+00 0. -1.
          2    1    6    6  502    0  0.22481682304E+02  0.33826925728E+02 -0.83800923319E+01  0.41471832500E+02  0.00000000000E+00 0. -1.
          3    1    5    5  503    0 -0.37359471505E+01 -0.86294016482E+02 -0.32936434747E+02  0.92441458857E+02  0.00000000000E+00 0. -1.
         -4    1    5    5    0  503  0.17572590100E+03 -0.53781188340E+03 -0.11969675102E+03  0.57831524829E+03  0.00000000000E+00 0.  1.
         -1    1    6    6    0  502  0.17520228707E+03  0.24924682321E+03 -0.28836593680E+03  0.41949342519E+03  0.00000000000E+00 0.  1.
<mgrwt>
<rscale>  0 0.26417551E+04</rscale>
<asrwt>0</asrwt>
<pdfrwt beam="1">  1        2 0.32437620E+00 0.26417551E+04</pdfrwt>
<pdfrwt beam="2">  1       -2 0.12730616E+00 0.26417551E+04</pdfrwt>
<totfact> 0.23461247E+00</totfact>
</mgrwt>
</event>
<event>
12    1  0.1549527E-007  0.1761609E+04  0.7818608E-02  0.8726986E-01
         -2   -1    0    0    0  501 -0.00000000000E+00  0.00000000000E+00  0.56992363309E+03  0.56992363309E+03  0.00000000000E+00 0.  1.
          2   -1    0    0  501    0  0.00000000000E+00 -0.00000000000E+00 -0.13612642357E+04  0.13612642357E+04  0.00000000000E+00 0. -1.
         23    2    1    2    0    0  0.22891628843E+03  0.53547314123E+03 -0.59439919779E+03  0.83721084402E+03  0.92073008580E+02 0.  0.
        254    2    1    2    0    0 -0.22891628843E+03 -0.53547314123E+03 -0.19694140479E+03  0.10939770247E+04  0.90491196347E+03 0.  0.
        -24    2    4    4    0    0 -0.55476711298E+03 -0.19584651891E+03 -0.15948237524E+03  0.61515609281E+03  0.82825007709E+02 0.  0.
         24    2    4    4    0    0  0.32585082455E+03 -0.33962662232E+03 -0.37459029543E+02  0.47882093192E+03  0.79632301889E+02 0.  0.
         11    1    3    3    0    0  0.19248111415E+03  0.50727711954E+03 -0.55986798095E+03  0.77963530667E+03  0.00000000000E+00 0. -1.
        -11    1    3    3    0    0  0.36435174277E+02  0.28196021694E+02 -0.34531216846E+02  0.57575537348E+02  0.00000000000E+00 0.  1.
          4    1    6    6  502    0  0.15229231802E+03 -0.16655493845E+03 -0.57511839652E+02  0.23289720769E+03  0.00000000000E+00 0. -1.
          3    1    5    5  503    0 -0.12254910531E+03 -0.79776881911E+02 -0.48598303223E+02  0.15409227487E+03  0.00000000000E+00 0. -1.
         -4    1    5    5    0  503 -0.43221800767E+03 -0.11606963700E+03 -0.11088407202E+03  0.46106381794E+03  0.00000000000E+00 0.  1.
         -1    1    6    6    0  502  0.17355850653E+03 -0.17307168387E+03  0.20052810109E+02  0.24592372423E+03  0.00000000000E+00 0.  1.
<mgrwt>
<rscale>  0 0.17616091E+04</rscale>
<asrwt>0</asrwt>
<pdfrwt beam="1">  1        2 0.20942527E+00 0.17616091E+04</pdfrwt>
<pdfrwt beam="2">  1       -2 0.87680559E-01 0.17616091E+04</pdfrwt>
<totfact> 0.16189405E+01</totfact>
</mgrwt>
</event>
<event>
12    1  0.1549527E-007  0.1129295E+04  0.7818608E-02  0.9177100E-01
         -2   -1    0    0    0  501 -0.00000000000E+00  0.00000000000E+00  0.27597364291E+03  0.27597364291E+03  0.00000000000E+00 0.  1.
          2   -1    0    0  501    0  0.00000000000E+00 -0.00000000000E+00 -0.11552792960E+04  0.11552792960E+04  0.00000000000E+00 0. -1.
         23    2    1    2    0    0 -0.14455574189E+03 -0.98141855388E+02 -0.25585787256E+03  0.32247174696E+03  0.89423656528E+02 0.  0.
        254    2    1    2    0    0  0.14455574189E+03  0.98141855388E+02 -0.62344778058E+03  0.11087811920E+04  0.90010022237E+03 0.  0.
        -24    2    4    4    0    0  0.49825063064E+03  0.10234856860E+03 -0.20252502178E+03  0.55325314204E+03  0.79647563057E+02 0.  0.
         24    2    4    4    0    0 -0.35369488875E+03 -0.42067132125E+01 -0.42092275880E+03  0.55552804995E+03  0.79483801141E+02 0.  0.
         13    1    3    3    0    0 -0.69398352332E+02 -0.37007824754E+02 -0.18913787102E+03  0.20483858195E+03  0.00000000000E+00 0. -1.
        -13    1    3    3    0    0 -0.75157389557E+02 -0.61134030634E+02 -0.66720001537E+02  0.11763316502E+03  0.00000000000E+00 0.  1.
          4    1    6    6  502    0 -0.23954661454E+03  0.56658886458E+00 -0.22454255757E+03  0.32833254746E+03  0.00000000000E+00 0. -1.
          3    1    5    5  503    0  0.46202118774E+03  0.11533783033E+03 -0.19100741803E+03  0.51307916228E+03  0.00000000000E+00 0. -1.
         -4    1    5    5    0  503  0.36229442898E+02 -0.12989261734E+02 -0.11517603752E+02  0.40173979754E+02  0.00000000000E+00 0.  1.
         -3    1    6    6    0  502 -0.11414827421E+03 -0.47733020771E+01 -0.19638020124E+03  0.22719550250E+03  0.00000000000E+00 0.  1.
<mgrwt>
<rscale>  0 0.11292947E+04</rscale>
<asrwt>0</asrwt>
<pdfrwt beam="1">  1        2 0.17773528E+00 0.11292947E+04</pdfrwt>
<pdfrwt beam="2">  1       -2 0.42457484E-01 0.11292947E+04</pdfrwt>
<totfact> 0.10496866E+02</totfact>
</mgrwt>
</event>
<event>
12    1  0.1549527E-007  0.2132716E+04  0.7818608E-02  0.8546967E-01
         -1   -1    0    0    0  501 -0.00000000000E+00  0.00000000000E+00  0.16965687184E+04  0.16965687184E+04  0.00000000000E+00 0.  1.
          1   -1    0    0  501    0  0.00000000000E+00 -0.00000000000E+00 -0.67024661051E+03  0.67024661051E+03  0.00000000000E+00 0. -1.
         23    2    1    2    0    0  0.85662199532E+03 -0.10133372994E+03  0.56488131717E+03  0.10351853971E+04  0.91913742933E+02 0.  0.
        254    2    1    2    0    0 -0.85662199532E+03  0.10133372994E+03  0.46144079072E+03  0.13316299318E+04  0.90346051621E+03 0.  0.
        -24    2    4    4    0    0 -0.10198075652E+01  0.15834574247E+03 -0.18324907451E+03  0.25567696557E+03  0.81951651893E+02 0.  0.
         24    2    4    4    0    0 -0.85560218776E+03 -0.57012012532E+02  0.64468986524E+03  0.10759529663E+04  0.82123626486E+02 0.  0.
         11    1    3    3    0    0  0.43936519760E+03 -0.90920488075E+02  0.26305552999E+03  0.52010241671E+03  0.00000000000E+00 0.  1.
        -11    1    3    3    0    0  0.41725679772E+03 -0.10413241865E+02  0.30182578719E+03  0.51508298036E+03  0.00000000000E+00 0. -1.
          2    1    6    6  502    0 -0.53780258742E+03 -0.67830185228E+02  0.37671079898E+03  0.66010876614E+03  0.00000000000E+00 0. -1.
          1    1    5    5  503    0 -0.85606367708E+01  0.16557319770E+03 -0.16102537875E+03  0.23112105248E+03  0.00000000000E+00 0. -1.
         -2    1    5    5    0  503  0.75408292056E+01 -0.72274552312E+01 -0.22223695766E+02  0.24555913091E+02  0.00000000000E+00 0.  1.
         -1    1    6    6    0  502 -0.31779960033E+03  0.10818172696E+02  0.26797906626E+03  0.41584420014E+03  0.00000000000E+00 0.  1.
<mgrwt>
<rscale>  0 0.21327160E+04</rscale>
<asrwt>0</asrwt>
<pdfrwt beam="1">  1        1 0.10311486E+00 0.21327160E+04</pdfrwt>
<pdfrwt beam="2">  1       -1 0.26101057E+00 0.21327160E+04</pdfrwt>
<totfact> 0.15769041E+00</totfact>
</mgrwt>
</event>
<event>
12    1  0.1549527E-007  0.1366677E+04  0.7818608E-02  0.8978299E-01
          1   -1    0    0  501    0  0.00000000000E+00  0.00000000000E+00  0.12909823378E+04  0.12909823378E+04  0.00000000000E+00 0. -1.
         -1   -1    0    0    0  501 -0.00000000000E+00 -0.00000000000E+00 -0.36170229961E+03  0.36170229961E+03  0.00000000000E+00 0.  1.
         23    2    1    2    0    0 -0.37927568949E+03  0.58394043870E+02  0.23262023470E+03  0.45956025373E+03  0.99113774116E+02 0.  0.
        254    2    1    2    0    0  0.37927568949E+03 -0.58394043870E+02  0.69665980346E+03  0.11931243836E+04  0.88935426018E+03 0.  0.
        -24    2    4    4    0    0  0.91805208020E+01  0.29554845453E+03  0.58911504648E+03  0.66375730796E+03  0.78000352196E+02 0.  0.
         24    2    4    4    0    0  0.37009516868E+03 -0.35394249840E+03  0.10754475698E+03  0.52936707568E+03  0.80111796891E+02 0.  0.
         11    1    3    3    0    0 -0.33920673990E+03  0.51158052863E+02  0.16508089256E+03  0.38069680831E+03  0.00000000000E+00 0. -1.
        -11    1    3    3    0    0 -0.40068949582E+02  0.72359910066E+01  0.67539342139E+02  0.78863445417E+02  0.00000000000E+00 0.  1.
          2    1    6    6  502    0 -0.30313701641E+01 -0.31566700876E+01 -0.31765610017E+01  0.54078009311E+01  0.00000000000E+00 0. -1.
          3    1    5    5  503    0  0.43850074332E+01  0.69163631930E+01  0.64042474852E+02  0.64563944699E+02  0.00000000000E+00 0. -1.
         -4    1    5    5    0  503  0.47955133688E+01  0.28863209134E+03  0.52507257163E+03  0.59919336326E+03  0.00000000000E+00 0.  1.
         -1    1    6    6    0  502  0.37312653885E+03 -0.35078582832E+03  0.11072131798E+03  0.52395927475E+03  0.00000000000E+00 0.  1.
<mgrwt>
<rscale>  0 0.13666767E+04</rscale>
<asrwt>0</asrwt>
<pdfrwt beam="1">  1        1 0.19861266E+00 0.13666767E+04</pdfrwt>
<pdfrwt beam="2">  1       -1 0.55646508E-01 0.13666767E+04</pdfrwt>
<totfact> 0.29309936E+01</totfact>
</mgrwt>
</event>
<event>
12    1  0.1549527E-007  0.1319397E+04  0.7818608E-02  0.9014323E-01
         -2   -1    0    0    0  501 -0.00000000000E+00  0.00000000000E+00  0.24832877402E+03  0.24832877402E+03  0.00000000000E+00 0.  1.
          2   -1    0    0  501    0  0.00000000000E+00 -0.00000000000E+00 -0.17525239664E+04  0.17525239664E+04  0.00000000000E+00 0. -1.
         23    2    1    2    0    0 -0.11906599308E+03 -0.11951576241E+03  0.42768110488E+02  0.19654789936E+03  0.91330374438E+02 0.  0.
        254    2    1    2    0    0  0.11906599308E+03  0.11951576241E+03 -0.15469633029E+04  0.18043048411E+04  0.91321397868E+03 0.  0.
        -24    2    4    4    0    0 -0.11366234476E+03 -0.27745333611E+03 -0.17528749814E+03  0.35531328739E+03  0.74982283651E+02 0.  0.
         24    2    4    4    0    0  0.23272833783E+03  0.39696909852E+03 -0.13716758048E+04  0.14489915537E+04  0.79593120902E+02 0.  0.
         13    1    3    3    0    0 -0.75596801376E+02 -0.60506628206E+02  0.68786583944E+02  0.11877509236E+03  0.00000000000E+00 0.  1.
        -13    1    3    3    0    0 -0.43469191702E+02 -0.59009134208E+02 -0.26018473456E+02  0.77772806997E+02  0.00000000000E+00 0. -1.
          4    1    6    6  502    0  0.23217067513E+03  0.40069347489E+03 -0.13633193770E+04  0.14398257557E+04  0.00000000000E+00 0. -1.
          1    1    5    5  503    0 -0.98820357116E+02 -0.26171883181E+03 -0.13737252749E+03  0.31166235129E+03  0.00000000000E+00 0. -1.
         -2    1    5    5    0  503 -0.14841987640E+02 -0.15734504293E+02 -0.37914970657E+02  0.43650936100E+02  0.00000000000E+00 0.  1.
         -3    1    6    6    0  502  0.55766270150E+00 -0.37243763724E+01 -0.83564277976E+01  0.91657979788E+01  0.00000000000E+00 0.  1.
<mgrwt>
<rscale>  0 0.13193970E+04</rscale>
<asrwt>0</asrwt>
<pdfrwt beam="1">  1        2 0.26961908E+00 0.13193970E+04</pdfrwt>
<pdfrwt beam="2">  1       -2 0.38204426E-01 0.13193970E+04</pdfrwt>
<totfact> 0.58059162E+01</totfact>
</mgrwt>
</event>
<event>
12    1  0.1549527E-007  0.2749440E+04  0.7818608E-02  0.8319139E-01
          2   -1    0    0  501    0  0.00000000000E+00  0.00000000000E+00  0.20112488455E+04  0.20112488455E+04  0.00000000000E+00 0. -1.
         -2   -1    0    0    0  501 -0.00000000000E+00 -0.00000000000E+00 -0.93964255038E+03  0.93964255038E+03  0.00000000000E+00 0.  1.
         23    2    1    2    0    0 -0.81410842373E+03  0.89792891790E+03  0.30923877622E+03  0.12542762873E+04  0.92366211379E+02 0.  0.
        254    2    1    2    0    0  0.81410842373E+03 -0.89792891790E+03  0.76236751891E+03  0.16966151086E+04  0.91008226308E+03 0.  0.
        -24    2    4    4    0    0  0.84514997706E+03 -0.10308697085E+04  0.58138693935E+03  0.14563932686E+04  0.78100831726E+02 0.  0.
         24    2    4    4    0    0 -0.31041553335E+02  0.13294079062E+03  0.18098057956E+03  0.24022183997E+03  0.79471569597E+02 0.  0.
         11    1    3    3    0    0 -0.60488046448E+03  0.70680358592E+03  0.20726714842E+03  0.95310616208E+03  0.00000000000E+00 0. -1.
        -11    1    3    3    0    0 -0.20922795924E+03  0.19112533198E+03  0.10197162780E+03  0.30117012522E+03  0.00000000000E+00 0.  1.
          4    1    6    6  502    0  0.74667449682E+01 -0.80953896265E+01  0.19472399565E+02  0.22371007095E+02  0.00000000000E+00 0. -1.
          1    1    5    5  503    0  0.47764996845E+02 -0.88123572032E+02  0.35156060765E+02  0.10622244339E+03  0.00000000000E+00 0. -1.
         -2    1    5    5    0  503  0.79738498022E+03 -0.94274613649E+03  0.54623087858E+03  0.13501708252E+04  0.00000000000E+00 0.  1.
         -3    1    6    6    0  502 -0.38508298303E+02  0.14103618025E+03  0.16150818000E+03  0.21785083287E+03  0.00000000000E+00 0.  1.
<mgrwt>
<rscale>  0 0.27494399E+04</rscale>
<asrwt>0</asrwt>
<pdfrwt beam="1">  1        2 0.30942290E+00 0.27494399E+04</pdfrwt>
<pdfrwt beam="2">  1       -2 0.14456039E+00 0.27494399E+04</pdfrwt>
<totfact> 0.19007293E+00</totfact>
</mgrwt>
</event>
<event>
12    1  0.1549527E-007  0.1914344E+04  0.7818608E-02  0.8647749E-01
          1   -1    0    0  501    0  0.00000000000E+00  0.00000000000E+00  0.12313736555E+04  0.12313736555E+04  0.00000000000E+00 0. -1.
         -1   -1    0    0    0  501 -0.00000000000E+00 -0.00000000000E+00 -0.74402968280E+03  0.74402968280E+03  0.00000000000E+00 0.  1.
         23    2    1    2    0    0  0.21020286134E+03 -0.55687389028E+03 -0.26896587787E+03  0.65980356815E+03  0.93297012283E+02 0.  0.
        254    2    1    2    0    0 -0.21020286134E+03  0.55687389028E+03  0.75630985061E+03  0.13155997702E+04  0.89694168852E+03 0.  0.
        -24    2    4    4    0    0 -0.40941232999E+03  0.11225240078E+02  0.55667337990E+03  0.69583045685E+03  0.80933990531E+02 0.  0.
         24    2    4    4    0    0  0.19920946864E+03  0.54564865020E+03  0.19963647071E+03  0.61976931335E+03  0.82718918423E+02 0.  0.
         11    1    3    3    0    0  0.12876222216E+02 -0.16665097555E+01 -0.29886306210E+01  0.13323147763E+02  0.00000000000E+00 0. -1.
        -11    1    3    3    0    0  0.19732663913E+03 -0.55520738052E+03 -0.26597724724E+03  0.64648042039E+03  0.00000000000E+00 0.  1.
          4    1    6    6  502    0  0.16495672127E+03  0.51310817976E+03  0.19050663918E+03  0.57164980854E+03  0.00000000000E+00 0. -1.
          1    1    5    5  503    0 -0.61970707741E+02 -0.23545574446E+02  0.11576518866E+03  0.13340292950E+03  0.00000000000E+00 0. -1.
         -2    1    5    5    0  503 -0.34744162225E+03  0.34770814524E+02  0.44090819124E+03  0.56242752734E+03  0.00000000000E+00 0.  1.
         -3    1    6    6    0  502  0.34252747377E+02  0.32540470438E+02  0.91298315329E+01  0.48119504809E+02  0.00000000000E+00 0.  1.
<mgrwt>
<rscale>  0 0.19143443E+04</rscale>
<asrwt>0</asrwt>
<pdfrwt beam="1">  1        1 0.18944210E+00 0.19143443E+04</pdfrwt>
<pdfrwt beam="2">  1       -1 0.11446611E+00 0.19143443E+04</pdfrwt>
<totfact> 0.65758916E+00</totfact>
</mgrwt>
</event>
<event>
12    1  0.1549527E-007  0.1945303E+04  0.7818608E-02  0.8632629E-01
          1   -1    0    0  501    0  0.00000000000E+00  0.00000000000E+00  0.15009897268E+04  0.15009897268E+04  0.00000000000E+00 0. -1.
         -1   -1    0    0    0  501 -0.00000000000E+00 -0.00000000000E+00 -0.63028501245E+03  0.63028501245E+03  0.00000000000E+00 0.  1.
         23    2    1    2    0    0 -0.28996968975E+03 -0.45838165723E+02  0.11147357963E+04  0.11575340357E+04  0.10519310758E+03 0.  0.
        254    2    1    2    0    0  0.28996968975E+03  0.45838165723E+02 -0.24403108197E+03  0.97374070350E+03  0.89578804987E+03 0.  0.
        -24    2    4    4    0    0  0.55959818524E+03 -0.15716995953E+03 -0.88413288653E+02  0.59353768560E+03  0.81348322110E+02 0.  0.
         24    2    4    4    0    0 -0.26962849549E+03  0.20300812525E+03 -0.15561779332E+03  0.38020301791E+03  0.80159919712E+02 0.  0.
         13    1    3    3    0    0 -0.52027954525E+02 -0.46840465215E+02  0.18410376979E+03  0.19696480723E+03  0.00000000000E+00 0.  1.
        -13    1    3    3    0    0 -0.23794173523E+03  0.10022994914E+01  0.93063202648E+03  0.96056922847E+03  0.00000000000E+00 0. -1.
          4    1    6    6  502    0 -0.55963578454E+01 -0.60262451933E+01  0.18730970968E+01  0.84346514450E+01  0.00000000000E+00 0. -1.
          1    1    5    5  503    0  0.18065542432E+02 -0.16321499225E+02  0.82369336170E+01  0.25702183481E+02  0.00000000000E+00 0. -1.
         -2    1    5    5    0  503  0.54153264281E+03 -0.14084846030E+03 -0.96650222270E+02  0.56783550212E+03  0.00000000000E+00 0.  1.
         -3    1    6    6    0  502 -0.26403213765E+03  0.20903437044E+03 -0.15749089042E+03  0.37176836646E+03  0.00000000000E+00 0.  1.
<mgrwt>
<rscale>  0 0.19453034E+04</rscale>
<asrwt>0</asrwt>
<pdfrwt beam="1">  1        1 0.23092150E+00 0.19453034E+04</pdfrwt>
<pdfrwt beam="2">  1       -1 0.96966925E-01 0.19453034E+04</pdfrwt>
<totfact> 0.62231388E+00</totfact>
</mgrwt>
</event>
<event>
12    1  0.1549527E-007  0.2181774E+04  0.7818608E-02  0.8526053E-01
         -1   -1    0    0    0  501 -0.00000000000E+00  0.00000000000E+00  0.79913740264E+03  0.79913740264E+03  0.00000000000E+00 0.  1.
          1   -1    0    0  501    0  0.00000000000E+00 -0.00000000000E+00 -0.14891491773E+04  0.14891491773E+04  0.00000000000E+00 0. -1.
         23    2    1    2    0    0 -0.12793544047E+03 -0.21300142357E+03  0.62299835370E+03  0.67694791135E+03  0.91621190772E+02 0.  0.
        254    2    1    2    0    0  0.12793544047E+03  0.21300142357E+03 -0.13130101284E+04  0.16113386686E+04  0.90037748995E+03 0.  0.
        -24    2    4    4    0    0 -0.14950544869E+03  0.14966946304E+03 -0.12962779356E+04  0.13158264679E+04  0.79435382287E+02 0.  0.
         24    2    4    4    0    0  0.27744088915E+03  0.63331960530E+02 -0.16732192811E+02  0.29551220075E+03  0.77865976640E+02 0.  0.
         11    1    3    3    0    0 -0.13876454176E+03 -0.18502765602E+03  0.50921546343E+03  0.55927740858E+03  0.00000000000E+00 0.  1.
        -11    1    3    3    0    0  0.10829101297E+02 -0.27973767545E+02  0.11378289026E+03  0.11767050277E+03  0.00000000000E+00 0. -1.
          4    1    6    6  502    0  0.43178192540E+02 -0.16177726176E+02 -0.13714847054E+02  0.48105843356E+02  0.00000000000E+00 0. -1.
          3    1    5    5  503    0 -0.78051227320E+02  0.50762480515E+02 -0.36946368578E+03  0.38101474857E+03  0.00000000000E+00 0. -1.
         -4    1    5    5    0  503 -0.71454221366E+02  0.98906982523E+02 -0.92681424979E+03  0.93481171931E+03  0.00000000000E+00 0.  1.
         -3    1    6    6    0  502  0.23426269661E+03  0.79509686705E+02 -0.30173457564E+01  0.24740635740E+03  0.00000000000E+00 0.  1.
<mgrwt>
<rscale>  0 0.21817743E+04</rscale>
<asrwt>0</asrwt>
<pdfrwt beam="1">  1        1 0.22909987E+00 0.21817743E+04</pdfrwt>
<pdfrwt beam="2">  1       -1 0.12294422E+00 0.21817743E+04</pdfrwt>
<totfact> 0.35446277E+00</totfact>
</mgrwt>
</event>
<event>
12    1  0.1549527E-007  0.1803196E+04  0.7818608E-02  0.8704602E-01
          2   -1    0    0  501    0  0.00000000000E+00  0.00000000000E+00  0.17855868499E+04  0.17855868499E+04  0.00000000000E+00 0.  1.
         -2   -1    0    0    0  501 -0.00000000000E+00 -0.00000000000E+00 -0.45524485827E+03  0.45524485827E+03  0.00000000000E+00 0. -1.
         23    2    1    2    0    0  0.58951260872E+03  0.25770159526E+03  0.24516346968E+03  0.69720069853E+03  0.10976547331E+03 0.  0.
        254    2    1    2    0    0 -0.58951260872E+03 -0.25770159526E+03  0.10851785219E+04  0.15436310096E+04  0.88952180486E+03 0.  0.
        -24    2    4    4    0    0 -0.26720327821E+03  0.16815809560E+03 -0.63092535616E+01  0.32577780315E+03  0.80103890942E+02 0.  0.
         24    2    4    4    0    0 -0.32230933051E+03 -0.42585969086E+03  0.10914877755E+04  0.12178532064E+04  0.81123902709E+02 0.  0.
         11    1    3    3    0    0  0.56271138471E+03  0.21763027562E+03  0.23747358076E+03  0.64838317445E+03  0.00000000000E+00 0. -1.
        -11    1    3    3    0    0  0.26801224010E+02  0.40071319641E+02  0.76898889207E+01  0.48817524085E+02  0.00000000000E+00 0.  1.
          4    1    6    6  502    0 -0.30663330638E+03 -0.36231993029E+03  0.96680155408E+03  0.10770352647E+04  0.00000000000E+00 0. -1.
          1    1    5    5  503    0 -0.23831717247E+03  0.17522127452E+03 -0.88509447670E+01  0.29593227090E+03  0.00000000000E+00 0. -1.
         -2    1    5    5    0  503 -0.28886105738E+02 -0.70631789152E+01  0.25416912054E+01  0.29845532250E+02  0.00000000000E+00 0.  1.
         -3    1    6    6    0  502 -0.15676024129E+02 -0.63539760575E+02  0.12468622141E+03  0.14081794174E+03  0.00000000000E+00 0.  1.
<mgrwt>
<rscale>  0 0.18031963E+04</rscale>
<asrwt>0</asrwt>
<pdfrwt beam="1">  1        2 0.27470567E+00 0.18031963E+04</pdfrwt>
<pdfrwt beam="2">  1       -2 0.70037671E-01 0.18031963E+04</pdfrwt>
<totfact> 0.15401028E+01</totfact>
</mgrwt>
</event>
<event>
12    1  0.1549527E-007  0.1462832E+04  0.7818608E-02  0.8909552E-01
         -2   -1    0    0    0  501 -0.00000000000E+00  0.00000000000E+00  0.29662445104E+03  0.29662445104E+03  0.00000000000E+00 0.  1.
          2   -1    0    0  501    0  0.00000000000E+00 -0.00000000000E+00 -0.18035248997E+04  0.18035248997E+04  0.00000000000E+00 0. -1.
         23    2    1    2    0    0  0.31232099999E+03 -0.27670199865E+03 -0.51129696151E+03  0.66884095207E+03  0.10869789887E+03 0.  0.
        254    2    1    2    0    0 -0.31232099999E+03  0.27670199865E+03 -0.99560348715E+03  0.14313083987E+04  0.93984521353E+03 0.  0.
        -24    2    4    4    0    0 -0.20642611414E+03  0.32612012550E+03 -0.11536532526E+04  0.12191524453E+04  0.80316752694E+02 0.  0.
         24    2    4    4    0    0 -0.10589488586E+03 -0.49418126853E+02  0.15804976541E+03  0.21215595342E+03  0.79840729676E+02 0.  0.
         13    1    3    3    0    0  0.21312223014E+03 -0.14976611102E+03 -0.38156754761E+03  0.46200082941E+03  0.00000000000E+00 0. -1.
        -13    1    3    3    0    0  0.99198769859E+02 -0.12693588762E+03 -0.12972941390E+03  0.20684012265E+03  0.00000000000E+00 0.  1.
          2    1    6    6  502    0 -0.10674764500E+03 -0.63909252293E+02  0.15200731078E+03  0.19643236692E+03  0.00000000000E+00 0. -1.
          3    1    5    5  503    0 -0.19874323382E+03  0.31722619504E+03 -0.10480494862E+04  0.11128966966E+04  0.00000000000E+00 0. -1.
         -4    1    5    5    0  503 -0.76828803173E+01  0.88939304568E+01 -0.10560376634E+03  0.10625574862E+03  0.00000000000E+00 0.  1.
         -1    1    6    6    0  502  0.85275914381E+00  0.14491125440E+02  0.60424546264E+01  0.15723586506E+02  0.00000000000E+00 0.  1.
<mgrwt>
<rscale>  0 0.14628323E+04</rscale>
<asrwt>0</asrwt>
<pdfrwt beam="1">  1        2 0.27746537E+00 0.14628323E+04</pdfrwt>
<pdfrwt beam="2">  1       -2 0.45634531E-01 0.14628323E+04</pdfrwt>
<totfact> 0.37896752E+01</totfact>
</mgrwt>
</event>
<event>
12    1  0.1549527E-007  0.1508875E+04  0.7818608E-02  0.8878573E-01
         -2   -1    0    0    0  501 -0.00000000000E+00  0.00000000000E+00  0.20053121830E+03  0.20053121830E+03  0.00000000000E+00 0.  1.
          2   -1    0    0  501    0  0.00000000000E+00 -0.00000000000E+00 -0.28383400045E+04  0.28383400045E+04  0.00000000000E+00 0. -1.
         23    2    1    2    0    0  0.28087764818E+03 -0.39395875144E+03 -0.51400363404E+03  0.71189776278E+03  0.92211375464E+02 0.  0.
        254    2    1    2    0    0 -0.28087764818E+03  0.39395875144E+03 -0.21238051522E+04  0.23269734600E+04  0.81863386699E+03 0.  0.
        -24    2    4    4    0    0 -0.49395055987E+03  0.47853041917E+03 -0.17416222182E+04  0.18742053620E+04  0.80120348412E+02 0.  0.
         24    2    4    4    0    0  0.21307291169E+03 -0.84571667731E+02 -0.38218293398E+03  0.45276809806E+03  0.79891945276E+02 0.  0.
         11    1    3    3    0    0  0.25230295119E+03 -0.38741470784E+03 -0.47227347266E+03  0.66090027085E+03  0.00000000000E+00 0. -1.
        -11    1    3    3    0    0  0.28574696988E+02 -0.65440435993E+01 -0.41730161377E+02  0.50997491930E+02  0.00000000000E+00 0.  1.
          2    1    6    6  502    0  0.25167562383E+02 -0.37007791948E+02 -0.10877674682E+03  0.11762382204E+03  0.00000000000E+00 0. -1.
          3    1    5    5  503    0 -0.22901357784E+03  0.17580643936E+03 -0.66976537721E+03  0.72934270645E+03  0.00000000000E+00 0. -1.
         -4    1    5    5    0  503 -0.26493698203E+03  0.30272397982E+03 -0.10718568410E+04  0.11448626555E+04  0.00000000000E+00 0.  1.
         -1    1    6    6    0  502  0.18790534931E+03 -0.47563875782E+02 -0.27340618715E+03  0.33514427603E+03  0.00000000000E+00 0.  1.
<mgrwt>
<rscale>  0 0.15088748E+04</rscale>
<asrwt>0</asrwt>
<pdfrwt beam="1">  1        2 0.43666767E+00 0.15088748E+04</pdfrwt>
<pdfrwt beam="2">  1       -2 0.30850958E-01 0.15088748E+04</pdfrwt>
<totfact> 0.20706793E+01</totfact>
</mgrwt>
</event>
<event>
12    1  0.1549527E-007  0.1767654E+04  0.7818608E-02  0.8723692E-01
          2   -1    0    0  501    0  0.00000000000E+00  0.00000000000E+00  0.69990155989E+03  0.69990155989E+03  0.00000000000E+00 0.  1.
         -2   -1    0    0    0  501 -0.00000000000E+00 -0.00000000000E+00 -0.11160857410E+04  0.11160857410E+04  0.00000000000E+00 0. -1.
         23    2    1    2    0    0  0.59112834968E+03 -0.11329537452E+03  0.89495982630E+02  0.61520953622E+03  0.90579660330E+02 0.  0.
        254    2    1    2    0    0 -0.59112834968E+03  0.11329537452E+03 -0.50568016377E+03  0.12007777647E+04  0.90768179691E+03 0.  0.
        -24    2    4    4    0    0 -0.81426558156E+02 -0.30094183635E+03  0.65421104899E+02  0.32676897865E+03  0.72813262559E+02 0.  0.
         24    2    4    4    0    0 -0.50970179153E+03  0.41423721087E+03 -0.57110126867E+03  0.87400878604E+03  0.79663767457E+02 0.  0.
         13    1    3    3    0    0  0.37109915788E+03 -0.36098476460E+02  0.27138642193E+02  0.37383711812E+03  0.00000000000E+00 0. -1.
        -13    1    3    3    0    0  0.22002919180E+03 -0.77196898061E+02  0.62357340438E+02  0.24137241811E+03  0.00000000000E+00 0.  1.
          2    1    6    6  502    0 -0.13844694788E+03  0.11699230959E+03 -0.20633487486E+03  0.27464311108E+03  0.00000000000E+00 0. -1.
          1    1    5    5  503    0 -0.60223213949E+02 -0.91183651076E+02  0.19603614021E+02  0.11102069809E+03  0.00000000000E+00 0. -1.
         -2    1    5    5    0  503 -0.21203344207E+02 -0.20975818527E+03  0.45817490877E+02  0.21574828056E+03  0.00000000000E+00 0.  1.
         -1    1    6    6    0  502 -0.37125484364E+03  0.29724490128E+03 -0.36476639381E+03  0.59936567496E+03  0.00000000000E+00 0.  1.
<mgrwt>
<rscale>  0 0.17676540E+04</rscale>
<asrwt>0</asrwt>
<pdfrwt beam="1">  1        2 0.10767716E+00 0.17676540E+04</pdfrwt>
<pdfrwt beam="2">  1       -2 0.17170550E+00 0.17676540E+04</pdfrwt>
<totfact> 0.80340238E+00</totfact>
</mgrwt>
</event>
<event>
12    1  0.1549527E-007  0.1475037E+04  0.7818608E-02  0.8901225E-01
         -2   -1    0    0    0  501 -0.00000000000E+00  0.00000000000E+00  0.24564937643E+03  0.24564937643E+03  0.00000000000E+00 0.  1.
          2   -1    0    0  501    0  0.00000000000E+00 -0.00000000000E+00 -0.22142678684E+04  0.22142678684E+04  0.00000000000E+00 0. -1.
         23    2    1    2    0    0 -0.28329212482E+03  0.38357631718E+03 -0.68319597275E+03  0.83841904284E+03  0.93832484387E+02 0.  0.
        254    2    1    2    0    0  0.28329212482E+03 -0.38357631718E+03 -0.12854225192E+04  0.16214982020E+04  0.86577141733E+03 0.  0.
        -24    2    4    4    0    0  0.29403218382E+03 -0.54644980362E+03 -0.12960917402E+04  0.14391796701E+04  0.79511073976E+02 0.  0.
         24    2    4    4    0    0 -0.10740058998E+02  0.16287348644E+03  0.10669220966E+02  0.18231853188E+03  0.80517658557E+02 0.  0.
         13    1    3    3    0    0 -0.14532096441E+03  0.17362962282E+03 -0.40173876092E+03  0.46115014978E+03  0.00000000000E+00 0. -1.
        -13    1    3    3    0    0 -0.13797116040E+03  0.20994669436E+03 -0.28145721183E+03  0.37726889305E+03  0.00000000000E+00 0.  1.
          2    1    6    6  502    0  0.22515676968E+01  0.15011857871E+03 -0.14962087812E+02  0.15087916126E+03  0.00000000000E+00 0. -1.
          3    1    5    5  503    0  0.22689130273E+03 -0.43777081784E+03 -0.95146322007E+03  0.10716366975E+04  0.00000000000E+00 0. -1.
         -4    1    5    5    0  503  0.67140881083E+02 -0.10867898578E+03 -0.34462852014E+03  0.36754297266E+03  0.00000000000E+00 0.  1.
         -1    1    6    6    0  502 -0.12991626695E+02  0.12754907728E+02  0.25631308779E+02  0.31439370621E+02  0.00000000000E+00 0.  1.
<mgrwt>
<rscale>  0 0.14750370E+04</rscale>
<asrwt>0</asrwt>
<pdfrwt beam="1">  1        2 0.34065659E+00 0.14750370E+04</pdfrwt>
<pdfrwt beam="2">  1       -2 0.37792213E-01 0.14750370E+04</pdfrwt>
<totfact> 0.32460189E+01</totfact>
</mgrwt>
</event>
<event>
12    1  0.1549527E-007  0.2007962E+04  0.7818608E-02  0.8602907E-01
          2   -1    0    0  501    0  0.00000000000E+00  0.00000000000E+00  0.22810567507E+04  0.22810567507E+04  0.00000000000E+00 0.  1.
         -2   -1    0    0    0  501 -0.00000000000E+00 -0.00000000000E+00 -0.44189065674E+03  0.44189065674E+03  0.00000000000E+00 0. -1.
         23    2    1    2    0    0 -0.79320136123E+03  0.16703754994E+03  0.62553068588E+03  0.10278978357E+04  0.90638729070E+02 0.  0.
        254    2    1    2    0    0  0.79320136123E+03 -0.16703754994E+03  0.12136354081E+04  0.16950495717E+04  0.86209756073E+03 0.  0.
        -24    2    4    4    0    0  0.31853951167E+03  0.33741745045E+03  0.62579635096E+03  0.78311683817E+03  0.79579852880E+02 0.  0.
         24    2    4    4    0    0  0.47466184956E+03 -0.50445500038E+03  0.58783905712E+03  0.91193273353E+03  0.79295867270E+02 0.  0.
         13    1    3    3    0    0 -0.27254411217E+03  0.59411309526E+02  0.16221267336E+03  0.32268087668E+03  0.00000000000E+00 0.  1.
        -13    1    3    3    0    0 -0.52065724906E+03  0.10762624041E+03  0.46331801252E+03  0.70521695906E+03  0.00000000000E+00 0. -1.
          4    1    6    6  502    0  0.22453837558E+03 -0.23585947218E+03  0.32829951418E+03  0.46241512057E+03  0.00000000000E+00 0. -1.
          1    1    5    5  503    0  0.39203452405E+02  0.43789373907E+02  0.13064394810E+03  0.14325592875E+03  0.00000000000E+00 0. -1.
         -2    1    5    5    0  503  0.27933605927E+03  0.29362807654E+03  0.49515240286E+03  0.63986090942E+03  0.00000000000E+00 0.  1.
         -3    1    6    6    0  502  0.25012347399E+03 -0.26859552821E+03  0.25953954295E+03  0.44951761296E+03  0.00000000000E+00 0.  1.
<mgrwt>
<rscale>  0 0.20079618E+04</rscale>
<asrwt>0</asrwt>
<pdfrwt beam="1">  1        2 0.35093180E+00 0.20079618E+04</pdfrwt>
<pdfrwt beam="2">  1       -2 0.67983179E-01 0.20079618E+04</pdfrwt>
<totfact> 0.85494906E+00</totfact>
</mgrwt>
</event>
<event>
12    1  0.1549527E-007  0.2720502E+04  0.7818608E-02  0.8328383E-01
         -2   -1    0    0    0  501 -0.00000000000E+00  0.00000000000E+00  0.75598237627E+03  0.75598237627E+03  0.00000000000E+00 0. -1.
          2   -1    0    0  501    0  0.00000000000E+00 -0.00000000000E+00 -0.24475214272E+04  0.24475214272E+04  0.00000000000E+00 0.  1.
         23    2    1    2    0    0  0.31063621246E+03  0.88780452426E+03  0.16742003149E+03  0.96072452399E+03  0.10134305238E+03 0.  0.
        254    2    1    2    0    0 -0.31063621246E+03 -0.88780452426E+03 -0.18589590824E+04  0.22427792795E+04  0.83044463787E+03 0.  0.
        -24    2    4    4    0    0  0.48240012585E+02 -0.34571181632E+03 -0.10987911482E+03  0.37508716613E+03  0.82299474877E+02 0.  0.
         24    2    4    4    0    0 -0.35887622504E+03 -0.54209270795E+03 -0.17490799676E+04  0.18676921134E+04  0.79601810989E+02 0.  0.
         13    1    3    3    0    0  0.10866317099E+03  0.26493060913E+03  0.96126303669E+02  0.30205327120E+03  0.00000000000E+00 0.  1.
        -13    1    3    3    0    0  0.20197304146E+03  0.62287391513E+03  0.71293727820E+02  0.65867125279E+03  0.00000000000E+00 0. -1.
          4    1    6    6  502    0 -0.94411708108E+02 -0.19355880718E+03 -0.50847328185E+03  0.55219893228E+03  0.00000000000E+00 0. -1.
          1    1    5    5  503    0 -0.15392286554E+02 -0.31725993241E+02  0.30571113701E+01  0.35395014655E+02  0.00000000000E+00 0. -1.
         -2    1    5    5    0  503  0.63632299139E+02 -0.31398582308E+03 -0.11293622619E+03  0.33969215148E+03  0.00000000000E+00 0.  1.
         -3    1    6    6    0  502 -0.26446451694E+03 -0.34853390077E+03 -0.12406066858E+04  0.13154931811E+04  0.00000000000E+00 0.  1.
<mgrwt>
<rscale>  0 0.27205022E+04</rscale>
<asrwt>0</asrwt>
<pdfrwt beam="1">  1        2 0.37654176E+00 0.27205022E+04</pdfrwt>
<pdfrwt beam="2">  1       -2 0.11630498E+00 0.27205022E+04</pdfrwt>
<totfact> 0.18749921E+00</totfact>
</mgrwt>
</event>
<event>
12    1  0.1549527E-007  0.3040729E+04  0.7818608E-02  0.8232195E-01
         -2   -1    0    0    0  501 -0.00000000000E+00  0.00000000000E+00  0.15833300197E+04  0.15833300197E+04  0.00000000000E+00 0. -1.
          2   -1    0    0  501    0  0.00000000000E+00 -0.00000000000E+00 -0.14599030432E+04  0.14599030432E+04  0.00000000000E+00 0.  1.
         23    2    1    2    0    0 -0.11766524639E+04 -0.33319974935E+03  0.68494961924E+03  0.14057078393E+04  0.10642111954E+03 0.  0.
        254    2    1    2    0    0  0.11766524639E+04  0.33319974935E+03 -0.56152264269E+03  0.16375252236E+04  0.93308525121E+03 0.  0.
        -24    2    4    4    0    0  0.63632062455E+03 -0.18228049828E+03  0.50214975824E+02  0.66888867567E+03  0.82221647743E+02 0.  0.
         24    2    4    4    0    0  0.54033183934E+03  0.51548024764E+03 -0.61173761852E+03  0.96863654796E+03  0.79721175525E+02 0.  0.
         11    1    3    3    0    0 -0.10957989758E+04 -0.33202045598E+03  0.65730366322E+03  0.13202503869E+04  0.00000000000E+00 0. -1.
        -11    1    3    3    0    0 -0.80853488106E+02 -0.11792933718E+01  0.27645956015E+02  0.85457452312E+02  0.00000000000E+00 0.  1.
          4    1    6    6  502    0  0.10340744092E+03  0.12025652423E+03 -0.94325320508E+02  0.18453183071E+03  0.00000000000E+00 0. -1.
          3    1    5    5  503    0  0.25410634422E+03 -0.63887444150E+02  0.59355281744E+02  0.26865347414E+03  0.00000000000E+00 0. -1.
         -4    1    5    5    0  503  0.38221428033E+03 -0.11839305413E+03 -0.91403059203E+01  0.40023520153E+03  0.00000000000E+00 0.  1.
         -3    1    6    6    0  502  0.43692439843E+03  0.39522372341E+03 -0.51741229801E+03  0.78410471725E+03  0.00000000000E+00 0.  1.
<mgrwt>
<rscale>  0 0.30407291E+04</rscale>
<asrwt>0</asrwt>
<pdfrwt beam="1">  1        2 0.22460047E+00 0.30407291E+04</pdfrwt>
<pdfrwt beam="2">  1       -2 0.24358923E+00 0.30407291E+04</pdfrwt>
<totfact> 0.80321280E-01</totfact>
</mgrwt>
</event>
<event>
12    1  0.1549527E-007  0.2357870E+04  0.7818608E-02  0.8455447E-01
          2   -1    0    0  501    0  0.00000000000E+00  0.00000000000E+00  0.84502044902E+03  0.84502044902E+03  0.00000000000E+00 0. -1.
         -2   -1    0    0    0  501 -0.00000000000E+00 -0.00000000000E+00 -0.16447972499E+04  0.16447972499E+04  0.00000000000E+00 0.  1.
         23    2    1    2    0    0  0.65245730731E+03  0.62260109165E+03  0.13408426927E+03  0.91586698749E+03  0.86608835088E+02 0.  0.
        254    2    1    2    0    0 -0.65245730731E+03 -0.62260109165E+03 -0.93386107013E+03  0.15739507114E+04  0.88988296224E+03 0.  0.
        -24    2    4    4    0    0  0.68368000438E+01  0.19454276980E+03 -0.20269194367E+03  0.29210732152E+03  0.79680814116E+02 0.  0.
         24    2    4    4    0    0 -0.65929410736E+03 -0.81714386145E+03 -0.73116912646E+03  0.12818433899E+04  0.78239213042E+02 0.  0.
         13    1    3    3    0    0  0.61814085548E+03  0.55790074168E+03  0.12663192251E+03  0.84225114935E+03  0.00000000000E+00 0. -1.
        -13    1    3    3    0    0  0.34316451829E+02  0.64700349970E+02  0.74523467597E+01  0.73615838137E+02  0.00000000000E+00 0.  1.
          4    1    6    6  502    0 -0.59201173677E+03 -0.71100829967E+03 -0.66829062101E+03  0.11413251302E+04  0.00000000000E+00 0. -1.
          1    1    5    5  503    0  0.40848700013E+02  0.12620323744E+03 -0.14424887997E+03  0.19596839746E+03  0.00000000000E+00 0. -1.
         -2    1    5    5    0  503 -0.34011899969E+02  0.68339532360E+02 -0.58443063704E+02  0.96138924052E+02  0.00000000000E+00 0.  1.
         -3    1    6    6    0  502 -0.67282370588E+02 -0.10613556178E+03 -0.62878505451E+02  0.14051825972E+03  0.00000000000E+00 0.  1.
<mgrwt>
<rscale>  0 0.23578696E+04</rscale>
<asrwt>0</asrwt>
<pdfrwt beam="1">  1        2 0.13000315E+00 0.23578696E+04</pdfrwt>
<pdfrwt beam="2">  1       -2 0.25304573E+00 0.23578696E+04</pdfrwt>
<totfact> 0.17766537E+00</totfact>
</mgrwt>
</event>
<event>
12    1  0.1549527E-007  0.1731274E+04  0.7818608E-02  0.8743726E-01
          2   -1    0    0  501    0  0.00000000000E+00  0.00000000000E+00  0.11603028415E+04  0.11603028415E+04  0.00000000000E+00 0. -1.
         -2   -1    0    0    0  501 -0.00000000000E+00 -0.00000000000E+00 -0.64580312211E+03  0.64580312211E+03  0.00000000000E+00 0.  1.
         23    2    1    2    0    0 -0.28782370213E+03  0.55957324814E+03  0.24199930351E+03  0.67998879747E+03  0.88636325748E+02 0.  0.
        254    2    1    2    0    0  0.28782370213E+03 -0.55957324814E+03  0.27250041590E+03  0.11261171662E+04  0.89326294656E+03 0.  0.
        -24    2    4    4    0    0  0.45973655640E+03 -0.56895435825E+03  0.45375407156E+03  0.86445312321E+03  0.79496425730E+02 0.  0.
         24    2    4    4    0    0 -0.17191285427E+03  0.93811101057E+01 -0.18125365566E+03  0.26166404295E+03  0.77286150074E+02 0.  0.
         11    1    3    3    0    0 -0.88576263071E+02  0.13615614346E+03  0.25661938768E+02  0.16444690597E+03  0.00000000000E+00 0. -1.
        -11    1    3    3    0    0 -0.19924743906E+03  0.42341710468E+03  0.21633736474E+03  0.51554189150E+03  0.00000000000E+00 0.  1.
          4    1    6    6  502    0 -0.52082642549E+02 -0.42861824329E+01 -0.10948805011E+03  0.12132026266E+03  0.00000000000E+00 0. -1.
          1    1    5    5  503    0  0.25321539606E+03 -0.26856724743E+03  0.26124395620E+03  0.45221102136E+03  0.00000000000E+00 0. -1.
         -2    1    5    5    0  503  0.20652116034E+03 -0.30038711082E+03  0.19251011536E+03  0.41224210184E+03  0.00000000000E+00 0.  1.
         -3    1    6    6    0  502 -0.11983021172E+03  0.13667292539E+02 -0.71765605546E+02  0.14034378029E+03  0.00000000000E+00 0.  1.
<mgrwt>
<rscale>  0 0.17312737E+04</rscale>
<asrwt>0</asrwt>
<pdfrwt beam="1">  1        2 0.17850813E+00 0.17312737E+04</pdfrwt>
<pdfrwt beam="2">  1       -2 0.99354326E-01 0.17312737E+04</pdfrwt>
<totfact> 0.15936337E+01</totfact>
</mgrwt>
</event>
<event>
12    1  0.1549527E-007  0.2051491E+04  0.7818608E-02  0.8582918E-01
          2   -1    0    0  501    0  0.00000000000E+00  0.00000000000E+00  0.10786276910E+04  0.10786276910E+04  0.00000000000E+00 0. -1.
         -2   -1    0    0    0  501 -0.00000000000E+00 -0.00000000000E+00 -0.97545605835E+03  0.97545605835E+03  0.00000000000E+00 0.  1.
         23    2    1    2    0    0 -0.13441755726E+03 -0.30082413240E+03 -0.71706805511E+03  0.79438954248E+03  0.91131285612E+02 0.  0.
        254    2    1    2    0    0  0.13441755726E+03  0.30082413240E+03  0.82023968771E+03  0.12596942068E+04  0.89748153800E+03 0.  0.
        -24    2    4    4    0    0  0.39499830612E+03  0.17778386689E+03  0.61601228012E+02  0.44438776053E+03  0.77813914299E+02 0.  0.
         24    2    4    4    0    0 -0.26058074885E+03  0.12304026551E+03  0.75863845970E+03  0.81530644628E+03  0.78428663158E+02 0.  0.
         13    1    3    3    0    0 -0.13259449031E+03 -0.22149997365E+03 -0.59757055846E+03  0.65094862280E+03  0.00000000000E+00 0.  1.
        -13    1    3    3    0    0 -0.18230669561E+01 -0.79324158754E+02 -0.11949749664E+03  0.14344091968E+03  0.00000000000E+00 0. -1.
          4    1    6    6  502    0 -0.22942479532E+03  0.12873629294E+03  0.62785942228E+03  0.68074681342E+03  0.00000000000E+00 0. -1.
          1    1    5    5  503    0  0.36199004587E+03  0.16215583006E+03  0.33038138894E+02  0.39802364898E+03  0.00000000000E+00 0. -1.
         -2    1    5    5    0  503  0.33008260251E+02  0.15628036829E+02  0.28563089117E+02  0.46364111550E+02  0.00000000000E+00 0.  1.
         -3    1    6    6    0  502 -0.31155953530E+02 -0.56960274332E+01  0.13077903741E+03  0.13455963286E+03  0.00000000000E+00 0.  1.
<mgrwt>
<rscale>  0 0.20514911E+04</rscale>
<asrwt>0</asrwt>
<pdfrwt beam="1">  1        2 0.16594272E+00 0.20514911E+04</pdfrwt>
<pdfrwt beam="2">  1       -2 0.15007016E+00 0.20514911E+04</pdfrwt>
<totfact> 0.62186007E+00</totfact>
</mgrwt>
</event>
<event>
12    1  0.1549527E-007  0.1470563E+04  0.7818608E-02  0.8904268E-01
         -1   -1    0    0    0  501 -0.00000000000E+00  0.00000000000E+00  0.86833499716E+03  0.86833499716E+03  0.00000000000E+00 0.  1.
          1   -1    0    0  501    0  0.00000000000E+00 -0.00000000000E+00 -0.62261529033E+03  0.62261529033E+03  0.00000000000E+00 0. -1.
         23    2    1    2    0    0  0.31515600002E+02  0.38162668879E+03  0.34326544333E+03  0.52229775226E+03  0.91277679575E+02 0.  0.
        254    2    1    2    0    0 -0.31515600002E+02 -0.38162668879E+03 -0.97545736497E+02  0.96865253522E+03  0.88438701972E+03 0.  0.
        -24    2    4    4    0    0 -0.30668927593E+03 -0.39343427120E+03 -0.32568140627E+03  0.60182373849E+03  0.85291242784E+02 0.  0.
         24    2    4    4    0    0  0.27517367593E+03  0.11807582403E+02  0.22813566978E+03  0.36682879673E+03  0.81593574272E+02 0.  0.
         13    1    3    3    0    0 -0.63808647025E+01  0.11468436020E+03  0.54194389241E+02  0.12700492011E+03  0.00000000000E+00 0. -1.
        -13    1    3    3    0    0  0.37896464704E+02  0.26694232860E+03  0.28907105409E+03  0.39529283215E+03  0.00000000000E+00 0.  1.
          2    1    6    6  502    0  0.18888310575E+03 -0.23614898538E+02  0.12478465282E+03  0.22760865680E+03  0.00000000000E+00 0. -1.
          3    1    5    5  503    0 -0.27492287648E+02 -0.99747962888E+01 -0.60984342272E+01  0.29874961777E+02  0.00000000000E+00 0. -1.
         -4    1    5    5    0  503 -0.27919698828E+03 -0.38345947491E+03 -0.31958297205E+03  0.57194877671E+03  0.00000000000E+00 0.  1.
         -1    1    6    6    0  502  0.86290570182E+02  0.35422480940E+02  0.10335101695E+03  0.13922013993E+03  0.00000000000E+00 0.  1.
<mgrwt>
<rscale>  0 0.14705627E+04</rscale>
<asrwt>0</asrwt>
<pdfrwt beam="1">  1        1 0.95786968E-01 0.14705627E+04</pdfrwt>
<pdfrwt beam="2">  1       -1 0.13359000E+00 0.14705627E+04</pdfrwt>
<totfact> 0.14893430E+01</totfact>
</mgrwt>
</event>
<event>
12    1  0.1549527E-007  0.1699294E+04  0.7818608E-02  0.8761767E-01
         -1   -1    0    0    0  501 -0.00000000000E+00  0.00000000000E+00  0.57686640143E+03  0.57686640143E+03  0.00000000000E+00 0. -1.
          1   -1    0    0  501    0  0.00000000000E+00 -0.00000000000E+00 -0.12514160718E+04  0.12514160718E+04  0.00000000000E+00 0.  1.
         23    2    1    2    0    0 -0.43700622048E+03  0.40321197680E+03 -0.12023220545E+03  0.61378897900E+03  0.93417303246E+02 0.  0.
        254    2    1    2    0    0  0.43700622048E+03 -0.40321197680E+03 -0.55431746490E+03  0.12144934942E+04  0.90231494534E+03 0.  0.
        -24    2    4    4    0    0  0.90300897484E+01  0.23802095620E+03 -0.31352155434E+03  0.40197506253E+03  0.80948549964E+02 0.  0.
         24    2    4    4    0    0  0.42797613073E+03 -0.64123293301E+03 -0.24079591055E+03  0.81251843167E+03  0.88658267610E+02 0.  0.
         13    1    3    3    0    0 -0.24073841433E+03  0.20674609180E+03 -0.17918998045E+02  0.31783646912E+03  0.00000000000E+00 0. -1.
        -13    1    3    3    0    0 -0.19626780614E+03  0.19646588500E+03 -0.10231320740E+03  0.29595250989E+03  0.00000000000E+00 0.  1.
          2    1    6    6  502    0  0.20681757710E+02 -0.76381016995E+02 -0.33579213289E+02  0.85961377515E+02  0.00000000000E+00 0. -1.
          1    1    5    5  503    0  0.41049841658E+02  0.14372161334E+03 -0.21531910973E+03  0.26211316383E+03  0.00000000000E+00 0. -1.
         -2    1    5    5    0  503 -0.32019751909E+02  0.94299342867E+02 -0.98202444615E+02  0.13986189869E+03  0.00000000000E+00 0.  1.
         -1    1    6    6    0  502  0.40729437302E+03 -0.56485191601E+03 -0.20721669726E+03  0.72655705415E+03  0.00000000000E+00 0.  1.
<mgrwt>
<rscale>  0 0.16992938E+04</rscale>
<asrwt>0</asrwt>
<pdfrwt beam="1">  1        1 0.19252555E+00 0.16992938E+04</pdfrwt>
<pdfrwt beam="2">  1       -1 0.88748677E-01 0.16992938E+04</pdfrwt>
<totfact> 0.11624250E+01</totfact>
</mgrwt>
</event>
<event>
12    1  0.1549527E-007  0.1211735E+04  0.7818608E-02  0.9102647E-01
          2   -1    0    0  501    0  0.00000000000E+00  0.00000000000E+00  0.61252105625E+03  0.61252105625E+03  0.00000000000E+00 0. -1.
         -2   -1    0    0    0  501 -0.00000000000E+00 -0.00000000000E+00 -0.59928620177E+03  0.59928620177E+03  0.00000000000E+00 0.  1.
         23    2    1    2    0    0 -0.22575567201E+03 -0.99965253769E+02 -0.67320038967E+02  0.27149299786E+03  0.90651998513E+02 0.  0.
        254    2    1    2    0    0  0.22575567201E+03  0.99965253769E+02  0.80554893448E+02  0.94031426017E+03  0.90373842543E+03 0.  0.
        -24    2    4    4    0    0  0.42149590798E+03  0.36726148799E+03  0.16651280899E+03  0.58883764830E+03  0.80395643473E+02 0.  0.
         24    2    4    4    0    0 -0.19574023597E+03 -0.26729623422E+03 -0.85957915537E+02  0.35147661186E+03  0.79909502778E+02 0.  0.
         13    1    3    3    0    0 -0.17751988094E+02 -0.34986558045E+01  0.19242097712E+02  0.26412724170E+02  0.00000000000E+00 0.  1.
        -13    1    3    3    0    0 -0.20800368392E+03 -0.96466597964E+02 -0.86562136679E+02  0.24508027369E+03  0.00000000000E+00 0. -1.
          4    1    6    6  502    0 -0.88011358742E+02 -0.74219667425E+02 -0.25106410549E+01  0.11515581452E+03  0.00000000000E+00 0. -1.
          1    1    5    5  503    0  0.13581343751E+03  0.72048829122E+02  0.37541622964E+02  0.15825832376E+03  0.00000000000E+00 0. -1.
         -2    1    5    5    0  503  0.28568247048E+03  0.29521265887E+03  0.12897118602E+03  0.43057932454E+03  0.00000000000E+00 0.  1.
         -3    1    6    6    0  502 -0.10772887723E+03 -0.19307656680E+03 -0.83447274482E+02  0.23632079734E+03  0.00000000000E+00 0.  1.
<mgrwt>
<rscale>  0 0.12117350E+04</rscale>
<asrwt>0</asrwt>
<pdfrwt beam="1">  1        2 0.94234009E-01 0.12117350E+04</pdfrwt>
<pdfrwt beam="2">  1       -2 0.92197877E-01 0.12117350E+04</pdfrwt>
<totfact> 0.47678111E+01</totfact>
</mgrwt>
</event>
<event>
12    1  0.1549527E-007  0.1601470E+04  0.7818608E-02  0.8819645E-01
         -2   -1    0    0    0  501 -0.00000000000E+00  0.00000000000E+00  0.31149532546E+03  0.31149532546E+03  0.00000000000E+00 0. -1.
          2   -1    0    0  501    0  0.00000000000E+00 -0.00000000000E+00 -0.20583826757E+04  0.20583826757E+04  0.00000000000E+00 0.  1.
         23    2    1    2    0    0 -0.19757131086E+02  0.30780953776E+03  0.64447029034E+02  0.32770024169E+03  0.89983182244E+02 0.  0.
        254    2    1    2    0    0  0.19757131086E+02 -0.30780953776E+03 -0.18113343793E+04  0.20421777595E+04  0.89130281722E+03 0.  0.
        -24    2    4    4    0    0  0.38541018993E+02 -0.21145332121E+03 -0.27815408376E+01  0.22891196513E+03  0.78708535832E+02 0.  0.
         24    2    4    4    0    0 -0.18783887907E+02 -0.96356216549E+02 -0.18085528384E+04  0.18132657944E+04  0.86209724568E+02 0.  0.
         13    1    3    3    0    0 -0.39348739123E+02  0.29520647954E+03  0.56828156659E+02  0.30319074561E+03  0.00000000000E+00 0. -1.
        -13    1    3    3    0    0  0.19591608037E+02  0.12603058225E+02  0.76188723746E+01  0.24509496085E+02  0.00000000000E+00 0.  1.
          2    1    6    6  502    0 -0.47262767652E+01 -0.86139949908E+02 -0.81355803029E+03  0.81811924394E+03  0.00000000000E+00 0. -1.
          3    1    5    5  503    0 -0.47350197752E+01 -0.43502877113E+02 -0.30410083999E+02  0.53288778727E+02  0.00000000000E+00 0. -1.
         -4    1    5    5    0  503  0.43276038768E+02 -0.16795044410E+03  0.27628543161E+02  0.17562318640E+03  0.00000000000E+00 0.  1.
         -1    1    6    6    0  502 -0.14057611142E+02 -0.10216266641E+02 -0.99499480816E+03  0.99514655041E+03  0.00000000000E+00 0.  1.
<mgrwt>
<rscale>  0 0.16014701E+04</rscale>
<asrwt>0</asrwt>
<pdfrwt beam="1">  1        2 0.31667425E+00 0.16014701E+04</pdfrwt>
<pdfrwt beam="2">  1       -2 0.47922358E-01 0.16014701E+04</pdfrwt>
<totfact> 0.24530106E+01</totfact>
</mgrwt>
</event>
<event>
12    1  0.1549527E-007  0.1812765E+04  0.7818608E-02  0.8699541E-01
         -1   -1    0    0    0  501 -0.00000000000E+00  0.00000000000E+00  0.16269514653E+04  0.16269514653E+04  0.00000000000E+00 0.  1.
          1   -1    0    0  501    0  0.00000000000E+00 -0.00000000000E+00 -0.50494991406E+03  0.50494991406E+03  0.00000000000E+00 0. -1.
         23    2    1    2    0    0  0.57448539841E+03 -0.12821812405E+02 -0.44064952924E+01  0.58165456993E+03  0.90026383121E+02 0.  0.
        254    2    1    2    0    0 -0.57448539841E+03  0.12821812405E+02  0.11264080465E+04  0.15502468094E+04  0.89681224959E+03 0.  0.
        -24    2    4    4    0    0  0.28033996230E+02 -0.34704175694E+03  0.35055589435E+03  0.50050359609E+03  0.79940782022E+02 0.  0.
         24    2    4    4    0    0 -0.60251939464E+03  0.35986356934E+03  0.77585215218E+03  0.10497432133E+04  0.86503424604E+02 0.  0.
         11    1    3    3    0    0  0.36667149015E+03 -0.16530583593E+02 -0.45281354606E+02  0.36982650386E+03  0.00000000000E+00 0. -1.
        -11    1    3    3    0    0  0.20781390826E+03  0.37087711882E+01  0.40874859314E+02  0.21182806607E+03  0.00000000000E+00 0.  1.
          4    1    6    6  502    0 -0.43539805414E+03  0.23817165304E+03  0.59734795375E+03  0.77660915505E+03  0.00000000000E+00 0. -1.
          3    1    5    5  503    0  0.25337725922E+02 -0.14714110188E+03  0.98848819281E+02  0.17906309863E+03  0.00000000000E+00 0. -1.
         -4    1    5    5    0  503  0.26962703081E+01 -0.19990065505E+03  0.25170707507E+03  0.32144049746E+03  0.00000000000E+00 0.  1.
         -3    1    6    6    0  502 -0.16712134050E+03  0.12169191630E+03  0.17850419843E+03  0.27313405829E+03  0.00000000000E+00 0.  1.
<mgrwt>
<rscale>  0 0.18127647E+04</rscale>
<asrwt>0</asrwt>
<pdfrwt beam="1">  1        1 0.77684603E-01 0.18127647E+04</pdfrwt>
<pdfrwt beam="2">  1       -1 0.25030022E+00 0.18127647E+04</pdfrwt>
<totfact> 0.28605571E+00</totfact>
</mgrwt>
</event>
<event>
12    1  0.1549527E-007  0.1655733E+04  0.7818608E-02  0.8787022E-01
          2   -1    0    0  501    0  0.00000000000E+00  0.00000000000E+00  0.31279616353E+04  0.31279616353E+04  0.00000000000E+00 0. -1.
         -2   -1    0    0    0  501 -0.00000000000E+00 -0.00000000000E+00 -0.21910841726E+03  0.21910841726E+03  0.00000000000E+00 0.  1.
         23    2    1    2    0    0 -0.20449454310E+03  0.53866943704E+03  0.10237958244E+04  0.11784803148E+04  0.93140656601E+02 0.  0.
        254    2    1    2    0    0  0.20449454310E+03 -0.53866943704E+03  0.18850573937E+04  0.21685897378E+04  0.90407814514E+03 0.  0.
        -24    2    4    4    0    0 -0.35327738392E+03 -0.18966251906E+03  0.75389810996E+03  0.85750132344E+03  0.78545390457E+02 0.  0.
         24    2    4    4    0    0  0.55777192703E+03 -0.34900691798E+03  0.11311592838E+04  0.13110884143E+04  0.80722695437E+02 0.  0.
         11    1    3    3    0    0 -0.11192501424E+03  0.24305148622E+03  0.38916336353E+03  0.47228101516E+03  0.00000000000E+00 0. -1.
        -11    1    3    3    0    0 -0.92569528868E+02  0.29561795083E+03  0.63463246083E+03  0.70619929968E+03  0.00000000000E+00 0.  1.
          2    1    6    6  502    0  0.48058227575E+03 -0.27360996619E+03  0.90666844399E+03  0.10620119607E+04  0.00000000000E+00 0. -1.
          3    1    5    5  503    0 -0.25050381676E+03 -0.93905087068E+02  0.47203268355E+03  0.54257274344E+03  0.00000000000E+00 0. -1.
         -4    1    5    5    0  503 -0.10277356716E+03 -0.95757431993E+02  0.28186542642E+03  0.31492858000E+03  0.00000000000E+00 0.  1.
         -1    1    6    6    0  502  0.77189651274E+02 -0.75396951792E+02  0.22449083978E+03  0.24907645362E+03  0.00000000000E+00 0.  1.
<mgrwt>
<rscale>  0 0.16557327E+04</rscale>
<asrwt>0</asrwt>
<pdfrwt beam="1">  1        2 0.48122484E+00 0.16557327E+04</pdfrwt>
<pdfrwt beam="2">  1       -2 0.33708990E-01 0.16557327E+04</pdfrwt>
<totfact> 0.11422502E+01</totfact>
</mgrwt>
</event>
<event>
12    1  0.1549527E-007  0.1474639E+04  0.7818608E-02  0.8901495E-01
          1   -1    0    0  501    0  0.00000000000E+00  0.00000000000E+00  0.38753699007E+04  0.38753699007E+04  0.00000000000E+00 0. -1.
         -1   -1    0    0    0  501 -0.00000000000E+00 -0.00000000000E+00 -0.14028087192E+03  0.14028087192E+03  0.00000000000E+00 0.  1.
         23    2    1    2    0    0 -0.43785014194E+03  0.10658217593E+03  0.10274803034E+04  0.11257713914E+04  0.92590198525E+02 0.  0.
        254    2    1    2    0    0  0.43785014194E+03 -0.10658217593E+03  0.27076087254E+04  0.28898793812E+04  0.90398303139E+03 0.  0.
        -24    2    4    4    0    0  0.32162537133E+03  0.37682815547E+03  0.14906159555E+04  0.15728350158E+04  0.80198014965E+02 0.  0.
         24    2    4    4    0    0  0.11622477061E+03 -0.48341033141E+03  0.12169927698E+04  0.13170443654E+04  0.79628593391E+02 0.  0.
         11    1    3    3    0    0 -0.20710152888E+03  0.78073390255E+02  0.40922925648E+03  0.46524733410E+03  0.00000000000E+00 0.  1.
        -11    1    3    3    0    0 -0.23074861306E+03  0.28508785678E+02  0.61825104693E+03  0.66052405734E+03  0.00000000000E+00 0. -1.
          4    1    6    6  502    0  0.12750112349E+03 -0.45185945045E+03  0.11199862776E+04  0.12144145756E+04  0.00000000000E+00 0. -1.
          1    1    5    5  503    0  0.22261040099E+03  0.28579012519E+03  0.98038753551E+03  0.10451751557E+04  0.00000000000E+00 0. -1.
         -2    1    5    5    0  503  0.99014970341E+02  0.91038030284E+02  0.51022842003E+03  0.52765986006E+03  0.00000000000E+00 0.  1.
         -1    1    6    6    0  502 -0.11276352880E+02 -0.31550880959E+02  0.97006492232E+02  0.10262978982E+03  0.00000000000E+00 0.  1.
<mgrwt>
<rscale>  0 0.14746393E+04</rscale>
<asrwt>0</asrwt>
<pdfrwt beam="1">  1        1 0.59621067E+00 0.14746393E+04</pdfrwt>
<pdfrwt beam="2">  1       -1 0.21581676E-01 0.14746393E+04</pdfrwt>
<totfact> 0.21859009E+00</totfact>
</mgrwt>
</event>
<event>
12    1  0.1549527E-007  0.1679306E+04  0.7818608E-02  0.8773256E-01
          2   -1    0    0  501    0  0.00000000000E+00  0.00000000000E+00  0.16062729027E+04  0.16062729027E+04  0.00000000000E+00 0. -1.
         -2   -1    0    0    0  501 -0.00000000000E+00 -0.00000000000E+00 -0.43891484671E+03  0.43891484671E+03  0.00000000000E+00 0.  1.
         23    2    1    2    0    0  0.19763191803E+03  0.36249600678E+03  0.94522623559E+03  0.10352103749E+04  0.88012237135E+02 0.  0.
        254    2    1    2    0    0 -0.19763191803E+03 -0.36249600678E+03  0.22213182041E+03  0.10099773745E+04  0.89456694631E+03 0.  0.
        -24    2    4    4    0    0  0.33276214342E+03 -0.12840439544E+02  0.11295154214E+03  0.36047764371E+03  0.79313049144E+02 0.  0.
         24    2    4    4    0    0 -0.53039406144E+03 -0.34965556723E+03  0.10918027826E+03  0.64949973080E+03  0.79703770540E+02 0.  0.
         11    1    3    3    0    0  0.33750278094E+02  0.28273103274E+02  0.16442313255E+03  0.17021579292E+03  0.00000000000E+00 0.  1.
        -11    1    3    3    0    0  0.16388163993E+03  0.33422290350E+03  0.78080310304E+03  0.86499458198E+03  0.00000000000E+00 0. -1.
          4    1    6    6  502    0 -0.37602890064E+03 -0.28945865810E+03  0.77967167873E+02  0.48089804338E+03  0.00000000000E+00 0. -1.
          3    1    5    5  503    0  0.32378396803E+03 -0.53577901604E+01  0.12163351237E+03  0.34591830712E+03  0.00000000000E+00 0. -1.
         -4    1    5    5    0  503  0.89781753863E+01 -0.74826493841E+01 -0.86819702240E+01  0.14559336594E+02  0.00000000000E+00 0.  1.
         -3    1    6    6    0  502 -0.15436516081E+03 -0.60196909131E+02  0.31213110390E+02  0.16860168742E+03  0.00000000000E+00 0.  1.
<mgrwt>
<rscale>  0 0.16793058E+04</rscale>
<asrwt>0</asrwt>
<pdfrwt beam="1">  1        2 0.24711891E+00 0.16793058E+04</pdfrwt>
<pdfrwt beam="2">  1       -2 0.67525362E-01 0.16793058E+04</pdfrwt>
<totfact> 0.21195046E+01</totfact>
</mgrwt>
</event>
<event>
12    1  0.1549527E-007  0.1735986E+04  0.7818608E-02  0.8741102E-01
          2   -1    0    0  501    0  0.00000000000E+00  0.00000000000E+00  0.81309217836E+03  0.81309217836E+03  0.00000000000E+00 0. -1.
         -2   -1    0    0    0  501 -0.00000000000E+00 -0.00000000000E+00 -0.92660064337E+03  0.92660064337E+03  0.00000000000E+00 0.  1.
         23    2    1    2    0    0 -0.28044747280E+03 -0.60808689413E+02  0.51968132597E+03  0.60030446497E+03  0.89153173803E+02 0.  0.
        254    2    1    2    0    0  0.28044747280E+03  0.60808689413E+02 -0.63318979098E+03  0.11393883568E+04  0.90273364533E+03 0.  0.
        -24    2    4    4    0    0  0.45669339048E+03  0.22807057322E+03 -0.71048120901E+02  0.52172492711E+03  0.81018669534E+02 0.  0.
         24    2    4    4    0    0 -0.17624591768E+03 -0.16726188380E+03 -0.56214167008E+03  0.61766342965E+03  0.80409538051E+02 0.  0.
         13    1    3    3    0    0 -0.11656636314E+03 -0.37546906585E+02  0.30896273053E+03  0.33234839562E+03  0.00000000000E+00 0. -1.
        -13    1    3    3    0    0 -0.16388110966E+03 -0.23261782828E+02  0.21071859543E+03  0.26795606936E+03  0.00000000000E+00 0.  1.
          2    1    6    6  502    0 -0.30725768881E+02 -0.26471205106E+02 -0.37230968066E+02  0.55053996732E+02  0.00000000000E+00 0. -1.
          1    1    5    5  503    0  0.97151698791E+02  0.77149122092E+02 -0.40908971065E+02  0.13062918331E+03  0.00000000000E+00 0. -1.
         -2    1    5    5    0  503  0.35954169169E+03  0.15092145113E+03 -0.30139149835E+02  0.39109574381E+03  0.00000000000E+00 0.  1.
         -1    1    6    6    0  502 -0.14552014880E+03 -0.14079067870E+03 -0.52491070202E+03  0.56260943292E+03  0.00000000000E+00 0.  1.
<mgrwt>
<rscale>  0 0.17359859E+04</rscale>
<asrwt>0</asrwt>
<pdfrwt beam="1">  1        2 0.12509110E+00 0.17359859E+04</pdfrwt>
<pdfrwt beam="2">  1       -2 0.14255395E+00 0.17359859E+04</pdfrwt>
<totfact> 0.10954591E+01</totfact>
</mgrwt>
</event>
<event>
12    1  0.1549527E-007  0.1122370E+04  0.7818608E-02  0.9183659E-01
         -2   -1    0    0    0  501 -0.00000000000E+00  0.00000000000E+00  0.40612167855E+03  0.40612167855E+03  0.00000000000E+00 0. -1.
          2   -1    0    0  501    0  0.00000000000E+00 -0.00000000000E+00 -0.77545409008E+03  0.77545409008E+03  0.00000000000E+00 0.  1.
         23    2    1    2    0    0 -0.15539891949E+03  0.13400137562E+03 -0.10153866867E+03  0.24637568041E+03  0.91025720629E+02 0.  0.
        254    2    1    2    0    0  0.15539891949E+03 -0.13400137562E+03 -0.26779374285E+03  0.93520008822E+03  0.87222733473E+03 0.  0.
        -24    2    4    4    0    0  0.30392632497E+03  0.21091811034E+03 -0.37916138139E+03  0.53567163280E+03  0.79517826739E+02 0.  0.
         24    2    4    4    0    0 -0.14852740549E+03 -0.34491948596E+03  0.11136763854E+03  0.39952845542E+03  0.78679055682E+02 0.  0.
         13    1    3    3    0    0  0.24681204574E+00 -0.10339849713E+02 -0.12396855458E+02  0.16144826835E+02  0.00000000000E+00 0.  1.
        -13    1    3    3    0    0 -0.15564573153E+03  0.14434122533E+03 -0.89141813217E+02  0.23023085357E+03  0.00000000000E+00 0. -1.
          2    1    6    6  502    0 -0.12236356618E+03 -0.29256719409E+03  0.12248216521E+03  0.33995630039E+03  0.00000000000E+00 0. -1.
          1    1    5    5  503    0  0.29555480267E+03  0.21547978564E+03 -0.37812397275E+03  0.52608166493E+03  0.00000000000E+00 0. -1.
         -4    1    5    5    0  503  0.83715222982E+01 -0.45616753038E+01 -0.10374086440E+01  0.95899678759E+01  0.00000000000E+00 0.  1.
         -1    1    6    6    0  502 -0.26163839309E+02 -0.52352291871E+02 -0.11114526667E+02  0.59572155027E+02  0.00000000000E+00 0.  1.
<mgrwt>
<rscale>  0 0.11223702E+04</rscale>
<asrwt>0</asrwt>
<pdfrwt beam="1">  1        2 0.11930063E+00 0.11223702E+04</pdfrwt>
<pdfrwt beam="2">  1       -2 0.62480259E-01 0.11223702E+04</pdfrwt>
<totfact> 0.84616194E+01</totfact>
</mgrwt>
</event>
<event>
12    1  0.1549527E-007  0.2119699E+04  0.7818608E-02  0.8552615E-01
         -2   -1    0    0    0  501 -0.00000000000E+00  0.00000000000E+00  0.11718080998E+04  0.11718080998E+04  0.00000000000E+00 0.  1.
          2   -1    0    0  501    0  0.00000000000E+00 -0.00000000000E+00 -0.95858790497E+03  0.95858790497E+03  0.00000000000E+00 0. -1.
         23    2    1    2    0    0  0.26992616539E+03  0.15525859538E+03  0.89987614990E+03  0.95693735644E+03  0.94797957767E+02 0.  0.
        254    2    1    2    0    0 -0.26992616539E+03 -0.15525859538E+03 -0.68665595509E+03  0.11734586483E+04  0.89919043168E+03 0.  0.
        -24    2    4    4    0    0 -0.25396583880E+03  0.29422775937E+03 -0.58296995252E+03  0.70524360167E+03  0.80286676937E+02 0.  0.
         24    2    4    4    0    0 -0.15960326590E+02 -0.44948635475E+03 -0.10368600257E+03  0.46821504663E+03  0.78624599424E+02 0.  0.
         11    1    3    3    0    0  0.27143336341E+03  0.13151342821E+03  0.82785438393E+03  0.88108724515E+03  0.00000000000E+00 0.  1.
        -11    1    3    3    0    0 -0.15071980246E+01  0.23745167169E+02  0.72021765962E+02  0.75850111286E+02  0.00000000000E+00 0. -1.
          2    1    6    6  502    0  0.10924623374E+01 -0.40848735647E+03 -0.74905825417E+02  0.41529988749E+03  0.00000000000E+00 0. -1.
          1    1    5    5  503    0 -0.23744175736E+03  0.29671553159E+03 -0.56207031574E+03  0.67848488167E+03  0.00000000000E+00 0. -1.
         -2    1    5    5    0  503 -0.16524081443E+02 -0.24877722250E+01 -0.20899636782E+02  0.26758719996E+02  0.00000000000E+00 0.  1.
         -1    1    6    6    0  502 -0.17052788927E+02 -0.40998998280E+02 -0.28780177150E+02  0.52915159141E+02  0.00000000000E+00 0.  1.
<mgrwt>
<rscale>  0 0.21196991E+04</rscale>
<asrwt>0</asrwt>
<pdfrwt beam="1">  1        2 0.14747506E+00 0.21196991E+04</pdfrwt>
<pdfrwt beam="2">  1       -2 0.18027817E+00 0.21196991E+04</pdfrwt>
<totfact> 0.44500419E+00</totfact>
</mgrwt>
</event>
<event>
12    1  0.1549527E-007  0.1526685E+04  0.7818608E-02  0.8866899E-01
         -2   -1    0    0    0  501 -0.00000000000E+00  0.00000000000E+00  0.12171129541E+04  0.12171129541E+04  0.00000000000E+00 0.  1.
          2   -1    0    0  501    0  0.00000000000E+00 -0.00000000000E+00 -0.47874894691E+03  0.47874894691E+03  0.00000000000E+00 0. -1.
         23    2    1    2    0    0 -0.18934148473E+02  0.26312717205E+03 -0.21777573441E+03  0.35413096927E+03  0.91586364955E+02 0.  0.
        254    2    1    2    0    0  0.18934148473E+02 -0.26312717205E+03  0.95613974163E+03  0.13417309318E+04  0.90357306130E+03 0.  0.
        -24    2    4    4    0    0  0.31183812998E+03 -0.45650416697E+03  0.72118977131E+03  0.91219927092E+03  0.79710412400E+02 0.  0.
         24    2    4    4    0    0 -0.29290398151E+03  0.19337699491E+03  0.23494997031E+03  0.42953166086E+03  0.78157242678E+02 0.  0.
         13    1    3    3    0    0 -0.33135737918E+02  0.14565586004E+03 -0.17057755895E+03  0.22673841825E+03  0.00000000000E+00 0. -1.
        -13    1    3    3    0    0  0.14201589445E+02  0.11747131201E+03 -0.47198175458E+02  0.12739255102E+03  0.00000000000E+00 0.  1.
          2    1    6    6  502    0 -0.13019769503E+02  0.36349511669E+02  0.23228238303E+02  0.45059432433E+02  0.00000000000E+00 0. -1.
          1    1    5    5  503    0  0.10385200431E+03 -0.96048973495E+02  0.16043291704E+03  0.21389101191E+03  0.00000000000E+00 0. -1.
         -2    1    5    5    0  503  0.20798612567E+03 -0.36045519347E+03  0.56075685428E+03  0.69830825900E+03  0.00000000000E+00 0.  1.
         -1    1    6    6    0  502 -0.27988421201E+03  0.15702748324E+03  0.21172173201E+03  0.38447222843E+03  0.00000000000E+00 0.  1.
<mgrwt>
<rscale>  0 0.15266847E+04</rscale>
<asrwt>0</asrwt>
<pdfrwt beam="1">  1        2 0.73653685E-01 0.15266847E+04</pdfrwt>
<pdfrwt beam="2">  1       -2 0.18724815E+00 0.15266847E+04</pdfrwt>
<totfact> 0.10091028E+01</totfact>
</mgrwt>
</event>
<event>
12    1  0.1549527E-007  0.2185493E+04  0.7818608E-02  0.8524490E-01
          2   -1    0    0  501    0  0.00000000000E+00  0.00000000000E+00  0.13098719283E+04  0.13098719283E+04  0.00000000000E+00 0. -1.
         -2   -1    0    0    0  501 -0.00000000000E+00 -0.00000000000E+00 -0.91161222848E+03  0.91161222848E+03  0.00000000000E+00 0.  1.
         23    2    1    2    0    0 -0.53398984654E+02  0.83931554104E+03  0.53190032355E+03  0.99961667349E+03  0.94939510848E+02 0.  0.
        254    2    1    2    0    0  0.53398984654E+02 -0.83931554104E+03 -0.13364062377E+03  0.12218674833E+04  0.87624100641E+03 0.  0.
        -24    2    4    4    0    0  0.42951704915E+03 -0.65062911585E+03 -0.63236669965E+02  0.78669484404E+03  0.84182892002E+02 0.  0.
         24    2    4    4    0    0 -0.37611806450E+03 -0.18868642519E+03 -0.70403953802E+02  0.43517263922E+03  0.85738811051E+02 0.  0.
         11    1    3    3    0    0 -0.55976635839E+02  0.52592112801E+03  0.38060960927E+03  0.65160577907E+03  0.00000000000E+00 0. -1.
        -11    1    3    3    0    0  0.25776511848E+01  0.31339441303E+03  0.15129071428E+03  0.34801089442E+03  0.00000000000E+00 0.  1.
          2    1    6    6  502    0 -0.63378805976E+02 -0.47772349550E+02 -0.44945169094E+02  0.91209312317E+02  0.00000000000E+00 0. -1.
          3    1    5    5  503    0  0.40426813927E+02 -0.11043518639E+03 -0.22351744828E+02  0.11970738563E+03  0.00000000000E+00 0. -1.
         -4    1    5    5    0  503  0.38909023522E+03 -0.54019392945E+03 -0.40884925137E+02  0.66698745840E+03  0.00000000000E+00 0.  1.
         -1    1    6    6    0  502 -0.31273925852E+03 -0.14091407564E+03 -0.25458784709E+02  0.34396332690E+03  0.00000000000E+00 0.  1.
<mgrwt>
<rscale>  0 0.21854933E+04</rscale>
<asrwt>0</asrwt>
<pdfrwt beam="1">  1        2 0.20151876E+00 0.21854933E+04</pdfrwt>
<pdfrwt beam="2">  1       -2 0.14024804E+00 0.21854933E+04</pdfrwt>
<totfact> 0.53381590E+00</totfact>
</mgrwt>
</event>
<event>
12    1  0.1549527E-007  0.1743925E+04  0.7818608E-02  0.8736702E-01
          2   -1    0    0  501    0  0.00000000000E+00  0.00000000000E+00  0.10763070103E+04  0.10763070103E+04  0.00000000000E+00 0. -1.
         -2   -1    0    0    0  501 -0.00000000000E+00 -0.00000000000E+00 -0.70641390821E+03  0.70641390821E+03  0.00000000000E+00 0.  1.
         23    2    1    2    0    0  0.31522534439E+03  0.24156644295E+03 -0.36748040267E+03  0.54865076182E+03  0.90853992682E+02 0.  0.
        254    2    1    2    0    0 -0.31522534439E+03 -0.24156644295E+03  0.73737350474E+03  0.12340701567E+04  0.90635980825E+03 0.  0.
        -24    2    4    4    0    0  0.19305425466E+02  0.31752959555E+03  0.30719964618E+03  0.44929197872E+03  0.79334204672E+02 0.  0.
         24    2    4    4    0    0 -0.33453076985E+03 -0.55909603850E+03  0.43017385856E+03  0.78477817796E+03  0.79548876618E+02 0.  0.
         11    1    3    3    0    0  0.17856301058E+02  0.49450253339E+02 -0.36517076599E+02  0.64013060590E+02  0.00000000000E+00 0. -1.
        -11    1    3    3    0    0  0.29736904333E+03  0.19211618961E+03 -0.33096332608E+03  0.48463770123E+03  0.00000000000E+00 0.  1.
          4    1    6    6  502    0 -0.15920924308E+03 -0.29723358111E+03  0.17875708902E+03  0.38164051369E+03  0.00000000000E+00 0. -1.
          1    1    5    5  503    0 -0.27395981777E+01  0.64498606288E+02  0.11076355719E+03  0.12820351482E+03  0.00000000000E+00 0. -1.
         -2    1    5    5    0  503  0.22045023643E+02  0.25303098926E+03  0.19643608899E+03  0.32108846390E+03  0.00000000000E+00 0.  1.
         -1    1    6    6    0  502 -0.17532152678E+03 -0.26186245739E+03  0.25141676955E+03  0.40313766427E+03  0.00000000000E+00 0.  1.
<mgrwt>
<rscale>  0 0.17439246E+04</rscale>
<asrwt>0</asrwt>
<pdfrwt beam="1">  1        2 0.16558569E+00 0.17439246E+04</pdfrwt>
<pdfrwt beam="2">  1       -2 0.10867906E+00 0.17439246E+04</pdfrwt>
<totfact> 0.14460067E+01</totfact>
</mgrwt>
</event>
<event>
12    1  0.1622647E-007  0.2189777E+04  0.7818608E-02  0.8522695E-01
          2   -1    0    0  501    0  0.00000000000E+00  0.00000000000E+00  0.84605147551E+03  0.84605147551E+03  0.00000000000E+00 0. -1.
         -2   -1    0    0    0  501 -0.00000000000E+00 -0.00000000000E+00 -0.14169123362E+04  0.14169123362E+04  0.00000000000E+00 0.  1.
         23    2    1    2    0    0 -0.24343713584E+03  0.41930554782E+03  0.55355954835E+03  0.74153954711E+03  0.91509260809E+02 0.  0.
        254    2    1    2    0    0  0.24343713584E+03 -0.41930554782E+03 -0.11244204090E+04  0.15214242646E+04  0.90295722771E+03 0.  0.
        -24    2    4    4    0    0 -0.73810910110E+01 -0.63677087217E+03 -0.92553391746E+03  0.11262867825E+04  0.79857747882E+02 0.  0.
         24    2    4    4    0    0  0.25081822685E+03  0.21746532435E+03 -0.19888649154E+03  0.39513748207E+03  0.79855137617E+02 0.  0.
         11    1    3    3    0    0 -0.19886854218E+03  0.31454755244E+03  0.36489830065E+03  0.52119058859E+03  0.00000000000E+00 0.  1.
        -11    1    3    3    0    0 -0.44568593662E+02  0.10475799538E+03  0.18866124770E+03  0.22034895852E+03  0.00000000000E+00 0. -1.
          2    1    6    6  502    0  0.24805399505E+01 -0.86457017292E+00 -0.18076577079E+02  0.18266450090E+02  0.00000000000E+00 0. -1.
          1    1    5    5  503    0 -0.15455729346E+01  0.14689893260E+01 -0.15480766583E+00  0.21379173860E+01  0.00000000000E+00 0. -1.
         -2    1    5    5    0  503 -0.58355180764E+01 -0.63823986149E+03 -0.92537910980E+03  0.11241488651E+04  0.00000000000E+00 0.  1.
         -1    1    6    6    0  502  0.24833768690E+03  0.21832989452E+03 -0.18080991446E+03  0.37687103198E+03  0.00000000000E+00 0.  1.
<mgrwt>
<rscale>  0 0.21897769E+04</rscale>
<asrwt>0</asrwt>
<pdfrwt beam="1">  1        2 0.13016177E+00 0.21897769E+04</pdfrwt>
<pdfrwt beam="2">  1       -2 0.21798651E+00 0.21897769E+04</pdfrwt>
<totfact> 0.29731706E+00</totfact>
</mgrwt>
</event>
<event>
12    1  0.1549527E-007  0.1795689E+04  0.7818608E-02  0.8708595E-01
          4   -1    0    0  501    0  0.00000000000E+00  0.00000000000E+00  0.12223746551E+04  0.12223746551E+04  0.00000000000E+00 0. -1.
         -4   -1    0    0    0  501 -0.00000000000E+00 -0.00000000000E+00 -0.65947425363E+03  0.65947425363E+03  0.00000000000E+00 0.  1.
         23    2    1    2    0    0  0.61286055327E+03 -0.21166721868E+03  0.44968583456E+02  0.65595312971E+03  0.88607367936E+02 0.  0.
        254    2    1    2    0    0 -0.61286055327E+03  0.21166721868E+03  0.51793181799E+03  0.12258957790E+04  0.90231148926E+03 0.  0.
        -24    2    4    4    0    0 -0.65995837712E+03  0.29412441589E+03  0.35726108966E+02  0.72788237340E+03  0.80511881696E+02 0.  0.
         24    2    4    4    0    0  0.47097823848E+02 -0.82457197216E+02  0.48220570902E+03  0.49801340559E+03  0.80483612936E+02 0.  0.
         11    1    3    3    0    0  0.42222833167E+02 -0.12831422613E+01 -0.14982358804E+02  0.44820588685E+02  0.00000000000E+00 0.  1.
        -11    1    3    3    0    0  0.57063772011E+03 -0.21038407642E+03  0.59950942260E+02  0.61113254102E+03  0.00000000000E+00 0. -1.
          2    1    6    6  502    0  0.58870022309E+02 -0.43841540099E+02  0.20216424678E+03  0.21507706257E+03  0.00000000000E+00 0. -1.
          3    1    5    5  503    0 -0.12868002035E+03  0.26200052483E+02  0.18531079638E+02  0.13262123246E+03  0.00000000000E+00 0. -1.
         -2    1    5    5    0  503 -0.53127835678E+03  0.26792436341E+03  0.17195029328E+02  0.59526114095E+03  0.00000000000E+00 0.  1.
         -1    1    6    6    0  502 -0.11772198462E+02 -0.38615657117E+02  0.28004146224E+03  0.28293634302E+03  0.00000000000E+00 0.  1.
<mgrwt>
<rscale>  0 0.17956889E+04</rscale>
<asrwt>0</asrwt>
<pdfrwt beam="1">  1        4 0.18805764E+00 0.17956889E+04</pdfrwt>
<pdfrwt beam="2">  1       -4 0.10145758E+00 0.17956889E+04</pdfrwt>
<totfact> 0.23844395E-01</totfact>
</mgrwt>
</event>
<event>
12    1  0.1549527E-007  0.2167015E+04  0.7818608E-02  0.8532284E-01
         -1   -1    0    0    0  501 -0.00000000000E+00  0.00000000000E+00  0.55369718562E+03  0.55369718562E+03  0.00000000000E+00 0.  1.
          1   -1    0    0  501    0  0.00000000000E+00 -0.00000000000E+00 -0.21202713154E+04  0.21202713154E+04  0.00000000000E+00 0. -1.
         23    2    1    2    0    0  0.41699713922E+03  0.36348191871E+03  0.21776483580E+03  0.60177855907E+03  0.93328404546E+02 0.  0.
        254    2    1    2    0    0 -0.41699713922E+03 -0.36348191871E+03 -0.17843389656E+04  0.20721899420E+04  0.89671617144E+03 0.  0.
        -24    2    4    4    0    0  0.12860789987E+03  0.41828783986E+02  0.36169493104E+01  0.15774464699E+03  0.81121219505E+02 0.  0.
         24    2    4    4    0    0 -0.54560503909E+03 -0.40531070270E+03 -0.17879559149E+04  0.19144452950E+04  0.79704513086E+02 0.  0.
         13    1    3    3    0    0  0.40257968050E+03  0.31850093885E+03  0.19276183416E+03  0.54833417905E+03  0.00000000000E+00 0.  1.
        -13    1    3    3    0    0  0.14417458719E+02  0.44980979856E+02  0.25003001635E+02  0.53444380018E+02  0.00000000000E+00 0. -1.
          2    1    6    6  502    0 -0.42444793719E+03 -0.35028965684E+03 -0.14781422999E+04  0.15772645795E+04  0.00000000000E+00 0. -1.
          1    1    5    5  503    0  0.12901109123E+03  0.25051229746E+02  0.21558640031E+02  0.13317732814E+03  0.00000000000E+00 0. -1.
         -2    1    5    5    0  503 -0.40319135753E+00  0.16777554240E+02 -0.17941690720E+02  0.24567318850E+02  0.00000000000E+00 0.  1.
         -1    1    6    6    0  502 -0.12115710190E+03 -0.55021045853E+02 -0.30981361500E+03  0.33718071545E+03  0.00000000000E+00 0.  1.
<mgrwt>
<rscale>  0 0.21670148E+04</rscale>
<asrwt>0</asrwt>
<pdfrwt beam="1">  1        1 0.32619559E+00 0.21670148E+04</pdfrwt>
<pdfrwt beam="2">  1       -1 0.85184182E-01 0.21670148E+04</pdfrwt>
<totfact> 0.30755499E+00</totfact>
</mgrwt>
</event>
<event>
12    1  0.1549527E-007  0.3523793E+04  0.7818608E-02  0.8108174E-01
         -1   -1    0    0    0  501 -0.00000000000E+00  0.00000000000E+00  0.20651462259E+04  0.20651462259E+04  0.00000000000E+00 0.  1.
          1   -1    0    0  501    0  0.00000000000E+00 -0.00000000000E+00 -0.15031763898E+04  0.15031763898E+04  0.00000000000E+00 0. -1.
         23    2    1    2    0    0 -0.14549357687E+04 -0.64403490554E+03 -0.16501100232E+03  0.16023226834E+04  0.92683872723E+02 0.  0.
        254    2    1    2    0    0  0.14549357687E+04  0.64403490554E+03  0.72698083839E+03  0.19659999323E+04  0.89723772986E+03 0.  0.
        -24    2    4    4    0    0  0.12884001597E+04  0.72557312051E+03  0.87025910578E+03  0.17175403391E+04  0.78502105070E+02 0.  0.
         24    2    4    4    0    0  0.16653560900E+03 -0.81538214968E+02 -0.14327826739E+03  0.24845959322E+03  0.82588849073E+02 0.  0.
         13    1    3    3    0    0 -0.91479880345E+03 -0.44323531402E+03 -0.77618720193E+02  0.10194797988E+04  0.00000000000E+00 0. -1.
        -13    1    3    3    0    0 -0.54013696526E+03 -0.20079959152E+03 -0.87392282131E+02  0.58284288463E+03  0.00000000000E+00 0.  1.
          2    1    6    6  502    0  0.32488565886E+02 -0.58544820543E+02 -0.49158392857E+02  0.83063532998E+02  0.00000000000E+00 0. -1.
          3    1    5    5  503    0  0.64755330685E+03  0.33501543521E+03  0.39458577185E+03  0.82901059003E+03  0.00000000000E+00 0. -1.
         -4    1    5    5    0  503  0.64084685286E+03  0.39055768529E+03  0.47567333393E+03  0.88852974907E+03  0.00000000000E+00 0.  1.
         -1    1    6    6    0  502  0.13404704311E+03 -0.22993394425E+02 -0.94119874535E+02  0.16539606022E+03  0.00000000000E+00 0.  1.
<mgrwt>
<rscale>  0 0.35237929E+04</rscale>
<asrwt>0</asrwt>
<pdfrwt beam="1">  1        1 0.23125791E+00 0.35237929E+04</pdfrwt>
<pdfrwt beam="2">  1       -1 0.31771480E+00 0.35237929E+04</pdfrwt>
<totfact> 0.13420342E-01</totfact>
</mgrwt>
</event>
<event>
12    1  0.1549527E-007  0.1627206E+04  0.7818608E-02  0.8804006E-01
          2   -1    0    0  501    0  0.00000000000E+00  0.00000000000E+00  0.24616403846E+04  0.24616403846E+04  0.00000000000E+00 0. -1.
         -2   -1    0    0    0  501 -0.00000000000E+00 -0.00000000000E+00 -0.26890598611E+03  0.26890598611E+03  0.00000000000E+00 0.  1.
         23    2    1    2    0    0  0.22954015850E+03 -0.37305469367E+03  0.16494104017E+03  0.47652688515E+03  0.89520035213E+02 0.  0.
        254    2    1    2    0    0 -0.22954015850E+03  0.37305469367E+03  0.20277933584E+04  0.22540194856E+04  0.88136226855E+03 0.  0.
        -24    2    4    4    0    0 -0.28738463892E+02  0.62349005216E+03  0.15496175366E+04  0.16725519121E+04  0.80929874629E+02 0.  0.
         24    2    4    4    0    0 -0.20080169461E+03 -0.25043535849E+03  0.47817582175E+03  0.58146757346E+03  0.80082664352E+02 0.  0.
         13    1    3    3    0    0  0.14426575738E+03 -0.28949415684E+03  0.90659777063E+02  0.33591467782E+03  0.00000000000E+00 0.  1.
        -13    1    3    3    0    0  0.85274401116E+02 -0.83560536824E+02  0.74281263103E+02  0.14061220732E+03  0.00000000000E+00 0. -1.
          4    1    6    6  502    0 -0.19053058663E+03 -0.24591141645E+03  0.42250039109E+03  0.52467219257E+03  0.00000000000E+00 0. -1.
          3    1    5    5  503    0 -0.40048420952E+01  0.57304209366E+03  0.14208943809E+04  0.15321012113E+04  0.00000000000E+00 0. -1.
         -4    1    5    5    0  503 -0.24733621797E+02  0.50447958497E+02  0.12872315568E+03  0.14045070086E+03  0.00000000000E+00 0.  1.
         -3    1    6    6    0  502 -0.10271107981E+02 -0.45239420407E+01  0.55675430661E+02  0.56795380887E+02  0.00000000000E+00 0.  1.
<mgrwt>
<rscale>  0 0.16272060E+04</rscale>
<asrwt>0</asrwt>
<pdfrwt beam="1">  1        2 0.37871389E+00 0.16272060E+04</pdfrwt>
<pdfrwt beam="2">  1       -2 0.41370153E-01 0.16272060E+04</pdfrwt>
<totfact> 0.19441148E+01</totfact>
</mgrwt>
</event>
<event>
12    1  0.1549527E-007  0.1286974E+04  0.7818608E-02  0.9039959E-01
          1   -1    0    0  501    0  0.00000000000E+00  0.00000000000E+00  0.32084818017E+03  0.32084818017E+03  0.00000000000E+00 0. -1.
         -1   -1    0    0    0  501 -0.00000000000E+00 -0.00000000000E+00 -0.12905661161E+04  0.12905661161E+04  0.00000000000E+00 0.  1.
         23    2    1    2    0    0  0.25285692865E+03 -0.17732743794E+03 -0.30043064063E+03  0.44071051456E+03  0.92658195548E+02 0.  0.
        254    2    1    2    0    0 -0.25285692865E+03  0.17732743794E+03 -0.66928729526E+03  0.11707037817E+04  0.90951647275E+03 0.  0.
        -24    2    4    4    0    0  0.29093986504E+03  0.26611869525E+03 -0.24830747164E+03  0.47278389016E+03  0.80017756072E+02 0.  0.
         24    2    4    4    0    0 -0.54379679369E+03 -0.88791257306E+02 -0.42097982362E+03  0.69791989151E+03  0.79179055777E+02 0.  0.
         11    1    3    3    0    0  0.22928412970E+03 -0.15424450043E+03 -0.29977691248E+03  0.40771163253E+03  0.00000000000E+00 0.  1.
        -11    1    3    3    0    0  0.23572798948E+02 -0.23082937508E+02 -0.65372814298E+00  0.32998882022E+02  0.00000000000E+00 0. -1.
          2    1    6    6  502    0 -0.48242141026E+03 -0.60228783494E+02 -0.34489904497E+03  0.59608160067E+03  0.00000000000E+00 0. -1.
          3    1    5    5  503    0  0.97908591370E+02  0.46767870119E+02 -0.86623170174E+02  0.13884127467E+03  0.00000000000E+00 0. -1.
         -4    1    5    5    0  503  0.19303127367E+03  0.21935082513E+03 -0.16168430147E+03  0.33394261549E+03  0.00000000000E+00 0.  1.
         -1    1    6    6    0  502 -0.61375383428E+02 -0.28562473813E+02 -0.76080778651E+02  0.10183829084E+03  0.00000000000E+00 0.  1.
<mgrwt>
<rscale>  0 0.12869744E+04</rscale>
<asrwt>0</asrwt>
<pdfrwt beam="1">  1        1 0.49361259E-01 0.12869744E+04</pdfrwt>
<pdfrwt beam="2">  1       -1 0.19854863E+00 0.12869744E+04</pdfrwt>
<totfact> 0.12163393E+01</totfact>
</mgrwt>
</event>
<event>
12    1  0.1549527E-007  0.3047135E+04  0.7818608E-02  0.8230398E-01
          1   -1    0    0  501    0  0.00000000000E+00  0.00000000000E+00  0.17359008456E+04  0.17359008456E+04  0.00000000000E+00 0. -1.
         -1   -1    0    0    0  501 -0.00000000000E+00 -0.00000000000E+00 -0.13372068296E+04  0.13372068296E+04  0.00000000000E+00 0.  1.
         23    2    1    2    0    0  0.67368512485E+03 -0.59584316244E+03  0.12480430616E+04  0.15410139149E+04  0.90728609892E+02 0.  0.
        254    2    1    2    0    0 -0.67368512485E+03  0.59584316244E+03 -0.84934904560E+03  0.15320937602E+04  0.90390086139E+03 0.  0.
        -24    2    4    4    0    0 -0.20912010811E+03  0.37437608558E+03 -0.90781552769E+03  0.10071712342E+04  0.79851046097E+02 0.  0.
         24    2    4    4    0    0 -0.46456501674E+03  0.22146707686E+03  0.58466482082E+02  0.52492252607E+03  0.85188073908E+02 0.  0.
         11    1    3    3    0    0  0.17544889324E+03 -0.20847925820E+03  0.39649272047E+03  0.48109499335E+03  0.00000000000E+00 0.  1.
        -11    1    3    3    0    0  0.49823623161E+03 -0.38736390424E+03  0.85155034113E+03  0.10599189216E+04  0.00000000000E+00 0. -1.
          2    1    6    6  502    0 -0.86190243378E+02  0.24539976312E+02 -0.18435855438E+02  0.91492345345E+02  0.00000000000E+00 0. -1.
          1    1    5    5  503    0 -0.74788535540E+01  0.73569851587E+02 -0.14571397221E+03  0.16340446141E+03  0.00000000000E+00 0. -1.
         -4    1    5    5    0  503 -0.20164125456E+03  0.30080623400E+03 -0.76210155548E+03  0.84376677276E+03  0.00000000000E+00 0.  1.
         -1    1    6    6    0  502 -0.37837477336E+03  0.19692710054E+03  0.76902337519E+02  0.43343018072E+03  0.00000000000E+00 0.  1.
<mgrwt>
<rscale>  0 0.30471354E+04</rscale>
<asrwt>0</asrwt>
<pdfrwt beam="1">  1        1 0.26706167E+00 0.30471354E+04</pdfrwt>
<pdfrwt beam="2">  1       -1 0.20572413E+00 0.30471354E+04</pdfrwt>
<totfact> 0.52496103E-01</totfact>
</mgrwt>
</event>
<event>
12    1  0.1549527E-007  0.1549482E+04  0.7818608E-02  0.8852199E-01
         -2   -1    0    0    0  501 -0.00000000000E+00  0.00000000000E+00  0.22992299912E+03  0.22992299912E+03  0.00000000000E+00 0.  1.
          2   -1    0    0  501    0  0.00000000000E+00 -0.00000000000E+00 -0.26105427434E+04  0.26105427434E+04  0.00000000000E+00 0. -1.
         23    2    1    2    0    0  0.45341661672E+03 -0.13977280644E+03 -0.11337886770E+04  0.12324168896E+04  0.90838097424E+02 0.  0.
        254    2    1    2    0    0 -0.45341661672E+03  0.13977280644E+03 -0.12468310673E+04  0.16080488529E+04  0.89783647583E+03 0.  0.
        -24    2    4    4    0    0  0.23860535912E+03 -0.91924797704E+02 -0.21910978177E+03  0.34501129030E+03  0.75106645054E+02 0.  0.
         24    2    4    4    0    0 -0.69202197585E+03  0.23169760414E+03 -0.10277212855E+04  0.12630375626E+04  0.80465204303E+02 0.  0.
         11    1    3    3    0    0  0.20728216775E+03 -0.70337958052E+02 -0.40994911695E+03  0.46472745120E+03  0.00000000000E+00 0. -1.
        -11    1    3    3    0    0  0.24613444897E+03 -0.69434848388E+02 -0.72383956008E+03  0.76768943843E+03  0.00000000000E+00 0.  1.
          2    1    6    6  502    0 -0.15417567513E+03  0.40085677940E+02 -0.17317894514E+03  0.23530394688E+03  0.00000000000E+00 0. -1.
          1    1    5    5  503    0  0.12115836393E+03 -0.94425041044E+01 -0.82593718965E+02  0.14693615092E+03  0.00000000000E+00 0. -1.
         -2    1    5    5    0  503  0.11744699520E+03 -0.82482293600E+02 -0.13651606281E+03  0.19807513938E+03  0.00000000000E+00 0.  1.
         -3    1    6    6    0  502 -0.53784630072E+03  0.19161192620E+03 -0.85454234037E+03  0.10277336158E+04  0.00000000000E+00 0.  1.
<mgrwt>
<rscale>  0 0.15494823E+04</rscale>
<asrwt>0</asrwt>
<pdfrwt beam="1">  1        2 0.40162197E+00 0.15494823E+04</pdfrwt>
<pdfrwt beam="2">  1       -2 0.35372768E-01 0.15494823E+04</pdfrwt>
<totfact> 0.21748270E+01</totfact>
</mgrwt>
</event>
<event>
12    1  0.1549527E-007  0.1194748E+04  0.7818608E-02  0.9117466E-01
         -1   -1    0    0    0  501 -0.00000000000E+00  0.00000000000E+00  0.11187527524E+04  0.11187527524E+04  0.00000000000E+00 0.  1.
          1   -1    0    0  501    0  0.00000000000E+00 -0.00000000000E+00 -0.31897644058E+03  0.31897644058E+03  0.00000000000E+00 0. -1.
         23    2    1    2    0    0  0.11707075659E+03  0.13146177528E+03  0.37447550227E+03  0.42358672663E+03  0.90587266044E+02 0.  0.
        254    2    1    2    0    0 -0.11707075659E+03 -0.13146177528E+03  0.42530080951E+03  0.10141424663E+04  0.90366830364E+03 0.  0.
        -24    2    4    4    0    0  0.16557329500E+03 -0.13192340902E+03 -0.21378123410E+03  0.31114275686E+03  0.79303828590E+02 0.  0.
         24    2    4    4    0    0 -0.28264405159E+03  0.46163374445E+00  0.63908204362E+03  0.70299970945E+03  0.76777991729E+02 0.  0.
         11    1    3    3    0    0  0.72665199794E+02  0.74877732173E+02  0.30965139154E+03  0.32675815264E+03  0.00000000000E+00 0. -1.
        -11    1    3    3    0    0  0.44405556794E+02  0.56584043107E+02  0.64824110732E+02  0.96828573989E+02  0.00000000000E+00 0.  1.
          2    1    6    6  502    0 -0.17894396986E+02 -0.18938600501E+02  0.39996335406E+02  0.47734545963E+02  0.00000000000E+00 0. -1.
          3    1    5    5  503    0  0.19441103791E+02 -0.28415437345E+02 -0.29979246692E+01  0.34559819856E+02  0.00000000000E+00 0. -1.
         -2    1    5    5    0  503  0.14613219121E+03 -0.10350797168E+03 -0.21078330943E+03  0.27658293701E+03  0.00000000000E+00 0.  1.
         -1    1    6    6    0  502 -0.26474965460E+03  0.19400234245E+02  0.59908570821E+03  0.65526516349E+03  0.00000000000E+00 0.  1.
<mgrwt>
<rscale>  0 0.11947481E+04</rscale>
<asrwt>0</asrwt>
<pdfrwt beam="1">  1        1 0.49073299E-01 0.11947481E+04</pdfrwt>
<pdfrwt beam="2">  1       -1 0.17211581E+00 0.11947481E+04</pdfrwt>
<totfact> 0.19019922E+01</totfact>
</mgrwt>
</event>
<event>
12    1  0.1549527E-007  0.1899777E+04  0.7818608E-02  0.8654968E-01
         -1   -1    0    0    0  501 -0.00000000000E+00  0.00000000000E+00  0.73086434856E+03  0.73086434856E+03  0.00000000000E+00 0.  1.
          1   -1    0    0  501    0  0.00000000000E+00 -0.00000000000E+00 -0.12345490261E+04  0.12345490261E+04  0.00000000000E+00 0. -1.
         23    2    1    2    0    0 -0.42741091899E+03 -0.26347774925E+03  0.35277094088E+03  0.62068648980E+03  0.93293964839E+02 0.  0.
        254    2    1    2    0    0  0.42741091899E+03  0.26347774925E+03 -0.85645561842E+03  0.13447268849E+04  0.90701353383E+03 0.  0.
        -24    2    4    4    0    0 -0.23378071307E+03  0.15365624832E+03 -0.50779785810E+03  0.58537875876E+03  0.80907119952E+02 0.  0.
         24    2    4    4    0    0  0.66119163205E+03  0.10982150092E+03 -0.34865776032E+03  0.75934812612E+03  0.76237828166E+02 0.  0.
         11    1    3    3    0    0 -0.35136022635E+03 -0.24371461845E+03  0.26585617228E+03  0.50351795225E+03  0.00000000000E+00 0.  1.
        -11    1    3    3    0    0 -0.76050692639E+02 -0.19763130799E+02  0.86914768599E+02  0.11716853755E+03  0.00000000000E+00 0. -1.
          2    1    6    6  502    0  0.25640532442E+03  0.78035539317E+01 -0.14837631034E+03  0.29634458881E+03  0.00000000000E+00 0. -1.
          3    1    5    5  503    0 -0.74286995556E+02  0.56712190896E+02 -0.99875882882E+02  0.13678458351E+03  0.00000000000E+00 0. -1.
         -4    1    5    5    0  503 -0.15949371751E+03  0.96944057426E+02 -0.40792197522E+03  0.44859417525E+03  0.00000000000E+00 0.  1.
         -1    1    6    6    0  502  0.40478630763E+03  0.10201794699E+03 -0.20028144998E+03  0.46300353731E+03  0.00000000000E+00 0.  1.
<mgrwt>
<rscale>  0 0.18997767E+04</rscale>
<asrwt>0</asrwt>
<pdfrwt beam="1">  1        1 0.18993062E+00 0.18997767E+04</pdfrwt>
<pdfrwt beam="2">  1       -1 0.11244067E+00 0.18997767E+04</pdfrwt>
<totfact> 0.68349087E+00</totfact>
</mgrwt>
</event>
<event>
12    1  0.1549527E-007  0.1770004E+04  0.7818608E-02  0.8722415E-01
          1   -1    0    0  501    0  0.00000000000E+00  0.00000000000E+00  0.11702617531E+04  0.11702617531E+04  0.00000000000E+00 0. -1.
         -1   -1    0    0    0  501 -0.00000000000E+00 -0.00000000000E+00 -0.66927656625E+03  0.66927656625E+03  0.00000000000E+00 0.  1.
         23    2    1    2    0    0 -0.59811838401E+03 -0.48291863318E+01  0.45485765257E+03  0.75674572013E+03  0.89440921867E+02 0.  0.
        254    2    1    2    0    0  0.59811838401E+03  0.48291863318E+01  0.46127534280E+02  0.10827925992E+04  0.90141174898E+03 0.  0.
        -24    2    4    4    0    0  0.46960613731E+03 -0.24697605258E+03 -0.31072612768E+03  0.62052168805E+03  0.83482597992E+02 0.  0.
         24    2    4    4    0    0  0.12851224670E+03  0.25180523891E+03  0.35685366196E+03  0.46227091118E+03  0.80178447043E+02 0.  0.
         11    1    3    3    0    0 -0.44393427843E+03 -0.18938229928E+02  0.38047602479E+03  0.58497718380E+03  0.00000000000E+00 0. -1.
        -11    1    3    3    0    0 -0.15418410558E+03  0.14109043596E+02  0.74381627776E+02  0.17176853633E+03  0.00000000000E+00 0.  1.
          2    1    6    6  502    0  0.64856115215E+02  0.83129790297E+02  0.82024585842E+02  0.13358484345E+03  0.00000000000E+00 0. -1.
          1    1    5    5  503    0  0.22913473820E+03 -0.13963675658E+03 -0.11271633121E+03  0.29104316408E+03  0.00000000000E+00 0. -1.
         -2    1    5    5    0  503  0.24047139911E+03 -0.10733929600E+03 -0.19800979647E+03  0.32947852396E+03  0.00000000000E+00 0.  1.
         -1    1    6    6    0  502  0.63656131489E+02  0.16867544862E+03  0.27482907612E+03  0.32868606774E+03  0.00000000000E+00 0.  1.
<mgrwt>
<rscale>  0 0.17700043E+04</rscale>
<asrwt>0</asrwt>
<pdfrwt beam="1">  1        1 0.18004027E+00 0.17700043E+04</pdfrwt>
<pdfrwt beam="2">  1       -1 0.10296563E+00 0.17700043E+04</pdfrwt>
<totfact> 0.94730840E+00</totfact>
</mgrwt>
</event>
<event>
12    1  0.1549527E-007  0.1939209E+04  0.7818608E-02  0.8635582E-01
          1   -1    0    0  501    0  0.00000000000E+00  0.00000000000E+00  0.17828528101E+04  0.17828528101E+04  0.00000000000E+00 0. -1.
         -1   -1    0    0    0  501 -0.00000000000E+00 -0.00000000000E+00 -0.52731955226E+03  0.52731955226E+03  0.00000000000E+00 0.  1.
         23    2    1    2    0    0 -0.56528728309E+03  0.44667248035E+03  0.77084714699E+03  0.10591250118E+04  0.92056773320E+02 0.  0.
        254    2    1    2    0    0  0.56528728309E+03 -0.44667248035E+03  0.48468611083E+03  0.12510473505E+04  0.90062913015E+03 0.  0.
        -24    2    4    4    0    0  0.46113873302E+03 -0.62151313838E+03  0.68037645103E+02  0.78107027223E+03  0.80710202203E+02 0.  0.
         24    2    4    4    0    0  0.10414855007E+03  0.17484065803E+03  0.41664846573E+03  0.46997707829E+03  0.76591996566E+02 0.  0.
         11    1    3    3    0    0 -0.40573944270E+03  0.29483235197E+03  0.58814707538E+03  0.77296027932E+03  0.00000000000E+00 0. -1.
        -11    1    3    3    0    0 -0.15954784039E+03  0.15184012838E+03  0.18270007161E+03  0.28616473250E+03  0.00000000000E+00 0.  1.
          2    1    6    6  502    0  0.36461516014E+02  0.13142770109E+03  0.24437511074E+03  0.27986046079E+03  0.00000000000E+00 0. -1.
          1    1    5    5  503    0  0.27486803012E+03 -0.32821364655E+03  0.68913859904E+02  0.43361936287E+03  0.00000000000E+00 0. -1.
         -2    1    5    5    0  503  0.18627070289E+03 -0.29329949183E+03 -0.87621480060E+00  0.34745090936E+03  0.00000000000E+00 0.  1.
         -3    1    6    6    0  502  0.67687034061E+02  0.43412956945E+02  0.17227335499E+03  0.19011661750E+03  0.00000000000E+00 0.  1.
<mgrwt>
<rscale>  0 0.19392093E+04</rscale>
<asrwt>0</asrwt>
<pdfrwt beam="1">  1        1 0.27428505E+00 0.19392093E+04</pdfrwt>
<pdfrwt beam="2">  1       -1 0.81126086E-01 0.19392093E+04</pdfrwt>
<totfact> 0.59076274E+00</totfact>
</mgrwt>
</event>
<event>
12    1  0.1549527E-007  0.1054356E+04  0.7818608E-02  0.9250858E-01
          2   -1    0    0  501    0  0.00000000000E+00  0.00000000000E+00  0.84554920093E+03  0.84554920093E+03  0.00000000000E+00 0. -1.
         -2   -1    0    0    0  501 -0.00000000000E+00 -0.00000000000E+00 -0.32868180944E+03  0.32868180944E+03  0.00000000000E+00 0.  1.
         23    2    1    2    0    0  0.62589817249E+02 -0.24494260051E+02  0.17115067989E+03  0.20506626940E+03  0.90786373535E+02 0.  0.
        254    2    1    2    0    0 -0.62589817249E+02  0.24494260051E+02  0.34571671159E+03  0.96916474097E+03  0.90290796678E+03 0.  0.
        -24    2    4    4    0    0 -0.13039429784E+03  0.30027360530E+03  0.52507078321E+03  0.62390106280E+03  0.79914315627E+02 0.  0.
         24    2    4    4    0    0  0.67804480588E+02 -0.27577934524E+03 -0.17935407162E+03  0.34526367817E+03  0.79921396412E+02 0.  0.
         11    1    3    3    0    0  0.30490088326E+02 -0.75456773448E+00  0.16101111525E+03  0.16387432408E+03  0.00000000000E+00 0. -1.
        -11    1    3    3    0    0  0.32099728923E+02 -0.23739692316E+02  0.10139564642E+02  0.41191945321E+02  0.00000000000E+00 0.  1.
          2    1    6    6  502    0  0.34466330154E+02 -0.54939090066E+02 -0.73757651964E+02  0.98216204135E+02  0.00000000000E+00 0. -1.
          3    1    5    5  503    0 -0.11321264400E+03  0.23220619137E+03  0.46299556173E+03  0.53019025666E+03  0.00000000000E+00 0. -1.
         -4    1    5    5    0  503 -0.17181653834E+02  0.68067413922E+02  0.62075221476E+02  0.93710806142E+02  0.00000000000E+00 0.  1.
         -1    1    6    6    0  502  0.33338150434E+02 -0.22084025518E+03 -0.10559641965E+03  0.24704747403E+03  0.00000000000E+00 0.  1.
<mgrwt>
<rscale>  0 0.10543560E+04</rscale>
<asrwt>0</asrwt>
<pdfrwt beam="1">  1        2 0.13008449E+00 0.10543560E+04</pdfrwt>
<pdfrwt beam="2">  1       -2 0.50566433E-01 0.10543560E+04</pdfrwt>
<totfact> 0.11767715E+02</totfact>
</mgrwt>
</event>
<event>
12    1  0.1549527E-007  0.1294721E+04  0.7818608E-02  0.9033762E-01
          1   -1    0    0  501    0  0.00000000000E+00  0.00000000000E+00  0.37371976998E+03  0.37371976998E+03  0.00000000000E+00 0. -1.
         -1   -1    0    0    0  501 -0.00000000000E+00 -0.00000000000E+00 -0.11213632583E+04  0.11213632583E+04  0.00000000000E+00 0.  1.
         23    2    1    2    0    0  0.13328636778E+03  0.38395586934E+02 -0.53417933769E+03  0.55943409072E+03  0.91539391026E+02 0.  0.
        254    2    1    2    0    0 -0.13328636778E+03 -0.38395586934E+02 -0.21346415066E+03  0.93564893760E+03  0.90035132803E+03 0.  0.
        -24    2    4    4    0    0  0.14927754083E+03 -0.66682047047E+02 -0.49530307249E+03  0.52814726102E+03  0.82970573731E+02 0.  0.
         24    2    4    4    0    0 -0.28256390861E+03  0.28286460113E+02  0.28183892184E+03  0.40750167658E+03  0.77343081637E+02 0.  0.
         11    1    3    3    0    0  0.60468605860E+02  0.54383488030E+02 -0.18039113356E+03  0.19787616616E+03  0.00000000000E+00 0. -1.
        -11    1    3    3    0    0  0.72817761920E+02 -0.15987901096E+02 -0.35378820413E+03  0.36155792456E+03  0.00000000000E+00 0.  1.
          4    1    6    6  502    0 -0.17755833137E+03  0.50523603146E+02  0.15266945011E+03  0.23955700055E+03  0.00000000000E+00 0. -1.
          1    1    5    5  503    0  0.15156311003E+03 -0.71742140760E+02 -0.49494992038E+03  0.52258371077E+03  0.00000000000E+00 0. -1.
         -2    1    5    5    0  503 -0.22855691960E+01  0.50600937122E+01 -0.35315211455E+00  0.55635502462E+01  0.00000000000E+00 0.  1.
         -3    1    6    6    0  502 -0.10500557725E+03 -0.22237143033E+02  0.12916947172E+03  0.16794467603E+03  0.00000000000E+00 0.  1.
<mgrwt>
<rscale>  0 0.12947210E+04</rscale>
<asrwt>0</asrwt>
<pdfrwt beam="1">  1        1 0.57495350E-01 0.12947210E+04</pdfrwt>
<pdfrwt beam="2">  1       -1 0.17251742E+00 0.12947210E+04</pdfrwt>
<totfact> 0.15221152E+01</totfact>
</mgrwt>
</event>
<event>
12    1  0.1549527E-007  0.3317179E+04  0.7818608E-02  0.8158538E-01
         -2   -1    0    0    0  501 -0.00000000000E+00  0.00000000000E+00  0.24879914197E+04  0.24879914197E+04  0.00000000000E+00 0.  1.
          2   -1    0    0  501    0  0.00000000000E+00 -0.00000000000E+00 -0.11056787435E+04  0.11056787435E+04  0.00000000000E+00 0. -1.
         23    2    1    2    0    0  0.90879199673E+03 -0.11466801785E+04  0.14119880143E+03  0.14716967584E+04  0.71943882372E+02 0.  0.
        254    2    1    2    0    0 -0.90879199673E+03  0.11466801785E+04  0.12411138747E+04  0.21219734049E+04  0.90643761829E+03 0.  0.
        -24    2    4    4    0    0 -0.73301680362E+03  0.84217940132E+03  0.36913207304E+03  0.11784802062E+04  0.77313198147E+02 0.  0.
         24    2    4    4    0    0 -0.17577519311E+03  0.30450077714E+03  0.87198180170E+03  0.94349319868E+03  0.78800454718E+02 0.  0.
         11    1    3    3    0    0  0.17831312752E+03 -0.19442526347E+03  0.45702905148E+02  0.26774149858E+03  0.00000000000E+00 0.  1.
        -11    1    3    3    0    0  0.73047886921E+03 -0.95225491499E+03  0.95495896285E+02  0.12039552598E+04  0.00000000000E+00 0. -1.
          2    1    6    6  502    0 -0.17285057540E+03  0.28533393742E+03  0.85477953941E+03  0.91757334217E+03  0.00000000000E+00 0. -1.
          3    1    5    5  503    0 -0.60474397360E+03  0.73388080435E+03  0.32427365034E+03  0.10047137448E+04  0.00000000000E+00 0. -1.
         -4    1    5    5    0  503 -0.12827283002E+03  0.10829859697E+03  0.44858422696E+02  0.17376646142E+03  0.00000000000E+00 0.  1.
         -1    1    6    6    0  502 -0.29246177078E+01  0.19166839722E+02  0.17202262286E+02  0.25919856508E+02  0.00000000000E+00 0.  1.
<mgrwt>
<rscale>  0 0.33171791E+04</rscale>
<asrwt>0</asrwt>
<pdfrwt beam="1">  1        2 0.17010442E+00 0.33171791E+04</pdfrwt>
<pdfrwt beam="2">  1       -2 0.38276791E+00 0.33171791E+04</pdfrwt>
<totfact> 0.17305746E-01</totfact>
</mgrwt>
</event>
<event>
12    1  0.1549527E-007  0.2712666E+04  0.7818608E-02  0.8330907E-01
         -2   -1    0    0    0  501 -0.00000000000E+00  0.00000000000E+00  0.67469331866E+03  0.67469331866E+03  0.00000000000E+00 0.  1.
          2   -1    0    0  501    0  0.00000000000E+00 -0.00000000000E+00 -0.27266303769E+04  0.27266303769E+04  0.00000000000E+00 0. -1.
         23    2    1    2    0    0 -0.36511773979E+03  0.21117926199E+03  0.50331511117E+03  0.66283873676E+03  0.90119061306E+02 0.  0.
        254    2    1    2    0    0  0.36511773979E+03 -0.21117926199E+03 -0.25552521694E+04  0.27384849588E+04  0.88998796379E+03 0.  0.
        -24    2    4    4    0    0 -0.62770730649E+02 -0.46285522582E+03 -0.14161342458E+04  0.14933491092E+04  0.80499908445E+02 0.  0.
         24    2    4    4    0    0  0.42788847044E+03  0.25167596384E+03 -0.11391179237E+04  0.12451358496E+04  0.79651152184E+02 0.  0.
         13    1    3    3    0    0 -0.11904789688E+03  0.24059108620E+02  0.12508330392E+03  0.17434757061E+03  0.00000000000E+00 0.  1.
        -13    1    3    3    0    0 -0.24606984292E+03  0.18712015337E+03  0.37823180725E+03  0.48849116615E+03  0.00000000000E+00 0. -1.
          4    1    6    6  502    0  0.33695062883E+03  0.19914538805E+03 -0.97093151290E+03  0.10468536739E+04  0.00000000000E+00 0. -1.
          1    1    5    5  503    0 -0.79032063237E+02 -0.35179854894E+03 -0.11227932155E+04  0.11792679470E+04  0.00000000000E+00 0. -1.
         -2    1    5    5    0  503  0.16261332588E+02 -0.11105667688E+03 -0.29334103026E+03  0.31408116220E+03  0.00000000000E+00 0.  1.
         -3    1    6    6    0  502  0.90937841612E+02  0.52530575781E+02 -0.16818641077E+03  0.19828217569E+03  0.00000000000E+00 0.  1.
<mgrwt>
<rscale>  0 0.27126661E+04</rscale>
<asrwt>0</asrwt>
<pdfrwt beam="1">  1        2 0.41948160E+00 0.27126661E+04</pdfrwt>
<pdfrwt beam="2">  1       -2 0.10379897E+00 0.27126661E+04</pdfrwt>
<totfact> 0.16948325E+00</totfact>
</mgrwt>
</event>
<event>
12    1  0.1549527E-007  0.1876032E+04  0.7818608E-02  0.8666879E-01
          2   -1    0    0  501    0  0.00000000000E+00  0.00000000000E+00  0.32333945304E+04  0.32333945304E+04  0.00000000000E+00 0. -1.
         -2   -1    0    0    0  501 -0.00000000000E+00 -0.00000000000E+00 -0.27212090906E+03  0.27212090906E+03  0.00000000000E+00 0.  1.
         23    2    1    2    0    0 -0.22097668095E+03  0.31434527206E+03  0.20350694408E+02  0.40329543864E+03  0.12078665688E+03 0.  0.
        254    2    1    2    0    0  0.22097668095E+03 -0.31434527206E+03  0.29409229270E+04  0.31022200008E+04  0.90944907922E+03 0.  0.
        -24    2    4    4    0    0 -0.18162973377E+03 -0.25665705225E+03  0.34662176698E+03  0.47502186071E+03  0.81467270419E+02 0.  0.
         24    2    4    4    0    0  0.40260641472E+03 -0.57688219803E+02  0.25943011600E+04  0.26271981401E+04  0.79697571686E+02 0.  0.
         13    1    3    3    0    0 -0.14814175406E+03  0.19234195369E+03  0.70183924389E+02  0.25271958707E+03  0.00000000000E+00 0. -1.
        -13    1    3    3    0    0 -0.72834926888E+02  0.12200331837E+03 -0.49833229981E+02  0.15057585158E+03  0.00000000000E+00 0.  1.
          4    1    6    6  502    0  0.25554140762E+03 -0.30177848682E+02  0.18686595961E+04  0.18862928722E+04  0.00000000000E+00 0. -1.
          1    1    5    5  503    0 -0.17715455919E+03 -0.25945749368E+03  0.32212503402E+03  0.44996273891E+03  0.00000000000E+00 0. -1.
         -2    1    5    5    0  503 -0.44751745778E+01  0.28004414227E+01  0.24496732960E+02  0.25059121800E+02  0.00000000000E+00 0.  1.
         -3    1    6    6    0  502  0.14706500710E+03 -0.27510371121E+02  0.72564156385E+03  0.74090526791E+03  0.00000000000E+00 0.  1.
<mgrwt>
<rscale>  0 0.18760323E+04</rscale>
<asrwt>0</asrwt>
<pdfrwt beam="1">  1        2 0.49744529E+00 0.18760323E+04</pdfrwt>
<pdfrwt beam="2">  1       -2 0.41864758E-01 0.18760323E+04</pdfrwt>
<totfact> 0.62862475E+00</totfact>
</mgrwt>
</event>
<event>
12    1  0.1549527E-007  0.1938357E+04  0.7818608E-02  0.8635996E-01
         -1   -1    0    0    0  501 -0.00000000000E+00  0.00000000000E+00  0.82016952359E+03  0.82016952359E+03  0.00000000000E+00 0.  1.
          1   -1    0    0  501    0  0.00000000000E+00 -0.00000000000E+00 -0.11452596269E+04  0.11452596269E+04  0.00000000000E+00 0. -1.
         23    2    1    2    0    0 -0.17483276604E+03  0.71170598371E+03 -0.30565138249E+03  0.79910983698E+03  0.89787864493E+02 0.  0.
        254    2    1    2    0    0  0.17483276604E+03 -0.71170598371E+03 -0.19438720778E+02  0.11663193135E+04  0.90710031076E+03 0.  0.
        -24    2    4    4    0    0 -0.36434474411E+03 -0.26619590467E+03 -0.55430720023E+02  0.46225005391E+03  0.83637284724E+02 0.  0.
         24    2    4    4    0    0  0.53917751015E+03 -0.44551007905E+03  0.35991999244E+02  0.70406925956E+03  0.72294399971E+02 0.  0.
         13    1    3    3    0    0 -0.46299023783E+02  0.14345487519E+03 -0.10168450403E+03  0.18183134818E+03  0.00000000000E+00 0. -1.
        -13    1    3    3    0    0 -0.12853374225E+03  0.56825110852E+03 -0.20396687846E+03  0.61727848881E+03  0.00000000000E+00 0.  1.
          2    1    6    6  502    0  0.27443352054E+02 -0.70621429019E+01  0.86930291557E+01  0.29640853399E+02  0.00000000000E+00 0. -1.
          1    1    5    5  503    0 -0.24178723262E+03 -0.18738795378E+03 -0.75726521492E+02  0.31513460162E+03  0.00000000000E+00 0. -1.
         -2    1    5    5    0  503 -0.12255751149E+03 -0.78807950882E+02  0.20295801470E+02  0.14711545229E+03  0.00000000000E+00 0.  1.
         -1    1    6    6    0  502  0.51173415809E+03 -0.43844793614E+03  0.27298970089E+02  0.67442840616E+03  0.00000000000E+00 0.  1.
<mgrwt>
<rscale>  0 0.19383571E+04</rscale>
<asrwt>0</asrwt>
<pdfrwt beam="1">  1        1 0.17619379E+00 0.19383571E+04</pdfrwt>
<pdfrwt beam="2">  1       -1 0.12617993E+00 0.19383571E+04</pdfrwt>
<totfact> 0.59789846E+00</totfact>
</mgrwt>
</event>
<event>
12    1  0.1549527E-007  0.1993628E+04  0.7818608E-02  0.8609606E-01
          1   -1    0    0  501    0  0.00000000000E+00  0.00000000000E+00  0.16959475176E+04  0.16959475176E+04  0.00000000000E+00 0. -1.
         -1   -1    0    0    0  501 -0.00000000000E+00 -0.00000000000E+00 -0.58588969260E+03  0.58588969260E+03  0.00000000000E+00 0.  1.
         23    2    1    2    0    0  0.78224957606E+03  0.11898382456E+03  0.35579879186E+03  0.87230803785E+03  0.90867941795E+02 0.  0.
        254    2    1    2    0    0 -0.78224957606E+03 -0.11898382456E+03  0.75425903313E+03  0.14095291723E+04  0.88982821313E+03 0.  0.
        -24    2    4    4    0    0 -0.54297185081E+03 -0.44191502300E+03  0.22501715154E+03  0.73986670101E+03  0.81625354252E+02 0.  0.
         24    2    4    4    0    0 -0.23927772525E+03  0.32293119844E+03  0.52924188159E+03  0.66966247133E+03  0.82537673569E+02 0.  0.
         11    1    3    3    0    0  0.17305228481E+03  0.40836473454E+02  0.42442735426E+02  0.18280070195E+03  0.00000000000E+00 0.  1.
        -11    1    3    3    0    0  0.60919729125E+03  0.78147351102E+02  0.31335605643E+03  0.68950733589E+03  0.00000000000E+00 0. -1.
          4    1    6    6  502    0 -0.16455455469E+03  0.24669197377E+03  0.43958854592E+03  0.53025769310E+03  0.00000000000E+00 0. -1.
          3    1    5    5  503    0 -0.29471047001E+03 -0.19803524144E+03  0.13962749010E+03  0.38153381761E+03  0.00000000000E+00 0. -1.
         -4    1    5    5    0  503 -0.24826138080E+03 -0.24387978156E+03  0.85389661443E+02  0.35833288341E+03  0.00000000000E+00 0.  1.
         -3    1    6    6    0  502 -0.74723170562E+02  0.76239224666E+02  0.89653335671E+02  0.13940477823E+03  0.00000000000E+00 0.  1.
<mgrwt>
<rscale>  0 0.19936280E+04</rscale>
<asrwt>0</asrwt>
<pdfrwt beam="1">  1        1 0.26091500E+00 0.19936280E+04</pdfrwt>
<pdfrwt beam="2">  1       -1 0.90136877E-01 0.19936280E+04</pdfrwt>
<totfact> 0.53590321E+00</totfact>
</mgrwt>
</event>
<event>
12    1  0.1549527E-007  0.1997148E+04  0.7818608E-02  0.8607955E-01
          1   -1    0    0  501    0  0.00000000000E+00  0.00000000000E+00  0.54811327697E+03  0.54811327697E+03  0.00000000000E+00 0. -1.
         -1   -1    0    0    0  501 -0.00000000000E+00 -0.00000000000E+00 -0.18192403838E+04  0.18192403838E+04  0.00000000000E+00 0.  1.
         23    2    1    2    0    0  0.60686432894E+02  0.45013410701E+03 -0.12765271915E+04  0.13580331057E+04  0.91807887146E+02 0.  0.
        254    2    1    2    0    0 -0.60686432894E+02 -0.45013410701E+03  0.54000846677E+01  0.10093205551E+04  0.90132972020E+03 0.  0.
        -24    2    4    4    0    0 -0.82211811931E+02 -0.69108320226E+03 -0.14283872032E+03  0.71456850211E+03  0.76488363355E+02 0.  0.
         24    2    4    4    0    0  0.21525379036E+02  0.24094909525E+03  0.14823880499E+03  0.29475205294E+03  0.79901320170E+02 0.  0.
         11    1    3    3    0    0  0.14727164785E-01 -0.45708755734E+01 -0.10224360483E+02  0.11199583371E+02  0.00000000000E+00 0. -1.
        -11    1    3    3    0    0  0.60671705730E+02  0.45470498258E+03 -0.12663028310E+04  0.13468335223E+04  0.00000000000E+00 0.  1.
          4    1    6    6  502    0  0.49946038696E+02  0.16779974701E+03  0.88809612475E+02  0.19631227457E+03  0.00000000000E+00 0. -1.
          1    1    5    5  503    0 -0.70056256069E+02 -0.57024681165E+03 -0.87690923119E+02  0.58118758006E+03  0.00000000000E+00 0. -1.
         -2    1    5    5    0  503 -0.12155555862E+02 -0.12083639060E+03 -0.55147797206E+02  0.13338092206E+03  0.00000000000E+00 0.  1.
         -3    1    6    6    0  502 -0.28420659660E+02  0.73149348234E+02  0.59429192517E+02  0.98439778371E+02  0.00000000000E+00 0.  1.
<mgrwt>
<rscale>  0 0.19971478E+04</rscale>
<asrwt>0</asrwt>
<pdfrwt beam="1">  1        1 0.84325118E-01 0.19971478E+04</pdfrwt>
<pdfrwt beam="2">  1       -1 0.27988314E+00 0.19971478E+04</pdfrwt>
<totfact> 0.16131345E+00</totfact>
</mgrwt>
</event>
<event>
12    1  0.1549527E-007  0.2490320E+04  0.7818608E-02  0.8406442E-01
         -2   -1    0    0    0  501 -0.00000000000E+00  0.00000000000E+00  0.36864998575E+03  0.36864998575E+03  0.00000000000E+00 0. -1.
          2   -1    0    0  501    0  0.00000000000E+00 -0.00000000000E+00 -0.42056782894E+04  0.42056782894E+04  0.00000000000E+00 0.  1.
         23    2    1    2    0    0 -0.86856600188E+01 -0.94912445423E+03 -0.26123009152E+04  0.27807959490E+04  0.88302708750E+02 0.  0.
        254    2    1    2    0    0  0.86856600188E+01  0.94912445423E+03 -0.12247273885E+04  0.17935323261E+04  0.90326538652E+03 0.  0.
        -24    2    4    4    0    0 -0.27191773656E+02  0.84886929245E+02  0.13466634741E+03  0.18031061217E+03  0.80197932797E+02 0.  0.
         24    2    4    4    0    0  0.35877433675E+02  0.86423752499E+03 -0.13593937359E+04  0.16132217140E+04  0.79619591703E+02 0.  0.
         11    1    3    3    0    0  0.21771031275E+02 -0.78661743897E+03 -0.21084765448E+04  0.22505364501E+04  0.00000000000E+00 0.  1.
        -11    1    3    3    0    0 -0.30456691294E+02 -0.16250701527E+03 -0.50382437037E+03  0.53025949895E+03  0.00000000000E+00 0. -1.
          2    1    6    6  502    0  0.45727159614E+02  0.82838899227E+03 -0.13198218469E+04  0.15589255926E+04  0.00000000000E+00 0. -1.
          1    1    5    5  503    0 -0.16216259626E+02  0.99928222748E+02  0.11185411421E+03  0.15086404357E+03  0.00000000000E+00 0. -1.
         -2    1    5    5    0  503 -0.10975514030E+02 -0.15041293503E+02  0.22812233206E+02  0.29446568600E+02  0.00000000000E+00 0.  1.
         -1    1    6    6    0  502 -0.98497259395E+01  0.35848532716E+02 -0.39571888973E+02  0.54296121370E+02  0.00000000000E+00 0.  1.
<mgrwt>
<rscale>  0 0.24903199E+04</rscale>
<asrwt>0</asrwt>
<pdfrwt beam="1">  1        2 0.64702738E+00 0.24903199E+04</pdfrwt>
<pdfrwt beam="2">  1       -2 0.56715387E-01 0.24903199E+04</pdfrwt>
<totfact> 0.60110668E-01</totfact>
</mgrwt>
</event>
<event>
12    1  0.1549527E-007  0.1358006E+04  0.7818608E-02  0.8984789E-01
         -1   -1    0    0    0  501 -0.00000000000E+00  0.00000000000E+00  0.26737182708E+03  0.26737182708E+03  0.00000000000E+00 0. -1.
          1   -1    0    0  501    0  0.00000000000E+00 -0.00000000000E+00 -0.17243603078E+04  0.17243603078E+04  0.00000000000E+00 0.  1.
         23    2    1    2    0    0  0.12683316813E+01  0.31816330774E+03 -0.70353110933E+03  0.77735227455E+03  0.89950196746E+02 0.  0.
        254    2    1    2    0    0 -0.12683316813E+01 -0.31816330774E+03 -0.75345737138E+03  0.12143798603E+04  0.89765858520E+03 0.  0.
        -24    2    4    4    0    0 -0.42242992430E+03 -0.21720497238E+03 -0.54306913039E+03  0.72616119558E+03  0.82225060776E+02 0.  0.
         24    2    4    4    0    0  0.42116159262E+03 -0.10095833536E+03 -0.21038824099E+03  0.48821866473E+03  0.80774872760E+02 0.  0.
         11    1    3    3    0    0  0.67358951946E+01  0.31945788390E+03 -0.65804329292E+03  0.73151875384E+03  0.00000000000E+00 0. -1.
        -11    1    3    3    0    0 -0.54675635133E+01 -0.12945761645E+01 -0.45487816412E+02  0.45833520704E+02  0.00000000000E+00 0.  1.
          4    1    6    6  502    0  0.16455264035E+03 -0.40518334370E+02 -0.39384636729E+02  0.17398406960E+03  0.00000000000E+00 0. -1.
          3    1    5    5  503    0 -0.14652565965E+02 -0.18309804167E+02 -0.83322238025E+01  0.24887196939E+02  0.00000000000E+00 0. -1.
         -4    1    5    5    0  503 -0.40777735833E+03 -0.19889516821E+03 -0.53473690659E+03  0.70127399864E+03  0.00000000000E+00 0.  1.
         -3    1    6    6    0  502  0.25660895227E+03 -0.60440000990E+02 -0.17100360426E+03  0.31423459513E+03  0.00000000000E+00 0.  1.
<mgrwt>
<rscale>  0 0.13580064E+04</rscale>
<asrwt>0</asrwt>
<pdfrwt beam="1">  1        1 0.26528621E+00 0.13580064E+04</pdfrwt>
<pdfrwt beam="2">  1       -1 0.41134125E-01 0.13580064E+04</pdfrwt>
<totfact> 0.25967571E+01</totfact>
</mgrwt>
</event>
<event>
12    1  0.1549527E-007  0.1568028E+04  0.7818608E-02  0.8840434E-01
          2   -1    0    0  501    0  0.00000000000E+00  0.00000000000E+00  0.12959303628E+04  0.12959303628E+04  0.00000000000E+00 0.  1.
         -2   -1    0    0    0  501 -0.00000000000E+00 -0.00000000000E+00 -0.47431377015E+03  0.47431377015E+03  0.00000000000E+00 0. -1.
         23    2    1    2    0    0 -0.76785570930E+02  0.16431526308E+03 -0.25084645104E+03  0.32296895872E+03  0.92138356379E+02 0.  0.
        254    2    1    2    0    0  0.76785570930E+02 -0.16431526308E+03  0.10724630437E+04  0.14472751743E+04  0.95474233190E+03 0.  0.
        -24    2    4    4    0    0 -0.42890137874E+03 -0.11946723274E+02  0.50793189499E+03  0.66982589951E+03  0.81072861263E+02 0.  0.
         24    2    4    4    0    0  0.50568694967E+03 -0.15236853980E+03  0.56453114874E+03  0.77744927476E+03  0.82440851187E+02 0.  0.
         13    1    3    3    0    0 -0.11850884544E+02  0.65963406582E+02 -0.31691701128E+02  0.74134866242E+02  0.00000000000E+00 0.  1.
        -13    1    3    3    0    0 -0.64934686386E+02  0.98351856496E+02 -0.21915474991E+03  0.24883409248E+03  0.00000000000E+00 0. -1.
          4    1    6    6  502    0  0.15692069521E+03 -0.13735740263E+02  0.13926349144E+03  0.21025483394E+03  0.00000000000E+00 0. -1.
          1    1    5    5  503    0 -0.10155696068E+02  0.98086438049E+01  0.35203045015E+02  0.37928907634E+02  0.00000000000E+00 0. -1.
         -2    1    5    5    0  503 -0.41874568267E+03 -0.21755367079E+02  0.47272884997E+03  0.63189699188E+03  0.00000000000E+00 0.  1.
         -3    1    6    6    0  502  0.34876625445E+03 -0.13863279954E+03  0.42526765730E+03  0.56719444082E+03  0.00000000000E+00 0.  1.
<mgrwt>
<rscale>  0 0.15680276E+04</rscale>
<asrwt>0</asrwt>
<pdfrwt beam="1">  1        2 0.19937390E+00 0.15680276E+04</pdfrwt>
<pdfrwt beam="2">  1       -2 0.72971350E-01 0.15680276E+04</pdfrwt>
<totfact> 0.27111629E+01</totfact>
</mgrwt>
</event>
<event>
12    1  0.1549527E-007  0.1641053E+04  0.7818608E-02  0.8795717E-01
         -2   -1    0    0    0  501 -0.00000000000E+00  0.00000000000E+00  0.79761868510E+03  0.79761868510E+03  0.00000000000E+00 0.  1.
          2   -1    0    0  501    0  0.00000000000E+00 -0.00000000000E+00 -0.84409222787E+03  0.84409222787E+03  0.00000000000E+00 0. -1.
         23    2    1    2    0    0  0.30713985566E+03  0.12357504580E+03  0.43566331589E+03  0.55463844634E+03  0.90639938572E+02 0.  0.
        254    2    1    2    0    0 -0.30713985566E+03 -0.12357504580E+03 -0.48213685866E+03  0.10870724666E+04  0.91633231656E+03 0.  0.
        -24    2    4    4    0    0 -0.47699918612E+03 -0.38720139257E+03 -0.44251364248E+03  0.76133963796E+03  0.79790842781E+02 0.  0.
         24    2    4    4    0    0  0.16985933046E+03  0.26362634677E+03 -0.39623216178E+02  0.32573282868E+03  0.78618277523E+02 0.  0.
         13    1    3    3    0    0  0.14825610611E+03  0.10817474771E+03  0.23957176374E+03  0.30178846734E+03  0.00000000000E+00 0.  1.
        -13    1    3    3    0    0  0.15888374955E+03  0.15400298089E+02  0.19609155215E+03  0.25284997899E+03  0.00000000000E+00 0. -1.
          4    1    6    6  502    0  0.94062638004E+02  0.81290510386E+02  0.61453508127E-01  0.12432188353E+03  0.00000000000E+00 0. -1.
          3    1    5    5  503    0 -0.48010338881E+03 -0.38548918158E+03 -0.43804336227E+03  0.75563427681E+03  0.00000000000E+00 0. -1.
         -4    1    5    5    0  503  0.31042026883E+01 -0.17122109933E+01 -0.44702802050E+01  0.57053611566E+01  0.00000000000E+00 0.  1.
         -3    1    6    6    0  502  0.75796692452E+02  0.18233583639E+03 -0.39684669686E+02  0.20141094515E+03  0.00000000000E+00 0.  1.
<mgrwt>
<rscale>  0 0.16410530E+04</rscale>
<asrwt>0</asrwt>
<pdfrwt beam="1">  1        2 0.12986034E+00 0.16410530E+04</pdfrwt>
<pdfrwt beam="2">  1       -2 0.12271057E+00 0.16410530E+04</pdfrwt>
<totfact> 0.15382082E+01</totfact>
</mgrwt>
</event>
<event>
12    1  0.1549527E-007  0.2036382E+04  0.7818608E-02  0.8589797E-01
          2   -1    0    0  501    0  0.00000000000E+00  0.00000000000E+00  0.29250742048E+04  0.29250742048E+04  0.00000000000E+00 0. -1.
         -2   -1    0    0    0  501 -0.00000000000E+00 -0.00000000000E+00 -0.35442269608E+03  0.35442269608E+03  0.00000000000E+00 0.  1.
         23    2    1    2    0    0 -0.44027403088E+03  0.19490367261E+03 -0.20776427994E+02  0.49057432173E+03  0.91667013281E+02 0.  0.
        254    2    1    2    0    0  0.44027403088E+03 -0.19490367261E+03  0.25914279367E+04  0.27889225792E+04  0.91146131980E+03 0.  0.
        -24    2    4    4    0    0 -0.20978571679E+03  0.16781313440E+03  0.59772993074E+03  0.65925618148E+03  0.71877309825E+02 0.  0.
         24    2    4    4    0    0  0.65005974767E+03 -0.36271680701E+03  0.19936980060E+04  0.21296663977E+04  0.80660205543E+02 0.  0.
         11    1    3    3    0    0 -0.35028344983E+03  0.13046228816E+03 -0.47260250512E+02  0.37676575632E+03  0.00000000000E+00 0.  1.
        -11    1    3    3    0    0 -0.89990581051E+02  0.64441384446E+02  0.26483822518E+02  0.11380856542E+03  0.00000000000E+00 0. -1.
          4    1    6    6  502    0  0.55723119186E+03 -0.27647972308E+03  0.16600836405E+04  0.17728015489E+04  0.00000000000E+00 0. -1.
          3    1    5    5  503    0 -0.21031400828E+03  0.16246143272E+03  0.54593278248E+03  0.60718061743E+03  0.00000000000E+00 0. -1.
         -4    1    5    5    0  503  0.52829148648E+00  0.53517016800E+01  0.51797148263E+02  0.52075564048E+02  0.00000000000E+00 0.  1.
         -3    1    6    6    0  502  0.92828555800E+02 -0.86237083929E+02  0.33361436552E+03  0.35686484879E+03  0.00000000000E+00 0.  1.
<mgrwt>
<rscale>  0 0.20363818E+04</rscale>
<asrwt>0</asrwt>
<pdfrwt beam="1">  1        2 0.45001140E+00 0.20363818E+04</pdfrwt>
<pdfrwt beam="2">  1       -2 0.54526571E-01 0.20363818E+04</pdfrwt>
<totfact> 0.56950964E+00</totfact>
</mgrwt>
</event>
<event>
12    1  0.1549527E-007  0.1274402E+04  0.7818608E-02  0.9050114E-01
         -1   -1    0    0    0  501 -0.00000000000E+00  0.00000000000E+00  0.45492904472E+03  0.45492904472E+03  0.00000000000E+00 0.  1.
          1   -1    0    0  501    0  0.00000000000E+00 -0.00000000000E+00 -0.89250248212E+03  0.89250248212E+03  0.00000000000E+00 0. -1.
         23    2    1    2    0    0 -0.78501550187E+02  0.29388161191E+03 -0.50039504090E+02  0.32160564924E+03  0.91637036477E+02 0.  0.
        254    2    1    2    0    0  0.78501550187E+02 -0.29388161191E+03 -0.38753393331E+03  0.10258258776E+04  0.89978179937E+03 0.  0.
        -24    2    4    4    0    0  0.21171944599E+03 -0.25037180385E+03 -0.64138237727E+03  0.72486346891E+03  0.80898273875E+02 0.  0.
         24    2    4    4    0    0 -0.13321789580E+03 -0.43509808058E+02  0.25384844396E+03  0.30096240868E+03  0.80617788255E+02 0.  0.
         13    1    3    3    0    0 -0.70784186481E+00  0.30812139083E+02 -0.35325513467E+02  0.46880495483E+02  0.00000000000E+00 0. -1.
        -13    1    3    3    0    0 -0.77793708322E+02  0.26306947283E+03 -0.14713990622E+02  0.27472515376E+03  0.00000000000E+00 0.  1.
          4    1    6    6  502    0 -0.78763663635E+02  0.13016965033E+02  0.15845465283E+03  0.17742895223E+03  0.00000000000E+00 0. -1.
          3    1    5    5  503    0  0.21674196464E+02 -0.43696364100E+02 -0.48129205032E+02  0.68524181170E+02  0.00000000000E+00 0. -1.
         -4    1    5    5    0  503  0.19004524952E+03 -0.20667543975E+03 -0.59325317223E+03  0.65633928774E+03  0.00000000000E+00 0.  1.
         -3    1    6    6    0  502 -0.54454232167E+02 -0.56526773091E+02  0.95393791129E+02  0.12353345645E+03  0.00000000000E+00 0.  1.
<mgrwt>
<rscale>  0 0.12744023E+04</rscale>
<asrwt>0</asrwt>
<pdfrwt beam="1">  1        1 0.13730807E+00 0.12744023E+04</pdfrwt>
<pdfrwt beam="2">  1       -1 0.69989083E-01 0.12744023E+04</pdfrwt>
<totfact> 0.37507845E+01</totfact>
</mgrwt>
</event>
<event>
12    1  0.1549527E-007  0.3159522E+04  0.7818608E-02  0.8199590E-01
          1   -1    0    0  501    0  0.00000000000E+00  0.00000000000E+00  0.11796532471E+04  0.11796532471E+04  0.00000000000E+00 0. -1.
         -1   -1    0    0    0  501 -0.00000000000E+00 -0.00000000000E+00 -0.21155754454E+04  0.21155754454E+04  0.00000000000E+00 0.  1.
         23    2    1    2    0    0  0.11340373795E+04  0.89131224207E+03 -0.19448639534E+03  0.14581775088E+04  0.89321881009E+02 0.  0.
        254    2    1    2    0    0 -0.11340373795E+04 -0.89131224207E+03 -0.74143580300E+03  0.18370511837E+04  0.86287409891E+03 0.  0.
        -24    2    4    4    0    0 -0.12665442831E+04 -0.75844380304E+03 -0.64286714701E+03  0.16121472161E+04  0.79806354781E+02 0.  0.
         24    2    4    4    0    0  0.13250690363E+03 -0.13286843902E+03 -0.98568655994E+02  0.22490396757E+03  0.75192506834E+02 0.  0.
         11    1    3    3    0    0  0.99760848994E+03  0.76427703462E+03 -0.19502366793E+03  0.12717611080E+04  0.00000000000E+00 0.  1.
        -11    1    3    3    0    0  0.13642888954E+03  0.12703520744E+03  0.53727259479E+00  0.18641640081E+03  0.00000000000E+00 0. -1.
          2    1    6    6  502    0  0.10512496909E+03 -0.74113334053E+02 -0.95148461760E+02  0.15999148473E+03  0.00000000000E+00 0. -1.
          3    1    5    5  503    0 -0.19020987483E+03 -0.12072327157E+03 -0.68046203342E+02  0.23533845961E+03  0.00000000000E+00 0. -1.
         -4    1    5    5    0  503 -0.10763344083E+04 -0.63772053147E+03 -0.57482094367E+03  0.13768087565E+04  0.00000000000E+00 0.  1.
         -1    1    6    6    0  502  0.27381934538E+02 -0.58755104970E+02 -0.34201942336E+01  0.64912482834E+02  0.00000000000E+00 0.  1.
<mgrwt>
<rscale>  0 0.31595224E+04</rscale>
<asrwt>0</asrwt>
<pdfrwt beam="1">  1        1 0.18148512E+00 0.31595224E+04</pdfrwt>
<pdfrwt beam="2">  1       -1 0.32547314E+00 0.31595224E+04</pdfrwt>
<totfact> 0.20922946E-01</totfact>
</mgrwt>
</event>
<event>
12    1  0.1549527E-007  0.2610657E+04  0.7818608E-02  0.8364590E-01
         -1   -1    0    0    0  501 -0.00000000000E+00  0.00000000000E+00  0.83713918696E+03  0.83713918696E+03  0.00000000000E+00 0.  1.
          1   -1    0    0  501    0  0.00000000000E+00 -0.00000000000E+00 -0.20353627655E+04  0.20353627655E+04  0.00000000000E+00 0. -1.
         23    2    1    2    0    0  0.69212971515E+03  0.79045055553E+03  0.67370681443E+02  0.10565657241E+04  0.89088143492E+02 0.  0.
        254    2    1    2    0    0 -0.69212971515E+03 -0.79045055553E+03 -0.12655942600E+04  0.18159362283E+04  0.76944131107E+03 0.  0.
        -24    2    4    4    0    0 -0.55608181491E+02 -0.45541618836E+03 -0.15745302854E+03  0.49255076502E+03  0.85548965226E+02 0.  0.
         24    2    4    4    0    0 -0.63652153366E+03 -0.33503436716E+03 -0.11081412314E+04  0.13233854633E+04  0.77229565122E+02 0.  0.
         11    1    3    3    0    0  0.23965600133E+03  0.22644304887E+03 -0.60784166085E+01  0.32977022380E+03  0.00000000000E+00 0. -1.
        -11    1    3    3    0    0  0.45247371382E+03  0.56400750666E+03  0.73449098051E+02  0.72679550031E+03  0.00000000000E+00 0.  1.
          2    1    6    6  502    0 -0.22224265339E+03 -0.13335899381E+03 -0.33799736969E+03  0.42593267089E+03  0.00000000000E+00 0. -1.
          1    1    5    5  503    0 -0.72648733616E+02 -0.39821817626E+03 -0.12046322506E+03  0.42233510746E+03  0.00000000000E+00 0. -1.
         -2    1    5    5    0  503  0.17040552126E+02 -0.57198012108E+02 -0.36989803474E+02  0.70215657562E+02  0.00000000000E+00 0.  1.
         -1    1    6    6    0  502 -0.41427888028E+03 -0.20167537335E+03 -0.77014386174E+03  0.89745279243E+03  0.00000000000E+00 0.  1.
<mgrwt>
<rscale>  0 0.26106566E+04</rscale>
<asrwt>0</asrwt>
<pdfrwt beam="1">  1        1 0.31313273E+00 0.26106566E+04</pdfrwt>
<pdfrwt beam="2">  1       -1 0.12879065E+00 0.26106566E+04</pdfrwt>
<totfact> 0.12881151E+00</totfact>
</mgrwt>
</event>
<event>
12    1  0.1549527E-007  0.1874969E+04  0.7818608E-02  0.8667417E-01
         -1   -1    0    0    0  501 -0.00000000000E+00  0.00000000000E+00  0.10625844133E+04  0.10625844133E+04  0.00000000000E+00 0.  1.
          1   -1    0    0  501    0  0.00000000000E+00 -0.00000000000E+00 -0.82711274351E+03  0.82711274351E+03  0.00000000000E+00 0. -1.
         23    2    1    2    0    0  0.40869611303E+03 -0.38312593578E+03  0.53995244611E+03  0.78336911658E+03  0.91107262452E+02 0.  0.
        254    2    1    2    0    0 -0.40869611303E+03  0.38312593578E+03 -0.30448077630E+03  0.11063280403E+04  0.90412122752E+03 0.  0.
        -24    2    4    4    0    0 -0.94407851313E+01  0.54923407112E+03  0.27029011798E+02  0.55575546242E+03  0.79914787322E+02 0.  0.
         24    2    4    4    0    0 -0.39925532790E+03 -0.16610813533E+03 -0.33150978809E+03  0.55057257784E+03  0.78960080979E+02 0.  0.
         13    1    3    3    0    0  0.12028092127E+03 -0.17274968190E+03  0.19452662635E+03  0.28661919157E+03  0.00000000000E+00 0. -1.
        -13    1    3    3    0    0  0.28841519176E+03 -0.21037625388E+03  0.34542581976E+03  0.49674992501E+03  0.00000000000E+00 0.  1.
          2    1    6    6  502    0 -0.82513653467E+02 -0.13549147506E+02 -0.34945764331E+02  0.90627197084E+02  0.00000000000E+00 0. -1.
          1    1    5    5  503    0 -0.93605941044E+01  0.76240976045E+01  0.66032327141E+01  0.13760460332E+02  0.00000000000E+00 0. -1.
         -2    1    5    5    0  503 -0.80191026894E-01  0.54160997351E+03  0.20425779084E+02  0.54199500209E+03  0.00000000000E+00 0.  1.
         -1    1    6    6    0  502 -0.31674167443E+03 -0.15255898783E+03 -0.29656402376E+03  0.45994538076E+03  0.00000000000E+00 0.  1.
<mgrwt>
<rscale>  0 0.18749689E+04</rscale>
<asrwt>0</asrwt>
<pdfrwt beam="1">  1        1 0.12724811E+00 0.18749689E+04</pdfrwt>
<pdfrwt beam="2">  1       -1 0.16347453E+00 0.18749689E+04</pdfrwt>
<totfact> 0.54035034E+00</totfact>
</mgrwt>
</event>
<event>
12    1  0.1549527E-007  0.1761307E+04  0.7818608E-02  0.8727151E-01
          2   -1    0    0  501    0  0.00000000000E+00  0.00000000000E+00  0.11584615908E+04  0.11584615908E+04  0.00000000000E+00 0.  1.
         -2   -1    0    0    0  501 -0.00000000000E+00 -0.00000000000E+00 -0.66946611330E+03  0.66946611330E+03  0.00000000000E+00 0. -1.
         23    2    1    2    0    0  0.32954578118E+03  0.13948247870E+03 -0.37944753689E+03  0.52797637666E+03  0.81992910003E+02 0.  0.
        254    2    1    2    0    0 -0.32954578118E+03 -0.13948247870E+03  0.86844301437E+03  0.12999513274E+04  0.89867925350E+03 0.  0.
        -24    2    4    4    0    0 -0.35356197515E+03 -0.41764752900E+03  0.23075083812E+03  0.59918840706E+03  0.79657197473E+02 0.  0.
         24    2    4    4    0    0  0.24016193961E+02  0.27816505030E+03  0.63769217624E+03  0.70076292035E+03  0.80403893633E+02 0.  0.
         11    1    3    3    0    0  0.14852978639E+03  0.24685864810E+02 -0.18542350933E+03  0.23885637354E+03  0.00000000000E+00 0.  1.
        -11    1    3    3    0    0  0.18101599480E+03  0.11479661389E+03 -0.19402402756E+03  0.28912000312E+03  0.00000000000E+00 0. -1.
          4    1    6    6  502    0  0.50696988759E+02  0.12195923243E+03  0.28860066285E+03  0.31738711638E+03  0.00000000000E+00 0. -1.
          1    1    5    5  503    0 -0.22012774780E+02 -0.63806985416E+02  0.19401444997E+02  0.70230404451E+02  0.00000000000E+00 0. -1.
         -2    1    5    5    0  503 -0.33154920037E+03 -0.35384054358E+03  0.21134939312E+03  0.52895800261E+03  0.00000000000E+00 0.  1.
         -1    1    6    6    0  502 -0.26680794798E+02  0.15620581787E+03  0.34909151339E+03  0.38337580397E+03  0.00000000000E+00 0.  1.
<mgrwt>
<rscale>  0 0.17613072E+04</rscale>
<asrwt>0</asrwt>
<pdfrwt beam="1">  1        2 0.17822486E+00 0.17613072E+04</pdfrwt>
<pdfrwt beam="2">  1       -2 0.10299479E+00 0.17613072E+04</pdfrwt>
<totfact> 0.14630045E+01</totfact>
</mgrwt>
</event>
<event>
12    1  0.1549527E-007  0.3223965E+04  0.7818608E-02  0.8182517E-01
         -2   -1    0    0    0  501 -0.00000000000E+00  0.00000000000E+00  0.13509512106E+04  0.13509512106E+04  0.00000000000E+00 0.  1.
          2   -1    0    0  501    0  0.00000000000E+00 -0.00000000000E+00 -0.19234502256E+04  0.19234502256E+04  0.00000000000E+00 0. -1.
         23    2    1    2    0    0  0.29841903868E+03  0.72994956633E+03 -0.15457161459E+04  0.17376786947E+04  0.91698148444E+02 0.  0.
        254    2    1    2    0    0 -0.29841903868E+03 -0.72994956633E+03  0.97321713088E+03  0.15367227415E+04  0.89021621441E+03 0.  0.
        -24    2    4    4    0    0 -0.39852206230E+03  0.39064209902E+02  0.30006515158E+03  0.50745081914E+03  0.84388340522E+02 0.  0.
         24    2    4    4    0    0  0.10010302362E+03 -0.76901377623E+03  0.67315197929E+03  0.10292719224E+04  0.69744530673E+02 0.  0.
         11    1    3    3    0    0  0.15677550574E+03  0.46904868429E+03 -0.89822574593E+03  0.10253754035E+04  0.00000000000E+00 0. -1.
        -11    1    3    3    0    0  0.14164353294E+03  0.26090088205E+03 -0.64749039993E+03  0.71230329122E+03  0.00000000000E+00 0.  1.
          2    1    6    6  502    0  0.87335166731E+02 -0.46679848820E+03  0.38257582578E+03  0.60982991269E+03  0.00000000000E+00 0. -1.
          1    1    5    5  503    0 -0.29320810222E+03  0.52078943008E+02  0.18338210661E+03  0.34973161787E+03  0.00000000000E+00 0. -1.
         -2    1    5    5    0  503 -0.10531396009E+03 -0.13014733106E+02  0.11668304498E+03  0.15771920128E+03  0.00000000000E+00 0.  1.
         -1    1    6    6    0  502  0.12767856892E+02 -0.30221528803E+03  0.29057615351E+03  0.41944200968E+03  0.00000000000E+00 0.  1.
<mgrwt>
<rscale>  0 0.32239649E+04</rscale>
<asrwt>0</asrwt>
<pdfrwt beam="1">  1        2 0.29591542E+00 0.32239649E+04</pdfrwt>
<pdfrwt beam="2">  1       -2 0.20783865E+00 0.32239649E+04</pdfrwt>
<totfact> 0.73234962E-01</totfact>
</mgrwt>
</event>
<event>
12    1  0.1549527E-007  0.1900394E+04  0.7818608E-02  0.8654660E-01
          1   -1    0    0  501    0  0.00000000000E+00  0.00000000000E+00  0.19011822357E+04  0.19011822357E+04  0.00000000000E+00 0. -1.
         -1   -1    0    0    0  501 -0.00000000000E+00 -0.00000000000E+00 -0.47490171489E+03  0.47490171489E+03  0.00000000000E+00 0.  1.
         23    2    1    2    0    0  0.51445004441E+03  0.26483978588E+03 -0.47613016234E+01  0.58579413343E+03  0.91286014265E+02 0.  0.
        254    2    1    2    0    0 -0.51445004441E+03 -0.26483978588E+03  0.14310418224E+04  0.17902898171E+04  0.90689468598E+03 0.  0.
        -24    2    4    4    0    0 -0.22984646281E+03  0.69621905210E+02  0.13009051667E+04  0.13253328998E+04  0.80476309301E+02 0.  0.
         24    2    4    4    0    0 -0.28460358160E+03 -0.33446169109E+03  0.13013665573E+03  0.46495691736E+03  0.79909726424E+02 0.  0.
         11    1    3    3    0    0  0.20829558365E+03  0.14937768202E+03 -0.27551463049E+02  0.25779803174E+03  0.00000000000E+00 0. -1.
        -11    1    3    3    0    0  0.30615446076E+03  0.11546210386E+03  0.22790161425E+02  0.32799610170E+03  0.00000000000E+00 0.  1.
          4    1    6    6  502    0 -0.68076982718E+02 -0.85903312085E+02  0.69493612719E+02  0.12978141936E+03  0.00000000000E+00 0. -1.
          3    1    5    5  503    0 -0.93523833224E+01  0.26222182616E+02  0.11486992630E+03  0.11819547327E+03  0.00000000000E+00 0. -1.
         -4    1    5    5    0  503 -0.22049407948E+03  0.43399722594E+02  0.11860352404E+04  0.12071374265E+04  0.00000000000E+00 0.  1.
         -3    1    6    6    0  502 -0.21652659888E+03 -0.24855837900E+03  0.60643043010E+02  0.33517549800E+03  0.00000000000E+00 0.  1.
<mgrwt>
<rscale>  0 0.19003944E+04</rscale>
<asrwt>0</asrwt>
<pdfrwt beam="1">  1        1 0.29248957E+00 0.19003944E+04</pdfrwt>
<pdfrwt beam="2">  1       -1 0.73061803E-01 0.19003944E+04</pdfrwt>
<totfact> 0.61437324E+00</totfact>
</mgrwt>
</event>
<event>
12    1  0.1549527E-007  0.1433477E+04  0.7818608E-02  0.8929936E-01
         -1   -1    0    0    0  501 -0.00000000000E+00  0.00000000000E+00  0.17174942460E+04  0.17174942460E+04  0.00000000000E+00 0. -1.
          1   -1    0    0  501    0  0.00000000000E+00 -0.00000000000E+00 -0.29910673667E+03  0.29910673667E+03  0.00000000000E+00 0.  1.
         23    2    1    2    0    0  0.40710816175E+03  0.67875909025E+02  0.54130534639E+03  0.68711002370E+03  0.93618973727E+02 0.  0.
        254    2    1    2    0    0 -0.40710816175E+03 -0.67875909025E+02  0.87708216294E+03  0.13294909590E+04  0.90990598142E+03 0.  0.
        -24    2    4    4    0    0  0.47949428101E+02  0.24269354905E+03 -0.33386376405E+02  0.26223701980E+03  0.80338645855E+02 0.  0.
         24    2    4    4    0    0 -0.45505758986E+03 -0.31056945808E+03  0.91046853934E+03  0.10672539392E+04  0.80914838845E+02 0.  0.
         11    1    3    3    0    0  0.14704397353E+03 -0.16910264583E+02  0.16163634465E+03  0.21916704841E+03  0.00000000000E+00 0.  1.
        -11    1    3    3    0    0  0.26006418822E+03  0.84786173607E+02  0.37966900174E+03  0.46794297528E+03  0.00000000000E+00 0. -1.
          2    1    6    6  502    0 -0.36726552066E+03 -0.28323955027E+03  0.73366546984E+03  0.86797098289E+03  0.00000000000E+00 0. -1.
          1    1    5    5  503    0 -0.18578151681E+00  0.17747458073E+03 -0.94851613880E+01  0.17772796517E+03  0.00000000000E+00 0. -1.
         -2    1    5    5    0  503  0.48135209618E+02  0.65218968328E+02 -0.23901215017E+02  0.84509054627E+02  0.00000000000E+00 0.  1.
         -3    1    6    6    0  502 -0.87792069199E+02 -0.27329907806E+02  0.17680306950E+03  0.19928295627E+03  0.00000000000E+00 0.  1.
<mgrwt>
<rscale>  0 0.14334770E+04</rscale>
<asrwt>0</asrwt>
<pdfrwt beam="1">  1        1 0.46016422E-01 0.14334770E+04</pdfrwt>
<pdfrwt beam="2">  1       -1 0.26422988E+00 0.14334770E+04</pdfrwt>
<totfact> 0.48278518E+00</totfact>
</mgrwt>
</event>
<event>
12    1  0.1549527E-007  0.2190695E+04  0.7818608E-02  0.8522311E-01
          1   -1    0    0  501    0  0.00000000000E+00  0.00000000000E+00  0.62862247801E+03  0.62862247801E+03  0.00000000000E+00 0. -1.
         -1   -1    0    0    0  501 -0.00000000000E+00 -0.00000000000E+00 -0.19085951006E+04  0.19085951006E+04  0.00000000000E+00 0.  1.
         23    2    1    2    0    0  0.14284047516E+01  0.73684902199E+03 -0.11500974808E+04  0.13689712174E+04  0.91703092683E+02 0.  0.
        254    2    1    2    0    0 -0.14284047516E+01 -0.73684902199E+03 -0.12987514172E+03  0.11682463611E+04  0.89720871949E+03 0.  0.
        -24    2    4    4    0    0 -0.14409144745E+03 -0.90901534991E+03 -0.10714949307E+03  0.93006043714E+03  0.80375066170E+02 0.  0.
         24    2    4    4    0    0  0.14266304270E+03  0.17216632792E+03 -0.22725648645E+02  0.23818592400E+03  0.78880232404E+02 0.  0.
         11    1    3    3    0    0 -0.89674320842E+01  0.23806664572E+03 -0.29743948338E+03  0.38108580257E+03  0.00000000000E+00 0. -1.
        -11    1    3    3    0    0  0.10395836836E+02  0.49878237627E+03 -0.85265799745E+03  0.98788541487E+03  0.00000000000E+00 0.  1.
          2    1    6    6  502    0 -0.26446055530E+01 -0.53355450869E+01  0.40994462189E+01  0.72296223419E+01  0.00000000000E+00 0. -1.
          1    1    5    5  503    0 -0.28690584014E+02 -0.24748273454E+03 -0.63584193158E+02  0.25712604521E+03  0.00000000000E+00 0. -1.
         -4    1    5    5    0  503 -0.11540086344E+03 -0.66153261537E+03 -0.43565299915E+02  0.67293439193E+03  0.00000000000E+00 0.  1.
         -1    1    6    6    0  502  0.14530764825E+03  0.17750187301E+03 -0.26825094864E+02  0.23095630166E+03  0.00000000000E+00 0.  1.
<mgrwt>
<rscale>  0 0.21906947E+04</rscale>
<asrwt>0</asrwt>
<pdfrwt beam="1">  1        1 0.96711151E-01 0.21906947E+04</pdfrwt>
<pdfrwt beam="2">  1       -1 0.29363001E+00 0.21906947E+04</pdfrwt>
<totfact> 0.10607356E+00</totfact>
</mgrwt>
</event>
<event>
12    1  0.1549527E-007  0.2514947E+04  0.7818608E-02  0.8397680E-01
          2   -1    0    0  501    0  0.00000000000E+00  0.00000000000E+00  0.23179226609E+04  0.23179226609E+04  0.00000000000E+00 0. -1.
         -2   -1    0    0    0  501 -0.00000000000E+00 -0.00000000000E+00 -0.68217967680E+03  0.68217967680E+03  0.00000000000E+00 0.  1.
         23    2    1    2    0    0  0.48190330419E+03  0.87917548116E+03  0.17039122673E+03  0.10208299351E+04  0.88770856605E+02 0.  0.
        254    2    1    2    0    0 -0.48190330419E+03 -0.87917548116E+03  0.14653517574E+04  0.19792724026E+04  0.87469031640E+03 0.  0.
        -24    2    4    4    0    0 -0.54499576099E+02 -0.11958094091E+03 -0.10325906892E+03  0.18304319296E+03  0.74649648033E+02 0.  0.
         24    2    4    4    0    0 -0.42740372809E+03 -0.75959454025E+03  0.15686108263E+04  0.17962292097E+04  0.79004030496E+02 0.  0.
         13    1    3    3    0    0  0.66347565429E+02  0.14260952504E+03  0.58228287639E+02  0.16772003325E+03  0.00000000000E+00 0. -1.
        -13    1    3    3    0    0  0.41555573876E+03  0.73656595612E+03  0.11216293909E+03  0.85310990185E+03  0.00000000000E+00 0.  1.
          2    1    6    6  502    0 -0.16360579220E+03 -0.25331913197E+03  0.61099151845E+03  0.68135752251E+03  0.00000000000E+00 0. -1.
          3    1    5    5  503    0 -0.21261573809E+02 -0.13057227079E+02  0.72617650714E+01  0.25986129603E+02  0.00000000000E+00 0. -1.
         -4    1    5    5    0  503 -0.33238002291E+02 -0.10652371383E+03 -0.11052083399E+03  0.15705706336E+03  0.00000000000E+00 0.  1.
         -1    1    6    6    0  502 -0.26379793589E+03 -0.50627540828E+03  0.95761930787E+03  0.11148716872E+04  0.00000000000E+00 0.  1.
<mgrwt>
<rscale>  0 0.25149471E+04</rscale>
<asrwt>0</asrwt>
<pdfrwt beam="1">  1        2 0.35660348E+00 0.25149471E+04</pdfrwt>
<pdfrwt beam="2">  1       -2 0.10495072E+00 0.25149471E+04</pdfrwt>
<totfact> 0.29026009E+00</totfact>
</mgrwt>
</event>
<event>
12    1  0.1549527E-007  0.1267253E+04  0.7818608E-02  0.9055945E-01
          1   -1    0    0  501    0  0.00000000000E+00  0.00000000000E+00  0.55637919782E+03  0.55637919782E+03  0.00000000000E+00 0. -1.
         -1   -1    0    0    0  501 -0.00000000000E+00 -0.00000000000E+00 -0.72159822006E+03  0.72159822006E+03  0.00000000000E+00 0.  1.
         23    2    1    2    0    0 -0.15294784456E+02  0.14338953694E+03  0.23049273439E+03  0.28678787943E+03  0.91246355799E+02 0.  0.
        254    2    1    2    0    0  0.15294784456E+02 -0.14338953694E+03 -0.39571175662E+03  0.99118953845E+03  0.89725939229E+03 0.  0.
        -24    2    4    4    0    0 -0.16036819651E+03 -0.39137838165E+03 -0.50068224387E+03  0.65987455769E+03  0.76529252444E+02 0.  0.
         24    2    4    4    0    0  0.17566298096E+03  0.24798884471E+03  0.10497048725E+03  0.33131498076E+03  0.79967889175E+02 0.  0.
         11    1    3    3    0    0  0.14682789661E+02  0.12727820351E+03  0.13836018734E+03  0.18857058849E+03  0.00000000000E+00 0.  1.
        -11    1    3    3    0    0 -0.29977574117E+02  0.16111333429E+02  0.92132547046E+02  0.98217290942E+02  0.00000000000E+00 0. -1.
          2    1    6    6  502    0  0.65411126236E+02  0.87334767576E+02 -0.18059281513E+01  0.10912945725E+03  0.00000000000E+00 0. -1.
          3    1    5    5  503    0  0.30177494709E+01  0.36350164849E+00  0.53128742428E+00  0.30856460660E+01  0.00000000000E+00 0. -1.
         -4    1    5    5    0  503 -0.16338594598E+03 -0.39174188330E+03 -0.50121353130E+03  0.65678891162E+03  0.00000000000E+00 0.  1.
         -1    1    6    6    0  502  0.11025185473E+03  0.16065407713E+03  0.10677641540E+03  0.22218552351E+03  0.00000000000E+00 0.  1.
<mgrwt>
<rscale>  0 0.12672525E+04</rscale>
<asrwt>0</asrwt>
<pdfrwt beam="1">  1        1 0.85596799E-01 0.12672525E+04</pdfrwt>
<pdfrwt beam="2">  1       -1 0.11101511E+00 0.12672525E+04</pdfrwt>
<totfact> 0.28080298E+01</totfact>
</mgrwt>
</event>
<event>
12    1  0.1549527E-007  0.1309684E+04  0.7818608E-02  0.9021921E-01
         -2   -1    0    0    0  501 -0.00000000000E+00  0.00000000000E+00  0.19245846511E+03  0.19245846511E+03  0.00000000000E+00 0. -1.
          2   -1    0    0  501    0  0.00000000000E+00 -0.00000000000E+00 -0.22281074294E+04  0.22281074294E+04  0.00000000000E+00 0.  1.
         23    2    1    2    0    0  0.31199146804E+03  0.13995998757E+01 -0.32240419884E+03  0.45780296824E+03  0.91095857694E+02 0.  0.
        254    2    1    2    0    0 -0.31199146804E+03 -0.13995998757E+01 -0.17132447654E+04  0.19627629262E+04  0.90547779838E+03 0.  0.
        -24    2    4    4    0    0 -0.15573534496E+03  0.93692154304E+02  0.37032729191E+02  0.20132978853E+03  0.78297785864E+02 0.  0.
         24    2    4    4    0    0 -0.15625612308E+03 -0.95091754180E+02 -0.17502774946E+04  0.17614331377E+04  0.75610665540E+02 0.  0.
         13    1    3    3    0    0  0.25760453955E+03 -0.28876078725E+02 -0.28469253290E+03  0.38502436937E+03  0.00000000000E+00 0. -1.
        -13    1    3    3    0    0  0.54386928489E+02  0.30275678600E+02 -0.37711665936E+02  0.72778598865E+02  0.00000000000E+00 0.  1.
          2    1    6    6  502    0 -0.14632227208E+03 -0.68260630959E+02 -0.16213235058E+04  0.16293433130E+04  0.00000000000E+00 0. -1.
          1    1    5    5  503    0 -0.99248665801E+02  0.15521333855E+02  0.28973002977E+02  0.10454972200E+03  0.00000000000E+00 0. -1.
         -2    1    5    5    0  503 -0.56486679159E+02  0.78170820449E+02  0.80597262131E+01  0.96780066536E+02  0.00000000000E+00 0.  1.
         -1    1    6    6    0  502 -0.99338510053E+01 -0.26831123221E+02 -0.12895398882E+03  0.13208982475E+03  0.00000000000E+00 0.  1.
<mgrwt>
<rscale>  0 0.13096841E+04</rscale>
<asrwt>0</asrwt>
<pdfrwt beam="1">  1        2 0.34278577E+00 0.13096841E+04</pdfrwt>
<pdfrwt beam="2">  1       -2 0.29608994E-01 0.13096841E+04</pdfrwt>
<totfact> 0.51365269E+01</totfact>
</mgrwt>
</event>
<event>
12    1  0.1549527E-007  0.1915045E+04  0.7818608E-02  0.8647404E-01
         -2   -1    0    0    0  501 -0.00000000000E+00  0.00000000000E+00  0.44801929407E+03  0.44801929407E+03  0.00000000000E+00 0.  1.
          2   -1    0    0  501    0  0.00000000000E+00 -0.00000000000E+00 -0.20464506494E+04  0.20464506494E+04  0.00000000000E+00 0. -1.
         23    2    1    2    0    0  0.36600153233E+03 -0.31350786495E+03  0.11327530815E+03  0.50391966543E+03  0.94124548960E+02 0.  0.
        254    2    1    2    0    0 -0.36600153233E+03  0.31350786495E+03 -0.17117066635E+04  0.19905502781E+04  0.89448667098E+03 0.  0.
        -24    2    4    4    0    0  0.27697581589E+03 -0.13105339508E+02 -0.54157738153E+03  0.61380374715E+03  0.81003872263E+02 0.  0.
         24    2    4    4    0    0 -0.64297734823E+03  0.32661320446E+03 -0.11701292820E+04  0.13767465309E+04  0.78309757899E+02 0.  0.
         11    1    3    3    0    0  0.39555535613E+02 -0.11972420022E+02  0.31723850339E+02  0.52099730509E+02  0.00000000000E+00 0. -1.
        -11    1    3    3    0    0  0.32644599672E+03 -0.30153544493E+03  0.81551457814E+02  0.45181993492E+03  0.00000000000E+00 0.  1.
          2    1    6    6  502    0 -0.56052339121E+03  0.25393616436E+03 -0.10024290829E+04  0.11762372694E+04  0.00000000000E+00 0. -1.
          3    1    5    5  503    0  0.25269756275E+03 -0.45900050162E+01 -0.52640644349E+03  0.58393567292E+03  0.00000000000E+00 0. -1.
         -4    1    5    5    0  503  0.24278253143E+02 -0.85153344916E+01 -0.15170938041E+02  0.29868074230E+02  0.00000000000E+00 0.  1.
         -1    1    6    6    0  502 -0.82453957015E+02  0.72677040099E+02 -0.16770019909E+03  0.20050926153E+03  0.00000000000E+00 0.  1.
<mgrwt>
<rscale>  0 0.19150450E+04</rscale>
<asrwt>0</asrwt>
<pdfrwt beam="1">  1        2 0.31483856E+00 0.19150450E+04</pdfrwt>
<pdfrwt beam="2">  1       -2 0.68926045E-01 0.19150450E+04</pdfrwt>
<totfact> 0.11321188E+01</totfact>
</mgrwt>
</event>
<event>
12    1  0.1549527E-007  0.2018966E+04  0.7818608E-02  0.8597804E-01
         -2   -1    0    0    0  501 -0.00000000000E+00  0.00000000000E+00  0.47983801154E+03  0.47983801154E+03  0.00000000000E+00 0.  1.
          2   -1    0    0  501    0  0.00000000000E+00 -0.00000000000E+00 -0.21237500914E+04  0.21237500914E+04  0.00000000000E+00 0. -1.
         23    2    1    2    0    0 -0.35207654490E+03  0.24444476091E+03 -0.15451738003E+04  0.16064850884E+04  0.97576284916E+02 0.  0.
        254    2    1    2    0    0  0.35207654490E+03 -0.24444476091E+03 -0.98738279575E+02  0.99710301460E+03  0.89484861249E+03 0.  0.
        -24    2    4    4    0    0  0.35292250088E+03 -0.16680948393E+03 -0.46616915771E+03  0.61322413547E+03  0.79689780797E+02 0.  0.
         24    2    4    4    0    0 -0.84595598470E+00 -0.77635276979E+02  0.36743087814E+03  0.38387887913E+03  0.79558731526E+02 0.  0.
         11    1    3    3    0    0 -0.97666891621E+02  0.56029629178E+02 -0.57642816181E+03  0.58732237042E+03  0.00000000000E+00 0. -1.
        -11    1    3    3    0    0 -0.25440965328E+03  0.18841513173E+03 -0.96874563848E+03  0.10191627179E+04  0.00000000000E+00 0.  1.
          2    1    6    6  502    0  0.28410473966E+02 -0.16883094663E+02  0.21044514445E+03  0.21302430082E+03  0.00000000000E+00 0. -1.
          1    1    5    5  503    0  0.28794566615E+03 -0.16777802361E+03 -0.38343646657E+03  0.50802135364E+03  0.00000000000E+00 0. -1.
         -2    1    5    5    0  503  0.64976834730E+02  0.96853967701E+00 -0.82732691146E+02  0.10520278183E+03  0.00000000000E+00 0.  1.
         -1    1    6    6    0  502 -0.29256429951E+02 -0.60752182316E+02  0.15698573369E+03  0.17085457831E+03  0.00000000000E+00 0.  1.
<mgrwt>
<rscale>  0 0.20189661E+04</rscale>
<asrwt>0</asrwt>
<pdfrwt beam="1">  1        2 0.32673078E+00 0.20189661E+04</pdfrwt>
<pdfrwt beam="2">  1       -2 0.73821233E-01 0.20189661E+04</pdfrwt>
<totfact> 0.87424926E+00</totfact>
</mgrwt>
</event>
<event>
12    1  0.1549527E-007  0.2223901E+04  0.7818608E-02  0.8508545E-01
          2   -1    0    0  501    0  0.00000000000E+00  0.00000000000E+00  0.21112444491E+04  0.21112444491E+04  0.00000000000E+00 0.  1.
         -2   -1    0    0    0  501 -0.00000000000E+00 -0.00000000000E+00 -0.58564211454E+03  0.58564211454E+03  0.00000000000E+00 0. -1.
         23    2    1    2    0    0 -0.13462163484E+03 -0.49688697492E+03 -0.29578242088E+03  0.60157294727E+03  0.96866505892E+02 0.  0.
        254    2    1    2    0    0  0.13462163484E+03  0.49688697492E+03  0.18213847554E+04  0.20953136163E+04  0.89881982243E+03 0.  0.
        -24    2    4    4    0    0 -0.20150847331E+03  0.55909437848E+03  0.15164341942E+04  0.16307120186E+04  0.80354423869E+02 0.  0.
         24    2    4    4    0    0  0.33613010815E+03 -0.62207403561E+02  0.30495056120E+03  0.46460159773E+03  0.77502188153E+02 0.  0.
         11    1    3    3    0    0 -0.88480507886E+02 -0.29706014337E+03 -0.12323451530E+03  0.33355700385E+03  0.00000000000E+00 0.  1.
        -11    1    3    3    0    0 -0.46141126958E+02 -0.19982683155E+03 -0.17254790558E+03  0.26801594341E+03  0.00000000000E+00 0. -1.
          4    1    6    6  502    0  0.21952313354E+03 -0.51664257558E+02  0.15191614234E+03  0.27191564128E+03  0.00000000000E+00 0. -1.
          3    1    5    5  503    0 -0.17061958737E+03  0.45533384563E+03  0.13151200569E+04  0.14021343440E+04  0.00000000000E+00 0. -1.
         -4    1    5    5    0  503 -0.30888885937E+02  0.10376053285E+03  0.20131413729E+03  0.22857767460E+03  0.00000000000E+00 0.  1.
         -3    1    6    6    0  502  0.11660697461E+03 -0.10543146003E+02  0.15303441887E+03  0.19268595645E+03  0.00000000000E+00 0.  1.
<mgrwt>
<rscale>  0 0.22239008E+04</rscale>
<asrwt>0</asrwt>
<pdfrwt beam="1">  1        2 0.32480684E+00 0.22239008E+04</pdfrwt>
<pdfrwt beam="2">  1       -2 0.90098788E-01 0.22239008E+04</pdfrwt>
<totfact> 0.55685111E+00</totfact>
</mgrwt>
</event>
<event>
12    1  0.1549527E-007  0.1495561E+04  0.7818608E-02  0.8887410E-01
          2   -1    0    0  501    0  0.00000000000E+00  0.00000000000E+00  0.31331137749E+04  0.31331137749E+04  0.00000000000E+00 0. -1.
         -2   -1    0    0    0  501 -0.00000000000E+00 -0.00000000000E+00 -0.17847283237E+03  0.17847283237E+03  0.00000000000E+00 0.  1.
         23    2    1    2    0    0  0.65042789159E+02  0.10578058619E+03  0.18934853020E+04  0.18996618151E+04  0.89489251602E+02 0.  0.
        254    2    1    2    0    0 -0.65042789159E+02 -0.10578058619E+03  0.10611556405E+04  0.14119247921E+04  0.92307108522E+03 0.  0.
        -24    2    4    4    0    0  0.10170527648E+03 -0.14309885235E+03 -0.11218849159E+03  0.22354960516E+03  0.81036556656E+02 0.  0.
         24    2    4    4    0    0 -0.16674806564E+03  0.37318266158E+02  0.11733441321E+04  0.11883751870E+04  0.79382379953E+02 0.  0.
         11    1    3    3    0    0  0.11002791964E+02 -0.61140821104E+01  0.62015868271E+03  0.62028641382E+03  0.00000000000E+00 0. -1.
        -11    1    3    3    0    0  0.54039997195E+02  0.11189466830E+03  0.12733266193E+04  0.12793754013E+04  0.00000000000E+00 0.  1.
          2    1    6    6  502    0 -0.76982978615E+02  0.47592365823E+02  0.75370415636E+03  0.75911880993E+03  0.00000000000E+00 0. -1.
          3    1    5    5  503    0 -0.14194625130E+01 -0.28576233019E+02  0.61260458104E+01  0.29259945397E+02  0.00000000000E+00 0. -1.
         -4    1    5    5    0  503  0.10312473899E+03 -0.11452261933E+03 -0.11831453740E+03  0.19428965976E+03  0.00000000000E+00 0.  1.
         -1    1    6    6    0  502 -0.89765087022E+02 -0.10274099666E+02  0.41963997577E+03  0.42925637705E+03  0.00000000000E+00 0.  1.
<mgrwt>
<rscale>  0 0.14955610E+04</rscale>
<asrwt>0</asrwt>
<pdfrwt beam="1">  1        2 0.48201746E+00 0.14955610E+04</pdfrwt>
<pdfrwt beam="2">  1       -2 0.27457361E-01 0.14955610E+04</pdfrwt>
<totfact> 0.16890294E+01</totfact>
</mgrwt>
</event>
<event>
12    1  0.1549527E-007  0.1604930E+04  0.7818608E-02  0.8817525E-01
          1   -1    0    0  501    0  0.00000000000E+00  0.00000000000E+00  0.48455862418E+03  0.48455862418E+03  0.00000000000E+00 0. -1.
         -1   -1    0    0    0  501 -0.00000000000E+00 -0.00000000000E+00 -0.13289417653E+04  0.13289417653E+04  0.00000000000E+00 0.  1.
         23    2    1    2    0    0  0.79456074622E+02  0.44536764283E+03  0.47639943781E+02  0.46374839678E+03  0.90152128053E+02 0.  0.
        254    2    1    2    0    0 -0.79456074622E+02 -0.44536764283E+03 -0.89202308490E+03  0.13497519927E+04  0.90634411388E+03 0.  0.
        -24    2    4    4    0    0 -0.14052334314E+03  0.24185537440E+03 -0.13127192856E+03  0.31964482550E+03  0.81851470050E+02 0.  0.
         24    2    4    4    0    0  0.61067268517E+02 -0.68722301723E+03 -0.76075115635E+03  0.10301071672E+04  0.79835877800E+02 0.  0.
         13    1    3    3    0    0  0.89640749974E+02  0.25224245743E+03  0.20844804174E+02  0.26850740632E+03  0.00000000000E+00 0. -1.
        -13    1    3    3    0    0 -0.10184675352E+02  0.19312518540E+03  0.26795139607E+02  0.19524099046E+03  0.00000000000E+00 0.  1.
          4    1    6    6  502    0  0.68864850941E+02 -0.62796580260E+03 -0.71954321416E+03  0.95751023700E+03  0.00000000000E+00 0. -1.
          1    1    5    5  503    0 -0.12569769392E+03  0.13864263694E+03 -0.82004748219E+02  0.20431952859E+03  0.00000000000E+00 0. -1.
         -2    1    5    5    0  503 -0.14825649223E+02  0.10321273746E+03 -0.49267180339E+02  0.11532529691E+03  0.00000000000E+00 0.  1.
         -1    1    6    6    0  502 -0.77975824241E+01 -0.59257214630E+02 -0.41207942189E+02  0.72596930217E+02  0.00000000000E+00 0.  1.
<mgrwt>
<rscale>  0 0.16049301E+04</rscale>
<asrwt>0</asrwt>
<pdfrwt beam="1">  1        1 0.74547482E-01 0.16049301E+04</pdfrwt>
<pdfrwt beam="2">  1       -1 0.20445258E+00 0.16049301E+04</pdfrwt>
<totfact> 0.62251524E+00</totfact>
</mgrwt>
</event>
<event>
12    1  0.1574634E-007  0.2136608E+04  0.7818608E-02  0.8545287E-01
          2   -1    0    0  501    0  0.00000000000E+00  0.00000000000E+00  0.11153622482E+04  0.11153622482E+04  0.00000000000E+00 0. -1.
         -2   -1    0    0    0  501 -0.00000000000E+00 -0.00000000000E+00 -0.10232309691E+04  0.10232309691E+04  0.00000000000E+00 0.  1.
         23    2    1    2    0    0  0.21325844330E+02  0.90254830426E+01 -0.84005134219E+03  0.84582498403E+03  0.95903050634E+02 0.  0.
        254    2    1    2    0    0 -0.21325844330E+02 -0.90254830426E+01  0.93218262132E+03  0.12927682333E+04  0.89540438608E+03 0.  0.
        -24    2    4    4    0    0 -0.97143055068E+02 -0.19729604487E+03 -0.88024865480E+02  0.24943210826E+03  0.78137681167E+02 0.  0.
         24    2    4    4    0    0  0.75817210739E+02  0.18827056183E+03  0.10202074868E+04  0.10433361251E+04  0.80826356108E+02 0.  0.
         13    1    3    3    0    0  0.32779829836E+02  0.47055931847E+02 -0.56835476576E+03  0.57124068283E+03  0.00000000000E+00 0.  1.
        -13    1    3    3    0    0 -0.11453985507E+02 -0.38030448804E+02 -0.27169657643E+03  0.27458430120E+03  0.00000000000E+00 0. -1.
          2    1    6    6  502    0  0.10187124246E+02  0.47683677946E+02  0.11471623367E+03  0.12464880630E+03  0.00000000000E+00 0. -1.
          1    1    5    5  503    0 -0.10156631455E+02 -0.58140475842E+00  0.88966157590E+01  0.13514620452E+02  0.00000000000E+00 0. -1.
         -2    1    5    5    0  503 -0.86986423614E+02 -0.19671464011E+03 -0.96921481239E+02  0.23591748781E+03  0.00000000000E+00 0.  1.
         -1    1    6    6    0  502  0.65630086493E+02  0.14058688388E+03  0.90549125313E+03  0.91868731877E+03  0.00000000000E+00 0.  1.
<mgrwt>
<rscale>  0 0.21366078E+04</rscale>
<asrwt>0</asrwt>
<pdfrwt beam="1">  1        2 0.17159419E+00 0.21366078E+04</pdfrwt>
<pdfrwt beam="2">  1       -2 0.15742015E+00 0.21366078E+04</pdfrwt>
<totfact> 0.51562051E+00</totfact>
</mgrwt>
</event>
<event>
12    1  0.1549527E-007  0.1147644E+04  0.7818608E-02  0.9159960E-01
          2   -1    0    0  501    0  0.00000000000E+00  0.00000000000E+00  0.55125936906E+03  0.55125936906E+03  0.00000000000E+00 0.  1.
         -2   -1    0    0    0  501 -0.00000000000E+00 -0.00000000000E+00 -0.59730817071E+03  0.59730817071E+03  0.00000000000E+00 0. -1.
         23    2    1    2    0    0 -0.18002053757E+03  0.14430461022E+03  0.87459426735E+02  0.26245873726E+03  0.89466323069E+02 0.  0.
        254    2    1    2    0    0  0.18002053757E+03 -0.14430461022E+03 -0.13350822839E+03  0.88610880251E+03  0.84506399069E+03 0.  0.
        -24    2    4    4    0    0  0.48239341058E+03 -0.24072830952E+03 -0.44480300715E+02  0.54685515755E+03  0.80115819975E+02 0.  0.
         24    2    4    4    0    0 -0.30237287301E+03  0.96423699301E+02 -0.89027927677E+02  0.33925364495E+03  0.80250729518E+02 0.  0.
         11    1    3    3    0    0 -0.17994711849E+03  0.12346849020E+03  0.97861779299E+02  0.23917015151E+03  0.00000000000E+00 0.  1.
        -11    1    3    3    0    0 -0.73419084417E-01  0.20836120014E+02 -0.10402352564E+02  0.23288585755E+02  0.00000000000E+00 0. -1.
          2    1    6    6  502    0 -0.24577999712E+03  0.85219150344E+02 -0.39296813458E+02  0.26308620282E+03  0.00000000000E+00 0. -1.
          1    1    5    5  503    0  0.24002259478E+03 -0.15587039644E+03  0.24368260888E+00  0.28619309194E+03  0.00000000000E+00 0. -1.
         -2    1    5    5    0  503  0.24237081580E+03 -0.84857913074E+02 -0.44723983323E+02  0.26066206561E+03  0.00000000000E+00 0.  1.
         -3    1    6    6    0  502 -0.56592875896E+02  0.11204548957E+02 -0.49731114218E+02  0.76167442132E+02  0.00000000000E+00 0.  1.
<mgrwt>
<rscale>  0 0.11476441E+04</rscale>
<asrwt>0</asrwt>
<pdfrwt beam="1">  1        2 0.84809133E-01 0.11476441E+04</pdfrwt>
<pdfrwt beam="2">  1       -2 0.91893565E-01 0.11476441E+04</pdfrwt>
<totfact> 0.54761774E+01</totfact>
</mgrwt>
</event>
<event>
12    1  0.1549527E-007  0.2292412E+04  0.7818608E-02  0.8480919E-01
          1   -1    0    0  501    0  0.00000000000E+00  0.00000000000E+00  0.17611544981E+04  0.17611544981E+04  0.00000000000E+00 0. -1.
         -1   -1    0    0    0  501 -0.00000000000E+00 -0.00000000000E+00 -0.74598130700E+03  0.74598130700E+03  0.00000000000E+00 0.  1.
         23    2    1    2    0    0  0.36849792943E+03  0.45141377204E+03 -0.41192081193E+03  0.72000397970E+03  0.95717594583E+02 0.  0.
        254    2    1    2    0    0 -0.36849792943E+03 -0.45141377204E+03  0.14270940031E+04  0.17871318254E+04  0.90425535680E+03 0.  0.
        -24    2    4    4    0    0 -0.84857176927E+02 -0.68758504263E+03  0.90437743583E+03  0.11422695047E+04  0.83109227367E+02 0.  0.
         24    2    4    4    0    0 -0.28364075250E+03  0.23617127058E+03  0.52271656725E+03  0.64486232072E+03  0.79911560334E+02 0.  0.
         13    1    3    3    0    0  0.27505065157E+03  0.36735190536E+03 -0.36301091908E+03  0.58513008013E+03  0.00000000000E+00 0.  1.
        -13    1    3    3    0    0  0.93447277856E+02  0.84061866680E+02 -0.48909892849E+02  0.13487389958E+03  0.00000000000E+00 0. -1.
          4    1    6    6  502    0 -0.11359636589E+03  0.14527560232E+03  0.24045526001E+03  0.30303113213E+03  0.00000000000E+00 0. -1.
          3    1    5    5  503    0 -0.16064168263E+02 -0.37831119157E+03  0.44612712638E+03  0.58515538796E+03  0.00000000000E+00 0. -1.
         -4    1    5    5    0  503 -0.68793008664E+02 -0.30927385105E+03  0.45825030945E+03  0.55711411676E+03  0.00000000000E+00 0.  1.
         -3    1    6    6    0  502 -0.17004438661E+03  0.90895668264E+02  0.28226130724E+03  0.34183118859E+03  0.00000000000E+00 0.  1.
<mgrwt>
<rscale>  0 0.22924121E+04</rscale>
<asrwt>0</asrwt>
<pdfrwt beam="1">  1        1 0.27094684E+00 0.22924121E+04</pdfrwt>
<pdfrwt beam="2">  1       -1 0.11476636E+00 0.22924121E+04</pdfrwt>
<totfact> 0.27009172E+00</totfact>
</mgrwt>
</event>
<event>
12    1  0.1549527E-007  0.1983035E+04  0.7818608E-02  0.8614594E-01
          2   -1    0    0  501    0  0.00000000000E+00  0.00000000000E+00  0.78012081923E+03  0.78012081923E+03  0.00000000000E+00 0. -1.
         -2   -1    0    0    0  501 -0.00000000000E+00 -0.00000000000E+00 -0.12601981728E+04  0.12601981728E+04  0.00000000000E+00 0.  1.
         23    2    1    2    0    0 -0.44278541275E+03  0.24385892065E+03 -0.81435346704E+03  0.96290492890E+03  0.92131633617E+02 0.  0.
        254    2    1    2    0    0  0.44278541275E+03 -0.24385892065E+03  0.33427611347E+03  0.10774140631E+04  0.89081673112E+03 0.  0.
        -24    2    4    4    0    0  0.66469960697E+03 -0.32130302532E+03  0.12620655906E+03  0.75317937452E+03  0.79308719964E+02 0.  0.
         24    2    4    4    0    0 -0.22191419423E+03  0.77444104671E+02  0.20806955442E+03  0.32423468859E+03  0.81189253380E+02 0.  0.
         13    1    3    3    0    0 -0.38932885966E+03  0.20636478783E+03 -0.75744351489E+03  0.87628994338E+03  0.00000000000E+00 0.  1.
        -13    1    3    3    0    0 -0.53456553087E+02  0.37494132825E+02 -0.56909952143E+02  0.86614985523E+02  0.00000000000E+00 0. -1.
          4    1    6    6  502    0 -0.15701291573E+03  0.62335293636E+02  0.19189942392E+03  0.25566410276E+03  0.00000000000E+00 0. -1.
          3    1    5    5  503    0  0.52634309306E+03 -0.26181381494E+03  0.68263519320E+02  0.59181368130E+03  0.00000000000E+00 0. -1.
         -4    1    5    5    0  503  0.13835651392E+03 -0.59489210378E+02  0.57943039736E+02  0.16136569322E+03  0.00000000000E+00 0.  1.
         -3    1    6    6    0  502 -0.64901278499E+02  0.15108811035E+02  0.16170130498E+02  0.68570585837E+02  0.00000000000E+00 0.  1.
<mgrwt>
<rscale>  0 0.19830349E+04</rscale>
<asrwt>0</asrwt>
<pdfrwt beam="1">  1        2 0.12001859E+00 0.19830349E+04</pdfrwt>
<pdfrwt beam="2">  1       -2 0.19387664E+00 0.19830349E+04</pdfrwt>
<totfact> 0.48352970E+00</totfact>
</mgrwt>
</event>
<event>
12    1  0.1549527E-007  0.1188216E+04  0.7818608E-02  0.9123234E-01
         -1   -1    0    0    0  501 -0.00000000000E+00  0.00000000000E+00  0.10430347058E+04  0.10430347058E+04  0.00000000000E+00 0.  1.
          1   -1    0    0  501    0  0.00000000000E+00 -0.00000000000E+00 -0.33840128634E+03  0.33840128634E+03  0.00000000000E+00 0. -1.
         23    2    1    2    0    0  0.19201713020E+02  0.22175227092E+03  0.39720357562E+02  0.23870426824E+03  0.76545708100E+02 0.  0.
        254    2    1    2    0    0 -0.19201713020E+02 -0.22175227092E+03  0.66491306185E+03  0.11427317239E+04  0.90232124958E+03 0.  0.
        -24    2    4    4    0    0 -0.13552115785E+03 -0.48505868041E+03  0.67374058223E+03  0.84424056427E+03  0.71887763515E+02 0.  0.
         24    2    4    4    0    0  0.11631944483E+03  0.26330640949E+03 -0.88275203792E+01  0.29849115959E+03  0.78476548799E+02 0.  0.
         13    1    3    3    0    0 -0.17472479991E+02  0.77694205204E+02 -0.13580528377E+02  0.80784329114E+02  0.00000000000E+00 0. -1.
        -13    1    3    3    0    0  0.36674193011E+02  0.14405806572E+03  0.53300885939E+02  0.15791993913E+03  0.00000000000E+00 0.  1.
          4    1    6    6  502    0  0.11636835150E+03  0.25534262423E+03  0.70833579740E+01  0.28069845554E+03  0.00000000000E+00 0. -1.
          1    1    5    5  503    0 -0.59091100257E+02 -0.30094304539E+03  0.45002894517E+03  0.54459574566E+03  0.00000000000E+00 0. -1.
         -2    1    5    5    0  503 -0.76430057594E+02 -0.18411563502E+03  0.22371163706E+03  0.29964481861E+03  0.00000000000E+00 0.  1.
         -3    1    6    6    0  502 -0.48906664595E-01  0.79637852565E+01 -0.15910878353E+02  0.17792704051E+02  0.00000000000E+00 0.  1.
<mgrwt>
<rscale>  0 0.11882160E+04</rscale>
<asrwt>0</asrwt>
<pdfrwt beam="1">  1        1 0.52061737E-01 0.11882160E+04</pdfrwt>
<pdfrwt beam="2">  1       -1 0.16046688E+00 0.11882160E+04</pdfrwt>
<totfact> 0.21497469E+01</totfact>
</mgrwt>
</event>
<event>
12    1  0.1549527E-007  0.2750749E+04  0.7818608E-02  0.8318724E-01
          2   -1    0    0  501    0  0.00000000000E+00  0.00000000000E+00  0.23687789303E+04  0.23687789303E+04  0.00000000000E+00 0.  1.
         -2   -1    0    0    0  501 -0.00000000000E+00 -0.00000000000E+00 -0.79857783517E+03  0.79857783517E+03  0.00000000000E+00 0. -1.
         23    2    1    2    0    0 -0.80047038377E+03 -0.50465861826E+03  0.16053914413E+04  0.18657314648E+04  0.90769281225E+02 0.  0.
        254    2    1    2    0    0  0.80047038377E+03  0.50465861826E+03 -0.35190346242E+02  0.13016253007E+04  0.89306041599E+03 0.  0.
        -24    2    4    4    0    0  0.93438567774E+03  0.48082591456E+03  0.14140015000E+03  0.10633571208E+04  0.80400305495E+02 0.  0.
         24    2    4    4    0    0 -0.13391529397E+03  0.23832703702E+02 -0.17659049625E+03  0.23826817985E+03  0.84179679486E+02 0.  0.
         13    1    3    3    0    0 -0.44191120251E+03 -0.27053365953E+03  0.79062525098E+03  0.94528422145E+03  0.00000000000E+00 0. -1.
        -13    1    3    3    0    0 -0.35855918126E+03 -0.23412495872E+03  0.81476619037E+03  0.92044724332E+03  0.00000000000E+00 0.  1.
          2    1    6    6  502    0 -0.84923449228E+02  0.43357709644E+02 -0.15348012147E+03  0.18068766118E+03  0.00000000000E+00 0. -1.
          1    1    5    5  503    0  0.71788097326E+03  0.33767592615E+03  0.12673898879E+03  0.80339336202E+03  0.00000000000E+00 0. -1.
         -2    1    5    5    0  503  0.21650470448E+03  0.14314998841E+03  0.14661161217E+02  0.25996375881E+03  0.00000000000E+00 0.  1.
         -1    1    6    6    0  502 -0.48991844739E+02 -0.19525005941E+02 -0.23110374773E+02  0.57580518668E+02  0.00000000000E+00 0.  1.
<mgrwt>
<rscale>  0 0.27507485E+04</rscale>
<asrwt>0</asrwt>
<pdfrwt beam="1">  1        2 0.36442752E+00 0.27507485E+04</pdfrwt>
<pdfrwt beam="2">  1       -2 0.12285813E+00 0.27507485E+04</pdfrwt>
<totfact> 0.18118884E+00</totfact>
</mgrwt>
</event>
<event>
12    1  0.1549527E-007  0.1463837E+04  0.7818608E-02  0.8908864E-01
          2   -1    0    0  501    0  0.00000000000E+00  0.00000000000E+00  0.21337352614E+04  0.21337352614E+04  0.00000000000E+00 0. -1.
         -2   -1    0    0    0  501 -0.00000000000E+00 -0.00000000000E+00 -0.25106410453E+03  0.25106410453E+03  0.00000000000E+00 0.  1.
         23    2    1    2    0    0 -0.18925691794E+03  0.35828711613E+03  0.89463770128E+03  0.98634135365E+03  0.91130734601E+02 0.  0.
        254    2    1    2    0    0  0.18925691794E+03 -0.35828711613E+03  0.98803345558E+03  0.13984580123E+04  0.90293236967E+03 0.  0.
        -24    2    4    4    0    0  0.49428665844E+03 -0.12678460044E+03  0.82835072707E+03  0.97591656943E+03  0.76515278392E+02 0.  0.
         24    2    4    4    0    0 -0.30502974050E+03 -0.23150251569E+03  0.15968272851E+03  0.42254144286E+03  0.80038364492E+02 0.  0.
         13    1    3    3    0    0 -0.18294560052E+03  0.27786694577E+03  0.75560071805E+03  0.82559770919E+03  0.00000000000E+00 0. -1.
        -13    1    3    3    0    0 -0.63113174249E+01  0.80420170353E+02  0.13903698323E+03  0.16074364446E+03  0.00000000000E+00 0.  1.
          4    1    6    6  502    0 -0.11054014556E+03 -0.51360475466E+02  0.79723906128E+02  0.14564657026E+03  0.00000000000E+00 0. -1.
          1    1    5    5  503    0  0.16770754048E+03 -0.31168878157E+02  0.34408997123E+03  0.38405107265E+03  0.00000000000E+00 0. -1.
         -2    1    5    5    0  503  0.32657911796E+03 -0.95615722283E+02  0.48426075584E+03  0.59186549678E+03  0.00000000000E+00 0.  1.
         -3    1    6    6    0  502 -0.19448959494E+03 -0.18014204022E+03  0.79958822385E+02  0.27689487260E+03  0.00000000000E+00 0.  1.
<mgrwt>
<rscale>  0 0.14638365E+04</rscale>
<asrwt>0</asrwt>
<pdfrwt beam="1">  1        2 0.32826695E+00 0.14638365E+04</pdfrwt>
<pdfrwt beam="2">  1       -2 0.38625248E-01 0.14638365E+04</pdfrwt>
<totfact> 0.34547227E+01</totfact>
</mgrwt>
</event>
<event>
12    1  0.1549527E-007  0.2006435E+04  0.7818608E-02  0.8603618E-01
         -1   -1    0    0    0  501 -0.00000000000E+00  0.00000000000E+00  0.70937785363E+03  0.70937785363E+03  0.00000000000E+00 0.  1.
          1   -1    0    0  501    0  0.00000000000E+00 -0.00000000000E+00 -0.14187713216E+04  0.14187713216E+04  0.00000000000E+00 0. -1.
         23    2    1    2    0    0 -0.16468249878E+03 -0.31932306979E+03  0.47102757540E+03  0.59915376227E+03  0.89614205115E+02 0.  0.
        254    2    1    2    0    0  0.16468249878E+03  0.31932306979E+03 -0.11804210434E+04  0.15289954130E+04  0.90296488577E+03 0.  0.
        -24    2    4    4    0    0  0.10020502498E+02 -0.20496889562E+03 -0.86668523520E+03  0.89398215176E+03  0.77124134467E+02 0.  0.
         24    2    4    4    0    0  0.15466199628E+03  0.52429196541E+03 -0.31373580822E+03  0.63501326124E+03  0.77519587871E+02 0.  0.
         13    1    3    3    0    0 -0.58285278897E+02 -0.17692883780E+03  0.29567844921E+03  0.34946635419E+03  0.00000000000E+00 0. -1.
        -13    1    3    3    0    0 -0.10639721989E+03 -0.14239423198E+03  0.17534912619E+03  0.24968740809E+03  0.00000000000E+00 0.  1.
          4    1    6    6  502    0  0.73980108962E+02  0.14316644834E+03 -0.11251265373E+03  0.19654207107E+03  0.00000000000E+00 0. -1.
          3    1    5    5  503    0 -0.10986232248E+02 -0.14303260502E+03 -0.45336703558E+03  0.47552149514E+03  0.00000000000E+00 0. -1.
         -4    1    5    5    0  503  0.21006734746E+02 -0.61936290601E+02 -0.41331819962E+03  0.41846065662E+03  0.00000000000E+00 0.  1.
         -3    1    6    6    0  502  0.80681887322E+02  0.38112551707E+03 -0.20122315449E+03  0.43847119016E+03  0.00000000000E+00 0.  1.
<mgrwt>
<rscale>  0 0.20064346E+04</rscale>
<asrwt>0</asrwt>
<pdfrwt beam="1">  1        1 0.21827251E+00 0.20064346E+04</pdfrwt>
<pdfrwt beam="2">  1       -1 0.10913505E+00 0.20064346E+04</pdfrwt>
<totfact> 0.53730690E+00</totfact>
</mgrwt>
</event>
<event>
12    1  0.1549527E-007  0.1214470E+04  0.7818608E-02  0.9100284E-01
          1   -1    0    0  501    0  0.00000000000E+00  0.00000000000E+00  0.11300270978E+04  0.11300270978E+04  0.00000000000E+00 0. -1.
         -1   -1    0    0    0  501 -0.00000000000E+00 -0.00000000000E+00 -0.32630596242E+03  0.32630596242E+03  0.00000000000E+00 0.  1.
         23    2    1    2    0    0 -0.10934671938E+03  0.17297806251E+03  0.38819680781E+03  0.44839671414E+03  0.92112629476E+02 0.  0.
        254    2    1    2    0    0  0.10934671938E+03 -0.17297806251E+03  0.41552432760E+03  0.10079363461E+04  0.89520785062E+03 0.  0.
        -24    2    4    4    0    0 -0.15542814566E+03  0.11745627583E+01  0.60519588635E+03  0.63008703193E+03  0.81168459970E+02 0.  0.
         24    2    4    4    0    0  0.26477486503E+03 -0.17415262527E+03 -0.18967155876E+03  0.37784931417E+03  0.79749219266E+02 0.  0.
         13    1    3    3    0    0  0.87207463309E+01  0.24784119599E+02  0.10074752869E+03  0.10411709052E+03  0.00000000000E+00 0.  1.
        -13    1    3    3    0    0 -0.11806746571E+03  0.14819394291E+03  0.28744927912E+03  0.34427962362E+03  0.00000000000E+00 0. -1.
          4    1    6    6  502    0  0.69315301616E+01 -0.24807193513E+02 -0.22960814980E+01  0.25859523403E+02  0.00000000000E+00 0. -1.
          3    1    5    5  503    0 -0.17221253940E+02 -0.28852952113E+02  0.13179034814E+03  0.13600647152E+03  0.00000000000E+00 0. -1.
         -4    1    5    5    0  503 -0.13820689172E+03  0.30027514872E+02  0.47340553821E+03  0.49408056041E+03  0.00000000000E+00 0.  1.
         -3    1    6    6    0  502  0.25784333487E+03 -0.14934543176E+03 -0.18737547726E+03  0.35198979076E+03  0.00000000000E+00 0.  1.
<mgrwt>
<rscale>  0 0.12144704E+04</rscale>
<asrwt>0</asrwt>
<pdfrwt beam="1">  1        1 0.17385032E+00 0.12144704E+04</pdfrwt>
<pdfrwt beam="2">  1       -1 0.50200918E-01 0.12144704E+04</pdfrwt>
<totfact> 0.47394446E+01</totfact>
</mgrwt>
</event>
<event>
12    1  0.1549527E-007  0.1503245E+04  0.7818608E-02  0.8882298E-01
         -1   -1    0    0    0  501 -0.00000000000E+00  0.00000000000E+00  0.10094696479E+04  0.10094696479E+04  0.00000000000E+00 0.  1.
          1   -1    0    0  501    0  0.00000000000E+00 -0.00000000000E+00 -0.55963715044E+03  0.55963715044E+03  0.00000000000E+00 0. -1.
         23    2    1    2    0    0 -0.47086566731E+03 -0.51557390706E+02  0.43735356754E+02  0.48417097980E+03  0.90200416132E+02 0.  0.
        254    2    1    2    0    0  0.47086566731E+03  0.51557390706E+02  0.40609714073E+03  0.10849358186E+04  0.88757996908E+03 0.  0.
        -24    2    4    4    0    0  0.66259740184E+03  0.21681757475E+03  0.15252066021E+03  0.71803900896E+03  0.79197783761E+02 0.  0.
         24    2    4    4    0    0 -0.19173173453E+03 -0.16526018404E+03  0.25357648052E+03  0.36689680961E+03  0.78995259185E+02 0.  0.
         13    1    3    3    0    0 -0.15015773178E+03  0.34031728089E+01  0.51254699682E+02  0.15870088291E+03  0.00000000000E+00 0.  1.
        -13    1    3    3    0    0 -0.32070793553E+03 -0.54960563515E+02 -0.75193429277E+01  0.32547009689E+03  0.00000000000E+00 0. -1.
          2    1    6    6  502    0 -0.22684220914E+02 -0.50283273612E+02  0.87788701334E+02  0.10368142344E+03  0.00000000000E+00 0. -1.
          1    1    5    5  503    0  0.38304744679E+03  0.15362977901E+03  0.61078707459E+02  0.41720266537E+03  0.00000000000E+00 0. -1.
         -4    1    5    5    0  503  0.27954995505E+03  0.63187795738E+02  0.91441952752E+02  0.30083634359E+03  0.00000000000E+00 0.  1.
         -1    1    6    6    0  502 -0.16904751362E+03 -0.11497691043E+03  0.16578777918E+03  0.26321538617E+03  0.00000000000E+00 0.  1.
<mgrwt>
<rscale>  0 0.15032454E+04</rscale>
<asrwt>0</asrwt>
<pdfrwt beam="1">  1        1 0.86098023E-01 0.15032454E+04</pdfrwt>
<pdfrwt beam="2">  1       -1 0.15530302E+00 0.15032454E+04</pdfrwt>
<totfact> 0.11618253E+01</totfact>
</mgrwt>
</event>
<event>
12    1  0.1549527E-007  0.1232837E+04  0.7818608E-02  0.9084590E-01
         -1   -1    0    0    0  501 -0.00000000000E+00  0.00000000000E+00  0.31504271560E+03  0.31504271560E+03  0.00000000000E+00 0.  1.
          1   -1    0    0  501    0  0.00000000000E+00 -0.00000000000E+00 -0.12060967310E+04  0.12060967310E+04  0.00000000000E+00 0. -1.
         23    2    1    2    0    0  0.16244770293E+03 -0.21793353661E+03 -0.28995244583E+03  0.41720364036E+03  0.12689434236E+03 0.  0.
        254    2    1    2    0    0 -0.16244770293E+03  0.21793353661E+03 -0.60110156954E+03  0.11039358062E+04  0.88513664750E+03 0.  0.
        -24    2    4    4    0    0 -0.33351595318E+03 -0.50038662729E+02 -0.68234383697E+03  0.76518746625E+03  0.78625618419E+02 0.  0.
         24    2    4    4    0    0  0.17106825025E+03  0.26797219934E+03  0.81242267426E+02  0.33874833995E+03  0.84123040494E+02 0.  0.
         13    1    3    3    0    0  0.92576391540E+02 -0.12657048317E+03 -0.75922014766E+02  0.17422579547E+03  0.00000000000E+00 0. -1.
        -13    1    3    3    0    0  0.69871311386E+02 -0.91363053447E+02 -0.21403043106E+03  0.24297784490E+03  0.00000000000E+00 0.  1.
          2    1    6    6  502    0  0.21451832537E+02  0.84894305746E+02  0.48377095347E+02  0.10003783095E+03  0.00000000000E+00 0. -1.
          3    1    5    5  503    0 -0.62250461762E+02  0.20599366545E+02 -0.14447349115E+03  0.15865699965E+03  0.00000000000E+00 0. -1.
         -4    1    5    5    0  503 -0.27126549141E+03 -0.70638029274E+02 -0.53787034582E+03  0.60653046661E+03  0.00000000000E+00 0.  1.
         -1    1    6    6    0  502  0.14961641771E+03  0.18307789360E+03  0.32865172079E+02  0.23871050900E+03  0.00000000000E+00 0.  1.
<mgrwt>
<rscale>  0 0.12328374E+04</rscale>
<asrwt>0</asrwt>
<pdfrwt beam="1">  1        1 0.18555334E+00 0.12328374E+04</pdfrwt>
<pdfrwt beam="2">  1       -1 0.48468111E-01 0.12328374E+04</pdfrwt>
<totfact> 0.44458792E+01</totfact>
</mgrwt>
</event>
<event>
12    1  0.1549527E-007  0.2391621E+04  0.7818608E-02  0.8442647E-01
         -1   -1    0    0    0  501 -0.00000000000E+00  0.00000000000E+00  0.56437579286E+03  0.56437579286E+03  0.00000000000E+00 0.  1.
          1   -1    0    0  501    0  0.00000000000E+00 -0.00000000000E+00 -0.25337070967E+04  0.25337070967E+04  0.00000000000E+00 0. -1.
         23    2    1    2    0    0  0.73701675991E+03 -0.71581316768E+03 -0.84132761531E+03  0.13309152414E+04  0.89000157995E+02 0.  0.
        254    2    1    2    0    0 -0.73701675991E+03  0.71581316768E+03 -0.11280036885E+04  0.17671676481E+04  0.89157556038E+03 0.  0.
        -24    2    4    4    0    0 -0.41298781201E+03  0.88450428193E+03 -0.89706594462E+03  0.13280884400E+04  0.78643740676E+02 0.  0.
         24    2    4    4    0    0 -0.32402894790E+03 -0.16869111425E+03 -0.23093774389E+03  0.43907920808E+03  0.77503924500E+02 0.  0.
         11    1    3    3    0    0  0.60754509654E+03 -0.56288685214E+03 -0.63816404000E+03  0.10455649165E+04  0.00000000000E+00 0.  1.
        -11    1    3    3    0    0  0.12947166337E+03 -0.15292631555E+03 -0.20316357531E+03  0.28535032493E+03  0.00000000000E+00 0. -1.
          2    1    6    6  502    0 -0.18761202944E+03 -0.56858017132E+02 -0.13759673402E+03  0.23950776379E+03  0.00000000000E+00 0. -1.
          1    1    5    5  503    0 -0.96249817974E+02  0.28249283813E+03 -0.25163943761E+03  0.39036987284E+03  0.00000000000E+00 0. -1.
         -2    1    5    5    0  503 -0.31673799403E+03  0.60201144380E+03 -0.64542650701E+03  0.93771856721E+03  0.00000000000E+00 0.  1.
         -1    1    6    6    0  502 -0.13641691846E+03 -0.11183309712E+03 -0.93341009868E+02  0.19957144429E+03  0.00000000000E+00 0.  1.
<mgrwt>
<rscale>  0 0.23916212E+04</rscale>
<asrwt>0</asrwt>
<pdfrwt beam="1">  1        1 0.38980109E+00 0.23916212E+04</pdfrwt>
<pdfrwt beam="2">  1       -1 0.86827047E-01 0.23916212E+04</pdfrwt>
<totfact> 0.15042619E+00</totfact>
</mgrwt>
</event>
<event>
12    1  0.1549527E-007  0.1490618E+04  0.7818608E-02  0.8890716E-01
          1   -1    0    0  501    0  0.00000000000E+00  0.00000000000E+00  0.29252182357E+03  0.29252182357E+03  0.00000000000E+00 0. -1.
         -1   -1    0    0    0  501 -0.00000000000E+00 -0.00000000000E+00 -0.18989537115E+04  0.18989537115E+04  0.00000000000E+00 0.  1.
         23    2    1    2    0    0  0.17357712052E+03 -0.38183013357E+03 -0.19842280989E+03  0.47373150159E+03  0.95533535730E+02 0.  0.
        254    2    1    2    0    0 -0.17357712052E+03  0.38183013357E+03 -0.14080090780E+04  0.17177440334E+04  0.89007400425E+03 0.  0.
        -24    2    4    4    0    0  0.23226604080E+03  0.49704286014E+03 -0.81439229289E+03  0.98522825222E+03  0.80254493470E+02 0.  0.
         24    2    4    4    0    0 -0.40584316132E+03 -0.11521272658E+03 -0.59361678511E+03  0.73251578123E+03  0.78840587437E+02 0.  0.
         11    1    3    3    0    0  0.11815094623E+03 -0.16134919532E+03 -0.12011064792E+03  0.23328046783E+03  0.00000000000E+00 0. -1.
        -11    1    3    3    0    0  0.55426174284E+02 -0.22048093824E+03 -0.78312161972E+02  0.24045103376E+03  0.00000000000E+00 0.  1.
          2    1    6    6  502    0 -0.46656007379E+02 -0.26381948796E+01 -0.32822131891E+02  0.57105476433E+02  0.00000000000E+00 0. -1.
          1    1    5    5  503    0  0.14143304660E+02  0.10348533727E+03 -0.15934467472E+03  0.19052551917E+03  0.00000000000E+00 0. -1.
         -2    1    5    5    0  503  0.21812273614E+03  0.39355752288E+03 -0.65504761817E+03  0.79470273304E+03  0.00000000000E+00 0.  1.
         -1    1    6    6    0  502 -0.35918715394E+03 -0.11257453170E+03 -0.56079465322E+03  0.67541030480E+03  0.00000000000E+00 0.  1.
<mgrwt>
<rscale>  0 0.14906179E+04</rscale>
<asrwt>0</asrwt>
<pdfrwt beam="1">  1        1 0.45003356E-01 0.14906179E+04</pdfrwt>
<pdfrwt beam="2">  1       -1 0.29214673E+00 0.14906179E+04</pdfrwt>
<totfact> 0.32647694E+00</totfact>
</mgrwt>
</event>
<event>
12    1  0.1549527E-007  0.1217870E+04  0.7818608E-02  0.9097357E-01
         -2   -1    0    0    0  501 -0.00000000000E+00  0.00000000000E+00  0.53861365009E+03  0.53861365009E+03  0.00000000000E+00 0.  1.
          2   -1    0    0  501    0  0.00000000000E+00 -0.00000000000E+00 -0.68843730247E+03  0.68843730247E+03  0.00000000000E+00 0. -1.
         23    2    1    2    0    0  0.26019712281E+03 -0.52476186177E+02  0.65388524746E+01  0.28188245197E+03  0.94650236656E+02 0.  0.
        254    2    1    2    0    0 -0.26019712281E+03  0.52476186177E+02 -0.15636250486E+03  0.94516850059E+03  0.89355356233E+03 0.  0.
        -24    2    4    4    0    0  0.13172511733E+03 -0.11212557359E+03  0.27486201941E+03  0.33410856315E+03  0.78458597161E+02 0.  0.
         24    2    4    4    0    0 -0.39192224015E+03  0.16460175977E+03 -0.43122452427E+03  0.61105993744E+03  0.82115011847E+02 0.  0.
         13    1    3    3    0    0  0.16681566069E+03 -0.14758917314E+02  0.46073698881E+02  0.17368959675E+03  0.00000000000E+00 0. -1.
        -13    1    3    3    0    0  0.93381462124E+02 -0.37717268863E+02 -0.39534846407E+02  0.10819285521E+03  0.00000000000E+00 0.  1.
          4    1    6    6  502    0 -0.15644170202E+03  0.85585099658E+02 -0.13023180488E+03  0.22081471513E+03  0.00000000000E+00 0. -1.
          3    1    5    5  503    0  0.12868042150E+02 -0.47860984422E+02  0.11212302731E+03  0.12258806464E+03  0.00000000000E+00 0. -1.
         -4    1    5    5    0  503  0.11885707518E+03 -0.64264589169E+02  0.16273899210E+03  0.21152049852E+03  0.00000000000E+00 0.  1.
         -3    1    6    6    0  502 -0.23548053813E+03  0.79016660111E+02 -0.30099271939E+03  0.39024522231E+03  0.00000000000E+00 0.  1.
<mgrwt>
<rscale>  0 0.12178698E+04</rscale>
<asrwt>0</asrwt>
<pdfrwt beam="1">  1        2 0.10591343E+00 0.12178698E+04</pdfrwt>
<pdfrwt beam="2">  1       -2 0.82863639E-01 0.12178698E+04</pdfrwt>
<totfact> 0.52679923E+01</totfact>
</mgrwt>
</event>
<event>
12    1  0.1549527E-007  0.1938976E+04  0.7818608E-02  0.8635695E-01
          1   -1    0    0  501    0  0.00000000000E+00  0.00000000000E+00  0.15341590625E+04  0.15341590625E+04  0.00000000000E+00 0. -1.
         -1   -1    0    0    0  501 -0.00000000000E+00 -0.00000000000E+00 -0.61265261804E+03  0.61265261804E+03  0.00000000000E+00 0.  1.
         23    2    1    2    0    0  0.31915420018E+03 -0.68409902222E+03  0.26544392377E+03  0.80613078833E+03  0.97649861878E+02 0.  0.
        254    2    1    2    0    0 -0.31915420018E+03  0.68409902222E+03  0.65606252069E+03  0.13406808922E+04  0.89283612604E+03 0.  0.
        -24    2    4    4    0    0 -0.21692726992E+03  0.36515700257E+03 -0.15529885430E+03  0.45931121369E+03  0.80324217453E+02 0.  0.
         24    2    4    4    0    0 -0.10222693026E+03  0.31894201965E+03  0.81136137499E+03  0.88136967851E+03  0.79566778321E+02 0.  0.
         11    1    3    3    0    0  0.17163978323E+03 -0.34185340133E+03  0.84053050635E+02  0.39164892252E+03  0.00000000000E+00 0. -1.
        -11    1    3    3    0    0  0.14751441695E+03 -0.34224562089E+03  0.18139087314E+03  0.41448186581E+03  0.00000000000E+00 0.  1.
          4    1    6    6  502    0 -0.12569778717E+00  0.12191910010E+02  0.90667671768E+02  0.91483797328E+02  0.00000000000E+00 0. -1.
          3    1    5    5  503    0 -0.62157679016E+02  0.13241802630E+03 -0.16394758054E+02  0.14719680310E+03  0.00000000000E+00 0. -1.
         -4    1    5    5    0  503 -0.15476959090E+03  0.23273897627E+03 -0.13890409625E+03  0.31211441059E+03  0.00000000000E+00 0.  1.
         -3    1    6    6    0  502 -0.10210123248E+03  0.30675010964E+03  0.72069370322E+03  0.78988588118E+03  0.00000000000E+00 0.  1.
<mgrwt>
<rscale>  0 0.19389756E+04</rscale>
<asrwt>0</asrwt>
<pdfrwt beam="1">  1        1 0.23602447E+00 0.19389756E+04</pdfrwt>
<pdfrwt beam="2">  1       -1 0.94254250E-01 0.19389756E+04</pdfrwt>
<totfact> 0.62956414E+00</totfact>
</mgrwt>
</event>
<event>
12    1  0.1549527E-007  0.2534543E+04  0.7818608E-02  0.8390782E-01
         -2   -1    0    0    0  501 -0.00000000000E+00  0.00000000000E+00  0.88251064454E+03  0.88251064454E+03  0.00000000000E+00 0.  1.
          2   -1    0    0  501    0  0.00000000000E+00 -0.00000000000E+00 -0.18197817544E+04  0.18197817544E+04  0.00000000000E+00 0. -1.
         23    2    1    2    0    0 -0.19537716731E+03  0.25458218720E+03  0.71447679777E+03  0.78849186517E+03  0.90873534904E+02 0.  0.
        254    2    1    2    0    0  0.19537716731E+03 -0.25458218720E+03 -0.16517479076E+04  0.19138005337E+04  0.91179877446E+03 0.  0.
        -24    2    4    4    0    0  0.53081280375E+03 -0.71284788947E+01 -0.10186473879E+04  0.11515321941E+04  0.81060751113E+02 0.  0.
         24    2    4    4    0    0 -0.33543563644E+03 -0.24745370830E+03 -0.63310051967E+03  0.76226833960E+03  0.80537876721E+02 0.  0.
         13    1    3    3    0    0 -0.18351766399E+03  0.25633620691E+03  0.64423991713E+03  0.71723918939E+03  0.00000000000E+00 0.  1.
        -13    1    3    3    0    0 -0.11859503322E+02 -0.17540197169E+01  0.70236880642E+02  0.71252675785E+02  0.00000000000E+00 0. -1.
          4    1    6    6  502    0 -0.14926440780E+03 -0.66615881098E+02 -0.21351270597E+03  0.26889628979E+03  0.00000000000E+00 0. -1.
          1    1    5    5  503    0  0.30592217734E+03 -0.27237637628E+02 -0.65602370186E+03  0.72435996915E+03  0.00000000000E+00 0. -1.
         -2    1    5    5    0  503  0.22489062641E+03  0.20109158733E+02 -0.36262368605E+03  0.42717222498E+03  0.00000000000E+00 0.  1.
         -3    1    6    6    0  502 -0.18617122865E+03 -0.18083782720E+03 -0.41958781370E+03  0.49337204981E+03  0.00000000000E+00 0.  1.
<mgrwt>
<rscale>  0 0.25345428E+04</rscale>
<asrwt>0</asrwt>
<pdfrwt beam="1">  1        2 0.27996642E+00 0.25345428E+04</pdfrwt>
<pdfrwt beam="2">  1       -2 0.13577087E+00 0.25345428E+04</pdfrwt>
<totfact> 0.29095231E+00</totfact>
</mgrwt>
</event>
<event>
12    1  0.1549527E-007  0.2937558E+04  0.7818608E-02  0.8261790E-01
         -2   -1    0    0    0  501 -0.00000000000E+00  0.00000000000E+00  0.12833767714E+04  0.12833767714E+04  0.00000000000E+00 0.  1.
          2   -1    0    0  501    0  0.00000000000E+00 -0.00000000000E+00 -0.16809647597E+04  0.16809647597E+04  0.00000000000E+00 0. -1.
         23    2    1    2    0    0  0.45526456191E+03  0.56945268606E+03  0.93901620394E+03  0.11920680911E+04  0.87935883226E+02 0.  0.
        254    2    1    2    0    0 -0.45526456191E+03 -0.56945268606E+03 -0.13366041922E+04  0.17722734400E+04  0.90713846596E+03 0.  0.
        -24    2    4    4    0    0 -0.43479248186E+03 -0.80031780920E+03 -0.97659757288E+03  0.13383871531E+04  0.89354654310E+02 0.  0.
         24    2    4    4    0    0 -0.20472080049E+02  0.23086512314E+03 -0.36000661937E+03  0.43388628690E+03  0.70247653517E+02 0.  0.
         11    1    3    3    0    0  0.18885851436E+03  0.17714534980E+03  0.36472709002E+03  0.44729616989E+03  0.00000000000E+00 0. -1.
        -11    1    3    3    0    0  0.26640604754E+03  0.39230733626E+03  0.57428911391E+03  0.74477192120E+03  0.00000000000E+00 0.  1.
          4    1    6    6  502    0 -0.27360770021E+02  0.10876914691E+03 -0.11836963596E+03  0.16306658080E+03  0.00000000000E+00 0. -1.
          1    1    5    5  503    0 -0.21667252197E+03 -0.48355975191E+03 -0.59147676971E+03  0.79411698417E+03  0.00000000000E+00 0. -1.
         -2    1    5    5    0  503 -0.21811995988E+03 -0.31675805729E+03 -0.38512080317E+03  0.54427016893E+03  0.00000000000E+00 0.  1.
         -3    1    6    6    0  502  0.68886899719E+01  0.12209597623E+03 -0.24163698341E+03  0.27081970610E+03  0.00000000000E+00 0.  1.
<mgrwt>
<rscale>  0 0.29375576E+04</rscale>
<asrwt>0</asrwt>
<pdfrwt beam="1">  1        2 0.25860996E+00 0.29375576E+04</pdfrwt>
<pdfrwt beam="2">  1       -2 0.19744258E+00 0.29375576E+04</pdfrwt>
<totfact> 0.11956443E+00</totfact>
</mgrwt>
</event>
<event>
12    1  0.1549527E-007  0.1915497E+04  0.7818608E-02  0.8647181E-01
         -2   -1    0    0    0  501 -0.00000000000E+00  0.00000000000E+00  0.17860470428E+04  0.17860470428E+04  0.00000000000E+00 0.  1.
          2   -1    0    0  501    0  0.00000000000E+00 -0.00000000000E+00 -0.51358235058E+03  0.51358235058E+03  0.00000000000E+00 0. -1.
         23    2    1    2    0    0 -0.30800861459E+03  0.37422032644E+03 -0.17678238874E+03  0.52377532450E+03  0.90434607347E+02 0.  0.
        254    2    1    2    0    0  0.30800861459E+03 -0.37422032644E+03  0.14492470810E+04  0.17758540689E+04  0.90467143923E+03 0.  0.
        -24    2    4    4    0    0 -0.16198193398E+01 -0.52170537240E+03  0.38123687058E+03  0.65130361129E+03  0.81705098900E+02 0.  0.
         24    2    4    4    0    0  0.30962843393E+03  0.14748504596E+03  0.10680102104E+04  0.11245504576E+04  0.79663770536E+02 0.  0.
         13    1    3    3    0    0 -0.10350872266E+02  0.57330491382E+02 -0.19401243660E+02  0.61403045970E+02  0.00000000000E+00 0.  1.
        -13    1    3    3    0    0 -0.29765774232E+03  0.31688983505E+03 -0.15738114508E+03  0.46237227853E+03  0.00000000000E+00 0. -1.
          4    1    6    6  502    0  0.56119307135E+02  0.75171605774E+01  0.10980786632E+03  0.12354615268E+03  0.00000000000E+00 0. -1.
          1    1    5    5  503    0  0.12214055044E+02 -0.12279888722E+03  0.52085279161E+02  0.13394635549E+03  0.00000000000E+00 0. -1.
         -2    1    5    5    0  503 -0.13833874384E+02 -0.39890648517E+03  0.32915159142E+03  0.51735725580E+03  0.00000000000E+00 0.  1.
         -3    1    6    6    0  502  0.25350912679E+03  0.13996788538E+03  0.95820234409E+03  0.10010043050E+04  0.00000000000E+00 0.  1.
<mgrwt>
<rscale>  0 0.19154971E+04</rscale>
<asrwt>0</asrwt>
<pdfrwt beam="1">  1        2 0.79012670E-01 0.19154971E+04</pdfrwt>
<pdfrwt beam="2">  1       -2 0.27477647E+00 0.19154971E+04</pdfrwt>
<totfact> 0.25312368E+00</totfact>
</mgrwt>
</event>
<event>
12    1  0.1549527E-007  0.3147460E+04  0.7818608E-02  0.8202832E-01
         -1   -1    0    0    0  501 -0.00000000000E+00  0.00000000000E+00  0.18172731327E+04  0.18172731327E+04  0.00000000000E+00 0.  1.
          1   -1    0    0  501    0  0.00000000000E+00 -0.00000000000E+00 -0.13628254996E+04  0.13628254996E+04  0.00000000000E+00 0. -1.
         23    2    1    2    0    0  0.24904945558E+03  0.21288170760E+03 -0.12130555699E+04  0.12600595170E+04  0.94349975234E+02 0.  0.
        254    2    1    2    0    0 -0.24904945558E+03 -0.21288170760E+03  0.16675032030E+04  0.19200391154E+04  0.89366605602E+03 0.  0.
        -24    2    4    4    0    0 -0.29811426466E+03  0.27000878425E+03  0.10710892012E+04  0.11469781308E+04  0.80931435855E+02 0.  0.
         24    2    4    4    0    0  0.49064809089E+02 -0.48289049186E+03  0.59641400188E+03  0.77306098458E+03  0.79517555484E+02 0.  0.
         13    1    3    3    0    0  0.70448358008E+02  0.73620999455E+02 -0.55088549428E+03  0.56023017637E+03  0.00000000000E+00 0.  1.
        -13    1    3    3    0    0  0.17860109757E+03  0.13926070815E+03 -0.66217007566E+03  0.69982934062E+03  0.00000000000E+00 0. -1.
          4    1    6    6  502    0 -0.14403693622E+02 -0.18857669172E+03  0.26128262176E+03  0.32254804834E+03  0.00000000000E+00 0. -1.
          1    1    5    5  503    0 -0.18683066948E+03  0.21466870082E+03  0.78776424657E+03  0.83759229840E+03  0.00000000000E+00 0. -1.
         -2    1    5    5    0  503 -0.11128359518E+03  0.55340083432E+02  0.28332495460E+03  0.30938583240E+03  0.00000000000E+00 0.  1.
         -3    1    6    6    0  502  0.63468502711E+02 -0.29431380013E+03  0.33513138011E+03  0.45051293624E+03  0.00000000000E+00 0.  1.
<mgrwt>
<rscale>  0 0.31474600E+04</rscale>
<asrwt>0</asrwt>
<pdfrwt beam="1">  1        1 0.20966546E+00 0.31474600E+04</pdfrwt>
<pdfrwt beam="2">  1       -1 0.27958048E+00 0.31474600E+04</pdfrwt>
<totfact> 0.30714434E-01</totfact>
</mgrwt>
</event>
<event>
12    1  0.1549527E-007  0.2060305E+04  0.7818608E-02  0.8578934E-01
         -2   -1    0    0    0  501 -0.00000000000E+00  0.00000000000E+00  0.49459695605E+03  0.49459695605E+03  0.00000000000E+00 0.  1.
          2   -1    0    0  501    0  0.00000000000E+00 -0.00000000000E+00 -0.21456147274E+04  0.21456147274E+04  0.00000000000E+00 0. -1.
         23    2    1    2    0    0  0.44602485271E+02  0.84871872426E+03 -0.65894990269E+03  0.10795968789E+04  0.94876720797E+02 0.  0.
        254    2    1    2    0    0 -0.44602485271E+02 -0.84871872426E+03 -0.99206786869E+03  0.15606148046E+04  0.85381910116E+03 0.  0.
        -24    2    4    4    0    0  0.58925755360E+02 -0.51528112887E+03 -0.10721411722E+04  0.11936645415E+04  0.79758749661E+02 0.  0.
         24    2    4    4    0    0 -0.10352824063E+03 -0.33343759539E+03  0.80073303526E+02  0.36695026301E+03  0.79636894479E+02 0.  0.
         11    1    3    3    0    0  0.56428913573E+02  0.83081999556E+03 -0.63350269202E+03  0.10463134082E+04  0.00000000000E+00 0.  1.
        -11    1    3    3    0    0 -0.11826428302E+02  0.17898728696E+02 -0.25447210678E+02  0.33283470772E+02  0.00000000000E+00 0. -1.
          4    1    6    6  502    0  0.86004225291E+01 -0.37972312546E+01  0.54071784366E+01  0.10845451190E+02  0.00000000000E+00 0. -1.
          1    1    5    5  503    0  0.36845744504E+01 -0.18226521972E+02 -0.13956011015E+02  0.23249783559E+02  0.00000000000E+00 0. -1.
         -2    1    5    5    0  503  0.55241180910E+02 -0.49705460690E+03 -0.10581851612E+04  0.11704147580E+04  0.00000000000E+00 0.  1.
         -3    1    6    6    0  502 -0.11212866316E+03 -0.32964036413E+03  0.74666125089E+02  0.35610481182E+03  0.00000000000E+00 0.  1.
<mgrwt>
<rscale>  0 0.20603053E+04</rscale>
<asrwt>0</asrwt>
<pdfrwt beam="1">  1        2 0.33009457E+00 0.20603053E+04</pdfrwt>
<pdfrwt beam="2">  1       -2 0.76091840E-01 0.20603053E+04</pdfrwt>
<totfact> 0.79199679E+00</totfact>
</mgrwt>
</event>
<event>
12    1  0.1549527E-007  0.1382389E+04  0.7818608E-02  0.8966666E-01
          1   -1    0    0  501    0  0.00000000000E+00  0.00000000000E+00  0.13110388930E+04  0.13110388930E+04  0.00000000000E+00 0. -1.
         -1   -1    0    0    0  501 -0.00000000000E+00 -0.00000000000E+00 -0.36440576450E+03  0.36440576450E+03  0.00000000000E+00 0.  1.
         23    2    1    2    0    0 -0.35638321472E+03 -0.14051077677E+03  0.35888237648E+03  0.53277459735E+03  0.91103991730E+02 0.  0.
        254    2    1    2    0    0  0.35638321472E+03  0.14051077677E+03  0.58775075201E+03  0.11426700601E+04  0.90193771721E+03 0.  0.
        -24    2    4    4    0    0 -0.20595174455E+03 -0.20439942176E+03  0.27969849027E+03  0.41073091739E+03  0.79204774769E+02 0.  0.
         24    2    4    4    0    0  0.56233495927E+03  0.34491019853E+03  0.30805226174E+03  0.73193914274E+03  0.75200141313E+02 0.  0.
         13    1    3    3    0    0 -0.15290242828E+02 -0.27668869349E+02  0.13380553682E+02  0.34327788650E+02  0.00000000000E+00 0.  1.
        -13    1    3    3    0    0 -0.34109297189E+03 -0.11284190742E+03  0.34550182280E+03  0.49844680870E+03  0.00000000000E+00 0. -1.
          4    1    6    6  502    0  0.14986030732E+03  0.13216402481E+03  0.96179874986E+02  0.22175664481E+03  0.00000000000E+00 0. -1.
          1    1    5    5  503    0 -0.69901068063E+01 -0.25264135896E+02  0.41484569362E+01  0.26539552571E+02  0.00000000000E+00 0. -1.
         -2    1    5    5    0  503 -0.19896163774E+03 -0.17913528586E+03  0.27555003334E+03  0.38419136482E+03  0.00000000000E+00 0.  1.
         -3    1    6    6    0  502  0.41247465194E+03  0.21274617371E+03  0.21187238675E+03  0.51018249793E+03  0.00000000000E+00 0.  1.
<mgrwt>
<rscale>  0 0.13823894E+04</rscale>
<asrwt>0</asrwt>
<pdfrwt beam="1">  1        1 0.20169829E+00 0.13823894E+04</pdfrwt>
<pdfrwt beam="2">  1       -1 0.56062426E-01 0.13823894E+04</pdfrwt>
<totfact> 0.27914791E+01</totfact>
</mgrwt>
</event>
<event>
12    1  0.1549527E-007  0.1498232E+04  0.7818608E-02  0.8885630E-01
         -1   -1    0    0    0  501 -0.00000000000E+00  0.00000000000E+00  0.61572405689E+03  0.61572405689E+03  0.00000000000E+00 0.  1.
          1   -1    0    0  501    0  0.00000000000E+00 -0.00000000000E+00 -0.91140574623E+03  0.91140574623E+03  0.00000000000E+00 0. -1.
         23    2    1    2    0    0  0.43333605448E+03  0.11711350044E+03 -0.26081434371E+03  0.52706676762E+03  0.90992019149E+02 0.  0.
        254    2    1    2    0    0 -0.43333605448E+03 -0.11711350044E+03 -0.34867345634E+02  0.10000630355E+04  0.89298075851E+03 0.  0.
        -24    2    4    4    0    0  0.94085212854E+02 -0.35230109570E+03  0.12981719755E+03  0.39498925840E+03  0.78714167489E+02 0.  0.
         24    2    4    4    0    0 -0.52742126734E+03  0.23518759526E+03 -0.16468454319E+03  0.60507377709E+03  0.74208346933E+02 0.  0.
         13    1    3    3    0    0  0.10596452597E+03  0.23268204166E+02 -0.20889741243E+02  0.11048199572E+03  0.00000000000E+00 0.  1.
        -13    1    3    3    0    0  0.32737152851E+03  0.93845296277E+02 -0.23992460247E+03  0.41658477191E+03  0.00000000000E+00 0. -1.
          4    1    6    6  502    0 -0.23348592430E+03  0.70486636042E+02 -0.89943211298E+02  0.25994965660E+03  0.00000000000E+00 0. -1.
          3    1    5    5  503    0  0.44572587460E+02 -0.13857417530E+03  0.92449518159E+02  0.17244254412E+03  0.00000000000E+00 0. -1.
         -4    1    5    5    0  503  0.49512625394E+02 -0.21372692040E+03  0.37367679393E+02  0.22254671428E+03  0.00000000000E+00 0.  1.
         -3    1    6    6    0  502 -0.29393534303E+03  0.16470095921E+03 -0.74741331888E+02  0.34512412049E+03  0.00000000000E+00 0.  1.
<mgrwt>
<rscale>  0 0.14982315E+04</rscale>
<asrwt>0</asrwt>
<pdfrwt beam="1">  1        1 0.14021627E+00 0.14982315E+04</pdfrwt>
<pdfrwt beam="2">  1       -1 0.94726779E-01 0.14982315E+04</pdfrwt>
<totfact> 0.18575317E+01</totfact>
</mgrwt>
</event>
<event>
12    1  0.1549527E-007  0.2748263E+04  0.7818608E-02  0.8319513E-01
         -1   -1    0    0    0  501 -0.00000000000E+00  0.00000000000E+00  0.12497634891E+04  0.12497634891E+04  0.00000000000E+00 0.  1.
          1   -1    0    0  501    0  0.00000000000E+00 -0.00000000000E+00 -0.15108753411E+04  0.15108753411E+04  0.00000000000E+00 0. -1.
         23    2    1    2    0    0  0.84394683376E+03  0.70728807682E+03 -0.65439000558E+03  0.12842339352E+04  0.92346299691E+02 0.  0.
        254    2    1    2    0    0 -0.84394683376E+03 -0.70728807682E+03  0.39327815351E+03  0.14764048950E+04  0.90144385632E+03 0.  0.
        -24    2    4    4    0    0 -0.22276733081E+03  0.12604632911E+03  0.33923875894E+03  0.43254494541E+03  0.80617823533E+02 0.  0.
         24    2    4    4    0    0 -0.62117950296E+03 -0.83333440593E+03  0.54039394563E+02  0.10438599496E+04  0.80082027806E+02 0.  0.
         11    1    3    3    0    0  0.67356659630E+03  0.57731625625E+03 -0.48477395064E+03  0.10109361021E+04  0.00000000000E+00 0. -1.
        -11    1    3    3    0    0  0.17038023747E+03  0.12997182057E+03 -0.16961605494E+03  0.27329783306E+03  0.00000000000E+00 0.  1.
          4    1    6    6  502    0 -0.37366553915E+03 -0.44769559856E+03  0.66765963687E+01  0.58318252808E+03  0.00000000000E+00 0. -1.
          1    1    5    5  503    0 -0.15017474249E+03  0.11931202352E+03  0.27559935600E+03  0.33577197213E+03  0.00000000000E+00 0. -1.
         -2    1    5    5    0  503 -0.72592588319E+02  0.67343055894E+01  0.63639402940E+02  0.96772973278E+02  0.00000000000E+00 0.  1.
         -3    1    6    6    0  502 -0.24751396380E+03 -0.38563880738E+03  0.47362798194E+02  0.46067742150E+03  0.00000000000E+00 0.  1.
<mgrwt>
<rscale>  0 0.27482626E+04</rscale>
<asrwt>0</asrwt>
<pdfrwt beam="1">  1        1 0.23244236E+00 0.27482626E+04</pdfrwt>
<pdfrwt beam="2">  1       -1 0.19227131E+00 0.27482626E+04</pdfrwt>
<totfact> 0.95230655E-01</totfact>
</mgrwt>
</event>
<event>
12    1  0.1549527E-007  0.1308332E+04  0.7818608E-02  0.9022984E-01
          2   -1    0    0  501    0  0.00000000000E+00  0.00000000000E+00  0.23228576862E+04  0.23228576862E+04  0.00000000000E+00 0.  1.
         -2   -1    0    0    0  501 -0.00000000000E+00 -0.00000000000E+00 -0.18422712189E+03  0.18422712189E+03  0.00000000000E+00 0. -1.
         23    2    1    2    0    0  0.25476062294E+03  0.18533105663E+03  0.44550747188E+03  0.55307298750E+03  0.90345151795E+02 0.  0.
        254    2    1    2    0    0 -0.25476062294E+03 -0.18533105663E+03  0.16931230924E+04  0.19540118206E+04  0.92317160554E+03 0.  0.
        -24    2    4    4    0    0 -0.42232635381E+03 -0.40912858940E+03  0.14766522786E+04  0.15913223870E+04  0.77841093047E+02 0.  0.
         24    2    4    4    0    0  0.16756573087E+03  0.22379753277E+03  0.21647081383E+03  0.36268943355E+03  0.80749007013E+02 0.  0.
         11    1    3    3    0    0  0.48732729132E+02  0.33338028947E+02  0.15490055402E+03  0.16577238823E+03  0.00000000000E+00 0. -1.
        -11    1    3    3    0    0  0.20602789381E+03  0.15199302768E+03  0.29060691785E+03  0.38730059927E+03  0.00000000000E+00 0.  1.
          2    1    6    6  502    0  0.96801547433E+02  0.82671215079E+02  0.61167645313E+02  0.14123225631E+03  0.00000000000E+00 0. -1.
          3    1    5    5  503    0 -0.10190682237E+03 -0.66718897271E+02  0.36564599817E+03  0.38540032132E+03  0.00000000000E+00 0. -1.
         -4    1    5    5    0  503 -0.32041953145E+03 -0.34240969213E+03  0.11110062804E+04  0.12059220657E+04  0.00000000000E+00 0.  1.
         -1    1    6    6    0  502  0.70764183440E+02  0.14112631769E+03  0.15530316851E+03  0.22145717724E+03  0.00000000000E+00 0.  1.
<mgrwt>
<rscale>  0 0.13083324E+04</rscale>
<asrwt>0</asrwt>
<pdfrwt beam="1">  1        2 0.35736270E+00 0.13083324E+04</pdfrwt>
<pdfrwt beam="2">  1       -2 0.28342636E-01 0.13083324E+04</pdfrwt>
<totfact> 0.49275638E+01</totfact>
</mgrwt>
</event>
<event>
12    1  0.1549527E-007  0.1634382E+04  0.7818608E-02  0.8799700E-01
         -2   -1    0    0    0  501 -0.00000000000E+00  0.00000000000E+00  0.34961411792E+03  0.34961411792E+03  0.00000000000E+00 0.  1.
          2   -1    0    0  501    0  0.00000000000E+00 -0.00000000000E+00 -0.19101087547E+04  0.19101087547E+04  0.00000000000E+00 0. -1.
         23    2    1    2    0    0 -0.30422819366E+03  0.18642417831E+03 -0.11529474512E+04  0.12102505700E+04  0.90054699302E+02 0.  0.
        254    2    1    2    0    0  0.30422819366E+03 -0.18642417831E+03 -0.40754718568E+03  0.10494723027E+04  0.89888188186E+03 0.  0.
        -24    2    4    4    0    0  0.17638819652E+03  0.41789243280E+02 -0.65300817293E+03  0.68192426209E+03  0.75775250461E+02 0.  0.
         24    2    4    4    0    0  0.12783999714E+03 -0.22821342159E+03  0.24546098726E+03  0.36754804063E+03  0.80100157539E+02 0.  0.
         13    1    3    3    0    0 -0.15140089971E+03  0.14266430173E+03 -0.60901088857E+03  0.64356009651E+03  0.00000000000E+00 0.  1.
        -13    1    3    3    0    0 -0.15282729395E+03  0.43759876584E+02 -0.54393656258E+03  0.56669047344E+03  0.00000000000E+00 0. -1.
          4    1    6    6  502    0  0.55919534504E+01 -0.21834338327E+02  0.60767699156E+02  0.64812973503E+02  0.00000000000E+00 0. -1.
          1    1    5    5  503    0  0.49266289733E+01  0.40702421756E+01 -0.13156202192E+03  0.13171713691E+03  0.00000000000E+00 0. -1.
         -2    1    5    5    0  503  0.17146156754E+03  0.37719001105E+02 -0.52144615101E+03  0.55020712518E+03  0.00000000000E+00 0.  1.
         -3    1    6    6    0  502  0.12224804369E+03 -0.20637908327E+03  0.18469328810E+03  0.30273506712E+03  0.00000000000E+00 0.  1.
<mgrwt>
<rscale>  0 0.16343818E+04</rscale>
<asrwt>0</asrwt>
<pdfrwt beam="1">  1        2 0.29386290E+00 0.16343818E+04</pdfrwt>
<pdfrwt beam="2">  1       -2 0.53786785E-01 0.16343818E+04</pdfrwt>
<totfact> 0.23346668E+01</totfact>
</mgrwt>
</event>
<event>
12    1  0.1549527E-007  0.1939324E+04  0.7818608E-02  0.8635526E-01
          1   -1    0    0  501    0  0.00000000000E+00  0.00000000000E+00  0.26528309471E+04  0.26528309471E+04  0.00000000000E+00 0. -1.
         -1   -1    0    0    0  501 -0.00000000000E+00 -0.00000000000E+00 -0.35443067415E+03  0.35443067415E+03  0.00000000000E+00 0.  1.
         23    2    1    2    0    0  0.43406561862E+03 -0.50323382028E+03  0.14881980762E+04  0.16324047341E+04  0.91402750765E+02 0.  0.
        254    2    1    2    0    0 -0.43406561862E+03  0.50323382028E+03  0.81020219675E+03  0.13748568871E+04  0.89002619137E+03 0.  0.
        -24    2    4    4    0    0 -0.26764042977E+03  0.16979549231E+03  0.92211146288E+03  0.97793969795E+03  0.74930594543E+02 0.  0.
         24    2    4    4    0    0 -0.16642518885E+03  0.33343832798E+03 -0.11190926614E+03  0.39691718917E+03  0.78365229320E+02 0.  0.
         13    1    3    3    0    0  0.37213672448E+03 -0.47315776642E+03  0.13389023106E+04  0.14679997993E+04  0.00000000000E+00 0. -1.
        -13    1    3    3    0    0  0.61928894136E+02 -0.30076053868E+02  0.14929576561E+03  0.16440493476E+03  0.00000000000E+00 0.  1.
          2    1    6    6  502    0 -0.15111687984E+03  0.22623627373E+03 -0.88795165191E+02  0.28618830214E+03  0.00000000000E+00 0. -1.
          3    1    5    5  503    0 -0.11336185697E+03  0.99412050636E+02  0.34683144272E+03  0.37818740868E+03  0.00000000000E+00 0. -1.
         -4    1    5    5    0  503 -0.15427857280E+03  0.70383441670E+02  0.57528002016E+03  0.59975228927E+03  0.00000000000E+00 0.  1.
         -1    1    6    6    0  502 -0.15308309008E+02  0.10720205425E+03 -0.23114100945E+02  0.11072888703E+03  0.00000000000E+00 0.  1.
<mgrwt>
<rscale>  0 0.19393243E+04</rscale>
<asrwt>0</asrwt>
<pdfrwt beam="1">  1        1 0.40812782E+00 0.19393243E+04</pdfrwt>
<pdfrwt beam="2">  1       -1 0.54527798E-01 0.19393243E+04</pdfrwt>
<totfact> 0.33599077E+00</totfact>
</mgrwt>
</event>
<event>
12    1  0.1549527E-007  0.2548714E+04  0.7818608E-02  0.8385834E-01
         -2   -1    0    0    0  501 -0.00000000000E+00  0.00000000000E+00  0.60291638508E+03  0.60291638508E+03  0.00000000000E+00 0. -1.
          2   -1    0    0  501    0  0.00000000000E+00 -0.00000000000E+00 -0.26935504470E+04  0.26935504470E+04  0.00000000000E+00 0.  1.
         23    2    1    2    0    0 -0.39038915624E+03  0.48824372353E+02  0.43131973617E+03  0.59187760052E+03  0.97441605786E+02 0.  0.
        254    2    1    2    0    0  0.39038915624E+03 -0.48824372353E+02 -0.25219537981E+04  0.27045892315E+04  0.89429549875E+03 0.  0.
        -24    2    4    4    0    0 -0.73550188250E+02 -0.89117220925E+02 -0.19830263201E+04  0.19879304403E+04  0.78246661751E+02 0.  0.
         24    2    4    4    0    0  0.46393934449E+03  0.40292848573E+02 -0.53892747797E+03  0.71665879122E+03  0.79333268630E+02 0.  0.
         11    1    3    3    0    0 -0.62436213551E+02 -0.14346715903E+02  0.32985500712E+02  0.72056590795E+02  0.00000000000E+00 0.  1.
        -11    1    3    3    0    0 -0.32795294268E+03  0.63171088255E+02  0.39833423546E+03  0.51982100972E+03  0.00000000000E+00 0. -1.
          2    1    6    6  502    0  0.27293979926E+03  0.28467189210E+00 -0.36107047595E+03  0.45262357833E+03  0.00000000000E+00 0. -1.
          1    1    5    5  503    0 -0.83036507582E+02 -0.94554243610E+02 -0.16797444896E+04  0.16844515775E+04  0.00000000000E+00 0. -1.
         -2    1    5    5    0  503  0.94863193318E+01  0.54370226849E+01 -0.30328183047E+03  0.30347886279E+03  0.00000000000E+00 0.  1.
         -1    1    6    6    0  502  0.19099954522E+03  0.40008176681E+02 -0.17785700203E+03  0.26403521289E+03  0.00000000000E+00 0.  1.
<mgrwt>
<rscale>  0 0.25487139E+04</rscale>
<asrwt>0</asrwt>
<pdfrwt beam="1">  1        2 0.41439238E+00 0.25487139E+04</pdfrwt>
<pdfrwt beam="2">  1       -2 0.92756367E-01 0.25487139E+04</pdfrwt>
<totfact> 0.23448318E+00</totfact>
</mgrwt>
</event>
<event>
12    1  0.1549527E-007  0.2206927E+04  0.7818608E-02  0.8515551E-01
          2   -1    0    0  501    0  0.00000000000E+00  0.00000000000E+00  0.35753142430E+04  0.35753142430E+04  0.00000000000E+00 0. -1.
         -2   -1    0    0    0  501 -0.00000000000E+00 -0.00000000000E+00 -0.34056623376E+03  0.34056623376E+03  0.00000000000E+00 0.  1.
         23    2    1    2    0    0 -0.79123774822E+03  0.40596711195E+03  0.17450291298E+04  0.19606874032E+04  0.91115087090E+02 0.  0.
        254    2    1    2    0    0  0.79123774822E+03 -0.40596711195E+03  0.14897188794E+04  0.19551930735E+04  0.90147165503E+03 0.  0.
        -24    2    4    4    0    0  0.25637386747E+03  0.20723307141E+03  0.11993990169E+03  0.35995866382E+03  0.80694199519E+02 0.  0.
         24    2    4    4    0    0  0.53486388075E+03 -0.61320018336E+03  0.13697789777E+04  0.15952344097E+04  0.79903305637E+02 0.  0.
         11    1    3    3    0    0 -0.56961919261E+03  0.24548526233E+03  0.12224809291E+04  0.13708350231E+04  0.00000000000E+00 0. -1.
        -11    1    3    3    0    0 -0.22161855561E+03  0.16048184962E+03  0.52254820074E+03  0.58985238013E+03  0.00000000000E+00 0.  1.
          4    1    6    6  502    0  0.51273529540E+03 -0.59937578598E+03  0.12980630211E+04  0.15189194919E+04  0.00000000000E+00 0. -1.
          3    1    5    5  503    0  0.23176928884E+03  0.19260545301E+03  0.13187586184E+03  0.32894544641E+03  0.00000000000E+00 0. -1.
         -4    1    5    5    0  503  0.24604578628E+02  0.14627618405E+02 -0.11935960148E+02  0.31013217413E+02  0.00000000000E+00 0.  1.
         -3    1    6    6    0  502  0.22128585353E+02 -0.13824397385E+02  0.71715956542E+02  0.76314917779E+02  0.00000000000E+00 0.  1.
<mgrwt>
<rscale>  0 0.22069266E+04</rscale>
<asrwt>0</asrwt>
<pdfrwt beam="1">  1        2 0.55004832E+00 0.22069266E+04</pdfrwt>
<pdfrwt beam="2">  1       -2 0.52394808E-01 0.22069266E+04</pdfrwt>
<totfact> 0.22671791E+00</totfact>
</mgrwt>
</event>
<event>
12    1  0.1549527E-007  0.1436721E+04  0.7818608E-02  0.8927659E-01
         -2   -1    0    0    0  501 -0.00000000000E+00  0.00000000000E+00  0.33126024431E+03  0.33126024431E+03  0.00000000000E+00 0. -1.
          2   -1    0    0  501    0  0.00000000000E+00 -0.00000000000E+00 -0.15578141719E+04  0.15578141719E+04  0.00000000000E+00 0.  1.
         23    2    1    2    0    0 -0.28337140471E+03  0.18893890087E+03 -0.75991541477E+03  0.83812402509E+03  0.94779652624E+02 0.  0.
        254    2    1    2    0    0  0.28337140471E+03 -0.18893890087E+03 -0.46663851283E+03  0.10509503911E+04  0.87792252602E+03 0.  0.
        -24    2    4    4    0    0 -0.17444960729E+03 -0.24940559062E+03  0.86227780069E+02  0.32617694641E+03  0.79500667915E+02 0.  0.
         24    2    4    4    0    0  0.45782101200E+03  0.60466689751E+02 -0.55286629289E+03  0.72477344471E+03  0.79869322925E+02 0.  0.
         11    1    3    3    0    0 -0.12004244376E+03  0.13357037468E+03 -0.42589246761E+03  0.46220734228E+03  0.00000000000E+00 0. -1.
        -11    1    3    3    0    0 -0.16332896095E+03  0.55368526191E+02 -0.33402294717E+03  0.37591668281E+03  0.00000000000E+00 0.  1.
          2    1    6    6  502    0  0.39243907811E+03  0.75694851458E+02 -0.44915135171E+03  0.60122797449E+03  0.00000000000E+00 0. -1.
          3    1    5    5  503    0 -0.13962902286E+03 -0.17606087481E+03  0.96087019716E+02  0.24438987504E+03  0.00000000000E+00 0. -1.
         -4    1    5    5    0  503 -0.34820584425E+02 -0.73344715810E+02 -0.98592396470E+01  0.81787071370E+02  0.00000000000E+00 0.  1.
         -1    1    6    6    0  502  0.65381933894E+02 -0.15228161707E+02 -0.10371494118E+03  0.12354547023E+03  0.00000000000E+00 0.  1.
<mgrwt>
<rscale>  0 0.14367211E+04</rscale>
<asrwt>0</asrwt>
<pdfrwt beam="1">  1        2 0.23966372E+00 0.14367211E+04</pdfrwt>
<pdfrwt beam="2">  1       -2 0.50963114E-01 0.14367211E+04</pdfrwt>
<totfact> 0.41594883E+01</totfact>
</mgrwt>
</event>
<event>
12    1  0.1549527E-007  0.3160581E+04  0.7818608E-02  0.8199306E-01
         -2   -1    0    0    0  501 -0.00000000000E+00  0.00000000000E+00  0.22429418975E+04  0.22429418975E+04  0.00000000000E+00 0.  1.
          2   -1    0    0  501    0  0.00000000000E+00 -0.00000000000E+00 -0.11134119003E+04  0.11134119003E+04  0.00000000000E+00 0. -1.
         23    2    1    2    0    0  0.13193967354E+04 -0.58958563649E+03  0.65622669407E+03  0.15897385332E+04  0.90643046306E+02 0.  0.
        254    2    1    2    0    0 -0.13193967354E+04  0.58958563649E+03  0.47330330319E+03  0.17666152646E+04  0.89916322665E+03 0.  0.
        -24    2    4    4    0    0 -0.84452537946E+03  0.52907715915E+03  0.71077340393E+03  0.12262532874E+04  0.73161029728E+02 0.  0.
         24    2    4    4    0    0 -0.47487135594E+03  0.60508477335E+02 -0.23747010074E+03  0.54036197718E+03  0.80218059820E+02 0.  0.
         13    1    3    3    0    0  0.36134132345E+03 -0.15914036816E+03  0.22417850551E+03  0.45403657468E+03  0.00000000000E+00 0.  1.
        -13    1    3    3    0    0  0.95805541195E+03 -0.43044526833E+03  0.43204818856E+03  0.11357019585E+04  0.00000000000E+00 0. -1.
          2    1    6    6  502    0 -0.39470240361E+03  0.65482710085E+02 -0.16716034993E+03  0.43361337079E+03  0.00000000000E+00 0. -1.
          1    1    5    5  503    0 -0.81577184649E+03  0.52492718872E+03  0.69333644490E+03  0.11923706155E+04  0.00000000000E+00 0. -1.
         -2    1    5    5    0  503 -0.28753532968E+02  0.41499704287E+01  0.17436959025E+02  0.33882671866E+02  0.00000000000E+00 0.  1.
         -1    1    6    6    0  502 -0.80168952325E+02 -0.49742327500E+01 -0.70309750812E+02  0.10674860640E+03  0.00000000000E+00 0.  1.
<mgrwt>
<rscale>  0 0.31605811E+04</rscale>
<asrwt>0</asrwt>
<pdfrwt beam="1">  1        2 0.17129414E+00 0.31605811E+04</pdfrwt>
<pdfrwt beam="2">  1       -2 0.34506798E+00 0.31605811E+04</pdfrwt>
<totfact> 0.30166837E-01</totfact>
</mgrwt>
</event>
<event>
12    1  0.1549527E-007  0.3372809E+04  0.7818608E-02  0.8144612E-01
          1   -1    0    0  501    0  0.00000000000E+00  0.00000000000E+00  0.28309747091E+04  0.28309747091E+04  0.00000000000E+00 0. -1.
         -1   -1    0    0    0  501 -0.00000000000E+00 -0.00000000000E+00 -0.10045870645E+04  0.10045870645E+04  0.00000000000E+00 0.  1.
         23    2    1    2    0    0 -0.18602152415E+03  0.11718209869E+04  0.20076792781E+04  0.23338439254E+04  0.91010723414E+02 0.  0.
        254    2    1    2    0    0  0.18602152415E+03 -0.11718209869E+04 -0.18129163347E+03  0.15017178482E+04  0.90250839691E+03 0.  0.
        -24    2    4    4    0    0 -0.22825287376E+02 -0.63980615916E+03  0.33476173582E+03  0.72752903247E+03  0.85791364771E+02 0.  0.
         24    2    4    4    0    0  0.20884681152E+03 -0.53201482769E+03 -0.51605336929E+03  0.77418881571E+03  0.80002967766E+02 0.  0.
         11    1    3    3    0    0 -0.64647923175E+00  0.20276011459E+03  0.37046770542E+03  0.42232499661E+03  0.00000000000E+00 0.  1.
        -11    1    3    3    0    0 -0.18537504491E+03  0.96906087227E+03  0.16372115727E+04  0.19115189288E+04  0.00000000000E+00 0. -1.
          2    1    6    6  502    0  0.85789253798E+02 -0.26181381480E+03 -0.29779021574E+03  0.40569111684E+03  0.00000000000E+00 0. -1.
          1    1    5    5  503    0 -0.19940658699E+02 -0.56987381619E+03  0.32642044928E+03  0.65704193622E+03  0.00000000000E+00 0. -1.
         -2    1    5    5    0  503 -0.28846286768E+01 -0.69932342969E+02  0.83412865455E+01  0.70487096245E+02  0.00000000000E+00 0.  1.
         -1    1    6    6    0  502  0.12305755772E+03 -0.27020101289E+03 -0.21826315355E+03  0.36849769887E+03  0.00000000000E+00 0.  1.
<mgrwt>
<rscale>  0 0.33728093E+04</rscale>
<asrwt>0</asrwt>
<pdfrwt beam="1">  1        1 0.43553457E+00 0.33728093E+04</pdfrwt>
<pdfrwt beam="2">  1       -1 0.15455186E+00 0.33728093E+04</pdfrwt>
<totfact> 0.20993712E-01</totfact>
</mgrwt>
</event>
<event>
12    1  0.1549527E-007  0.1095585E+04  0.7818608E-02  0.9209505E-01
          1   -1    0    0  501    0  0.00000000000E+00  0.00000000000E+00  0.80653831356E+03  0.80653831356E+03  0.00000000000E+00 0. -1.
         -1   -1    0    0    0  501 -0.00000000000E+00 -0.00000000000E+00 -0.37205532602E+03  0.37205532602E+03  0.00000000000E+00 0.  1.
         23    2    1    2    0    0  0.10196562506E+03 -0.10943684584E+03  0.11021306413E+02  0.17622571136E+03  0.92523619830E+02 0.  0.
        254    2    1    2    0    0 -0.10196562506E+03  0.10943684584E+03  0.42346168113E+03  0.10023679282E+04  0.89612959791E+03 0.  0.
        -24    2    4    4    0    0  0.20105428605E+03 -0.87693278737E+02 -0.18018157343E+03  0.29445404080E+03  0.78261393185E+02 0.  0.
         24    2    4    4    0    0 -0.30301991111E+03  0.19713012458E+03  0.60364325456E+03  0.70791388744E+03  0.77945754906E+02 0.  0.
         13    1    3    3    0    0  0.97763174500E+02 -0.12395799758E+03  0.61310376988E+00  0.15787209807E+03  0.00000000000E+00 0.  1.
        -13    1    3    3    0    0  0.42024505577E+01  0.14521151737E+02  0.10408202643E+02  0.18353613288E+02  0.00000000000E+00 0. -1.
          2    1    6    6  502    0 -0.16884782554E+03  0.72450133672E+02  0.25795375214E+03  0.31669977629E+03  0.00000000000E+00 0. -1.
          3    1    5    5  503    0  0.86915055931E+01 -0.30128522969E+02 -0.32810633339E+02  0.45385105771E+02  0.00000000000E+00 0. -1.
         -4    1    5    5    0  503  0.19236278046E+03 -0.57564755768E+02 -0.14737094009E+03  0.24906893503E+03  0.00000000000E+00 0.  1.
         -3    1    6    6    0  502 -0.13417208557E+03  0.12467999091E+03  0.34568950242E+03  0.39121411115E+03  0.00000000000E+00 0.  1.
<mgrwt>
<rscale>  0 0.10955855E+04</rscale>
<asrwt>0</asrwt>
<pdfrwt beam="1">  1        1 0.12408282E+00 0.10955855E+04</pdfrwt>
<pdfrwt beam="2">  1       -1 0.57239281E-01 0.10955855E+04</pdfrwt>
<totfact> 0.67224108E+01</totfact>
</mgrwt>
</event>
<event>
12    1  0.1549527E-007  0.1580972E+04  0.7818608E-02  0.8832324E-01
         -1   -1    0    0    0  501 -0.00000000000E+00  0.00000000000E+00  0.45089491536E+03  0.45089491536E+03  0.00000000000E+00 0.  1.
          1   -1    0    0  501    0  0.00000000000E+00 -0.00000000000E+00 -0.13858392868E+04  0.13858392868E+04  0.00000000000E+00 0. -1.
         23    2    1    2    0    0  0.57621308683E+02 -0.30166073596E+03 -0.81930367432E+03  0.87966002654E+03  0.90685372108E+02 0.  0.
        254    2    1    2    0    0 -0.57621308683E+02  0.30166073596E+03 -0.11564069712E+03  0.95707417562E+03  0.89905438766E+03 0.  0.
        -24    2    4    4    0    0  0.11995413715E+03 -0.29177675049E+03 -0.51298373243E+02  0.32910522981E+03  0.78460576386E+02 0.  0.
         24    2    4    4    0    0 -0.17757544583E+03  0.59343748644E+03 -0.64342323882E+02  0.62796894581E+03  0.80647213110E+02 0.  0.
         11    1    3    3    0    0  0.70109934656E+02 -0.24188365102E+03 -0.57304071526E+03  0.62593830759E+03  0.00000000000E+00 0. -1.
        -11    1    3    3    0    0 -0.12488625973E+02 -0.59777084936E+02 -0.24626295906E+03  0.25372171895E+03  0.00000000000E+00 0.  1.
          4    1    6    6  502    0 -0.90380861296E+02  0.37929871346E+03 -0.72561429284E+02  0.39661237391E+03  0.00000000000E+00 0. -1.
          3    1    5    5  503    0  0.49554346507E+02 -0.11510235575E+03  0.18178660001E+02  0.12662799547E+03  0.00000000000E+00 0. -1.
         -4    1    5    5    0  503  0.70399790639E+02 -0.17667439474E+03 -0.69477033244E+02  0.20247723434E+03  0.00000000000E+00 0.  1.
         -3    1    6    6    0  502 -0.87194584532E+02  0.21413877298E+03  0.82191054021E+01  0.23135657190E+03  0.00000000000E+00 0.  1.
<mgrwt>
<rscale>  0 0.15809717E+04</rscale>
<asrwt>0</asrwt>
<pdfrwt beam="1">  1        1 0.21320604E+00 0.15809717E+04</pdfrwt>
<pdfrwt beam="2">  1       -1 0.69368449E-01 0.15809717E+04</pdfrwt>
<totfact> 0.15880091E+01</totfact>
</mgrwt>
</event>
<event>
12    1  0.1549527E-007  0.1901475E+04  0.7818608E-02  0.8654122E-01
          4   -1    0    0  501    0  0.00000000000E+00  0.00000000000E+00  0.82153137715E+03  0.82153137715E+03  0.00000000000E+00 0.  1.
         -4   -1    0    0    0  501 -0.00000000000E+00 -0.00000000000E+00 -0.11002647437E+04  0.11002647437E+04  0.00000000000E+00 0. -1.
         23    2    1    2    0    0 -0.29946259831E+03 -0.13429603056E+03  0.57844813308E+03  0.67142643896E+03  0.92184318928E+02 0.  0.
        254    2    1    2    0    0  0.29946259831E+03  0.13429603056E+03 -0.85718149964E+03  0.12503696819E+04  0.84908830310E+03 0.  0.
        -24    2    4    4    0    0  0.48151957565E+03  0.42785928522E+02 -0.15343906637E+03  0.51333916248E+03  0.79257878009E+02 0.  0.
         24    2    4    4    0    0 -0.18205697735E+03  0.91510102036E+02 -0.70374243326E+03  0.73703051941E+03  0.80260403652E+02 0.  0.
         13    1    3    3    0    0 -0.77496543631E+02 -0.79918071660E+02  0.21476101746E+03  0.24189854707E+03  0.00000000000E+00 0. -1.
        -13    1    3    3    0    0 -0.22196605467E+03 -0.54377958898E+02  0.36368711562E+03  0.42952789189E+03  0.00000000000E+00 0.  1.
          4    1    6    6  502    0 -0.14891795905E+02 -0.53145200045E+01 -0.15317757918E+02  0.22014618230E+02  0.00000000000E+00 0. -1.
          1    1    5    5  503    0  0.44797659769E+02 -0.19215109156E+02 -0.16831478730E+02  0.51568880315E+02  0.00000000000E+00 0. -1.
         -2    1    5    5    0  503  0.43672191588E+03  0.62001037678E+02 -0.13660758764E+03  0.46177028216E+03  0.00000000000E+00 0.  1.
         -3    1    6    6    0  502 -0.16716518144E+03  0.96824622040E+02 -0.68842467535E+03  0.71501590118E+03  0.00000000000E+00 0.  1.
<mgrwt>
<rscale>  0 0.19014752E+04</rscale>
<asrwt>0</asrwt>
<pdfrwt beam="1">  1        4 0.12638944E+00 0.19014752E+04</pdfrwt>
<pdfrwt beam="2">  1       -4 0.16927150E+00 0.19014752E+04</pdfrwt>
<totfact> 0.18634401E-01</totfact>
</mgrwt>
</event>
<event>
12    1  0.1549527E-007  0.2072890E+04  0.7818608E-02  0.8573280E-01
         -1   -1    0    0    0  501 -0.00000000000E+00  0.00000000000E+00  0.93319674385E+03  0.93319674385E+03  0.00000000000E+00 0.  1.
          1   -1    0    0  501    0  0.00000000000E+00 -0.00000000000E+00 -0.11511165360E+04  0.11511165360E+04  0.00000000000E+00 0. -1.
         23    2    1    2    0    0 -0.16344450856E+03 -0.45498478583E+03  0.59456263856E+03  0.77168566169E+03  0.90932758507E+02 0.  0.
        254    2    1    2    0    0  0.16344450856E+03  0.45498478583E+03 -0.81248243067E+03  0.13126276181E+04  0.91057031634E+03 0.  0.
        -24    2    4    4    0    0  0.14742491661E+03  0.70014744586E+03 -0.39238197907E+03  0.81991811123E+03  0.79759260499E+02 0.  0.
         24    2    4    4    0    0  0.16019591952E+02 -0.24516266003E+03 -0.42010045161E+03  0.49270950690E+03  0.76921463525E+02 0.  0.
         13    1    3    3    0    0 -0.51188336117E+02 -0.27214863913E+03  0.31837613761E+03  0.42195792745E+03  0.00000000000E+00 0. -1.
        -13    1    3    3    0    0 -0.11225617245E+03 -0.18283614670E+03  0.27618650094E+03  0.34972773424E+03  0.00000000000E+00 0.  1.
          2    1    6    6  502    0  0.73314080720E+00 -0.47466333593E+01  0.31218435032E+01  0.57283444859E+01  0.00000000000E+00 0. -1.
          1    1    5    5  503    0  0.13177836646E+03  0.53059788640E+03 -0.32993295575E+03  0.63855728812E+03  0.00000000000E+00 0. -1.
         -2    1    5    5    0  503  0.15646550156E+02  0.16954955946E+03 -0.62449023317E+02  0.18136082311E+03  0.00000000000E+00 0.  1.
         -1    1    6    6    0  502  0.15286451144E+02 -0.24041602667E+03 -0.42322229511E+03  0.48698116242E+03  0.00000000000E+00 0.  1.
<mgrwt>
<rscale>  0 0.20728900E+04</rscale>
<asrwt>0</asrwt>
<pdfrwt beam="1">  1        1 0.17709485E+00 0.20728900E+04</pdfrwt>
<pdfrwt beam="2">  1       -1 0.14356873E+00 0.20728900E+04</pdfrwt>
<totfact> 0.41987492E+00</totfact>
</mgrwt>
</event>
<event>
12    1  0.1549527E-007  0.1884069E+04  0.7818608E-02  0.8662827E-01
         -2   -1    0    0    0  501 -0.00000000000E+00  0.00000000000E+00  0.19114322268E+04  0.19114322268E+04  0.00000000000E+00 0.  1.
          2   -1    0    0  501    0  0.00000000000E+00 -0.00000000000E+00 -0.46427416244E+03  0.46427416244E+03  0.00000000000E+00 0. -1.
         23    2    1    2    0    0  0.35327075052E+03  0.94276570634E+02 -0.22707322011E+03  0.43978413171E+03  0.90330173614E+02 0.  0.
        254    2    1    2    0    0 -0.35327075052E+03 -0.94276570634E+02  0.16742312844E+04  0.19359222575E+04  0.90058664124E+03 0.  0.
        -24    2    4    4    0    0 -0.16447051782E+03 -0.15980627186E+03  0.17038124091E+04  0.17210554596E+04  0.80415010370E+02 0.  0.
         24    2    4    4    0    0 -0.18880023270E+03  0.65529701226E+02 -0.29581124641E+02  0.21486679792E+03  0.73164392316E+02 0.  0.
         11    1    3    3    0    0  0.61864953209E+02 -0.13584901098E+02 -0.58768373774E+02  0.86403377997E+02  0.00000000000E+00 0.  1.
        -11    1    3    3    0    0  0.29140579731E+03  0.10786147173E+03 -0.16830484633E+03  0.35338075371E+03  0.00000000000E+00 0. -1.
          4    1    6    6  502    0 -0.19385990150E+03  0.69083230839E+02 -0.25309173654E+02  0.20735165412E+03  0.00000000000E+00 0. -1.
          1    1    5    5  503    0 -0.16963505053E+03 -0.15246090373E+03  0.16830593484E+04  0.16984431541E+04  0.00000000000E+00 0. -1.
         -2    1    5    5    0  503  0.51645327072E+01 -0.73453681323E+01  0.20753060646E+02  0.22612305439E+02  0.00000000000E+00 0.  1.
         -3    1    6    6    0  502  0.50596688042E+01 -0.35535296138E+01 -0.42719509871E+01  0.75151438017E+01  0.00000000000E+00 0.  1.
<mgrwt>
<rscale>  0 0.18840686E+04</rscale>
<asrwt>0</asrwt>
<pdfrwt beam="1">  1        2 0.71426795E-01 0.18840686E+04</pdfrwt>
<pdfrwt beam="2">  1       -2 0.29406649E+00 0.18840686E+04</pdfrwt>
<totfact> 0.21768011E+00</totfact>
</mgrwt>
</event>
<event>
12    1  0.1549527E-007  0.1237948E+04  0.7818608E-02  0.9080274E-01
          3   -1    0    0  501    0  0.00000000000E+00  0.00000000000E+00  0.29973461974E+03  0.29973461974E+03  0.00000000000E+00 0. -1.
         -3   -1    0    0    0  501 -0.00000000000E+00 -0.00000000000E+00 -0.12782262544E+04  0.12782262544E+04  0.00000000000E+00 0.  1.
         23    2    1    2    0    0  0.11710595316E+03  0.71430293901E+02  0.78482323520E+02  0.18272621122E+03  0.91724053597E+02 0.  0.
        254    2    1    2    0    0 -0.11710595316E+03 -0.71430293901E+02 -0.10569739582E+04  0.13952346629E+04  0.90037199267E+03 0.  0.
        -24    2    4    4    0    0 -0.17411168234E+03 -0.43651549319E+03 -0.34265357547E+03  0.58722534856E+03  0.81002984394E+02 0.  0.
         24    2    4    4    0    0  0.57005729184E+02  0.36508519929E+03 -0.71432038270E+03  0.80800931435E+03  0.78029398609E+02 0.  0.
         13    1    3    3    0    0  0.59923188104E+02  0.64775151666E+02  0.36568979222E+01  0.88317504767E+02  0.00000000000E+00 0.  1.
        -13    1    3    3    0    0  0.57182765054E+02  0.66551422353E+01  0.74825425598E+02  0.94408706449E+02  0.00000000000E+00 0. -1.
          2    1    6    6  502    0 -0.14080272628E+02  0.15597463779E+02 -0.40207547317E+02  0.45367188748E+02  0.00000000000E+00 0. -1.
          1    1    5    5  503    0 -0.24407130590E+02 -0.14358361559E+03 -0.13222830940E+03  0.19671372218E+03  0.00000000000E+00 0. -1.
         -2    1    5    5    0  503 -0.14970455175E+03 -0.29293187760E+03 -0.21042526608E+03  0.39051162637E+03  0.00000000000E+00 0.  1.
         -1    1    6    6    0  502  0.71086001812E+02  0.34948773551E+03 -0.67411283538E+03  0.76264212561E+03  0.00000000000E+00 0.  1.
<mgrwt>
<rscale>  0 0.12379478E+04</rscale>
<asrwt>0</asrwt>
<pdfrwt beam="1">  1        3 0.46113019E-01 0.12379478E+04</pdfrwt>
<pdfrwt beam="2">  1       -3 0.19665019E+00 0.12379478E+04</pdfrwt>
<totfact> 0.18574861E+00</totfact>
</mgrwt>
</event>
<event>
12    1  0.1549527E-007  0.2522935E+04  0.7818608E-02  0.8394860E-01
          2   -1    0    0  501    0  0.00000000000E+00  0.00000000000E+00  0.14329392018E+04  0.14329392018E+04  0.00000000000E+00 0.  1.
         -2   -1    0    0    0  501 -0.00000000000E+00 -0.00000000000E+00 -0.11105150187E+04  0.11105150187E+04  0.00000000000E+00 0. -1.
         23    2    1    2    0    0  0.75141202509E+03 -0.64448397533E+03 -0.34586692364E+03  0.10533096898E+04  0.99286191667E+02 0.  0.
        254    2    1    2    0    0 -0.75141202509E+03  0.64448397533E+03  0.66829110675E+03  0.14901445308E+04  0.89103203832E+03 0.  0.
        -24    2    4    4    0    0 -0.85541146917E+03  0.39893573725E+03  0.73992888131E+03  0.12019611301E+04  0.79607191549E+02 0.  0.
         24    2    4    4    0    0  0.10399944407E+03  0.24554823808E+03 -0.71637774563E+02  0.28818340062E+03  0.82509878537E+02 0.  0.
         13    1    3    3    0    0  0.25466069141E+03 -0.28178777262E+03 -0.12839727788E+03  0.40092677326E+03  0.00000000000E+00 0.  1.
        -13    1    3    3    0    0  0.49675133368E+03 -0.36269620271E+03 -0.21746964575E+03  0.65238291655E+03  0.00000000000E+00 0. -1.
          4    1    6    6  502    0  0.94089199949E+02  0.23566869603E+03 -0.44470580709E+02  0.25762403689E+03  0.00000000000E+00 0. -1.
          1    1    5    5  503    0 -0.47182291883E+03  0.19830193762E+03  0.44438696187E+03  0.67780550092E+03  0.00000000000E+00 0. -1.
         -2    1    5    5    0  503 -0.38358855034E+03  0.20063379962E+03  0.29554191945E+03  0.52415562923E+03  0.00000000000E+00 0.  1.
         -3    1    6    6    0  502  0.99102441257E+01  0.98795420550E+01 -0.27167193854E+02  0.30559363733E+02  0.00000000000E+00 0.  1.
<mgrwt>
<rscale>  0 0.25229352E+04</rscale>
<asrwt>0</asrwt>
<pdfrwt beam="1">  1        2 0.22045219E+00 0.25229352E+04</pdfrwt>
<pdfrwt beam="2">  1       -2 0.17084846E+00 0.25229352E+04</pdfrwt>
<totfact> 0.25931229E+00</totfact>
</mgrwt>
</event>
<event>
12    1  0.1549527E-007  0.2369364E+04  0.7818608E-02  0.8451063E-01
          2   -1    0    0  501    0  0.00000000000E+00  0.00000000000E+00  0.25515876650E+04  0.25515876650E+04  0.00000000000E+00 0. -1.
         -2   -1    0    0    0  501 -0.00000000000E+00 -0.00000000000E+00 -0.55003867789E+03  0.55003867789E+03  0.00000000000E+00 0.  1.
         23    2    1    2    0    0 -0.36350909628E+03 -0.38371235004E+03 -0.27216062511E+03  0.60148491009E+03  0.91316266716E+02 0.  0.
        254    2    1    2    0    0  0.36350909628E+03  0.38371235004E+03  0.22737096122E+04  0.25001414328E+04  0.89530874713E+03 0.  0.
        -24    2    4    4    0    0  0.52891851155E+03  0.53343560923E+03  0.20037373063E+04  0.21414617132E+04  0.81158706934E+02 0.  0.
         24    2    4    4    0    0 -0.16540941528E+03 -0.14972325920E+03  0.26997230591E+03  0.35867971952E+03  0.77387119284E+02 0.  0.
         11    1    3    3    0    0 -0.80700433027E+02 -0.42860682000E+02 -0.27111537272E+02  0.95313343271E+02  0.00000000000E+00 0. -1.
        -11    1    3    3    0    0 -0.28280866325E+03 -0.34085166804E+03 -0.24504908783E+03  0.50617156682E+03  0.00000000000E+00 0.  1.
          4    1    6    6  502    0 -0.23507216202E+00  0.98245092952E+00 -0.45275280247E+01  0.46388553291E+01  0.00000000000E+00 0. -1.
          1    1    5    5  503    0  0.25141254397E+03  0.23496759581E+03  0.10266362654E+04  0.10827742423E+04  0.00000000000E+00 0. -1.
         -2    1    5    5    0  503  0.27750596758E+03  0.29846801342E+03  0.97710104082E+03  0.10586874709E+04  0.00000000000E+00 0.  1.
         -3    1    6    6    0  502 -0.16517434311E+03 -0.15070571013E+03  0.27449983393E+03  0.35404086419E+03  0.00000000000E+00 0.  1.
<mgrwt>
<rscale>  0 0.23693644E+04</rscale>
<asrwt>0</asrwt>
<pdfrwt beam="1">  1        2 0.39255194E+00 0.23693644E+04</pdfrwt>
<pdfrwt beam="2">  1       -2 0.84621337E-01 0.23693644E+04</pdfrwt>
<totfact> 0.35645341E+00</totfact>
</mgrwt>
</event>
<event>
12    1  0.1549527E-007  0.1544833E+04  0.7818608E-02  0.8855175E-01
          1   -1    0    0  501    0  0.00000000000E+00  0.00000000000E+00  0.10828970319E+04  0.10828970319E+04  0.00000000000E+00 0. -1.
         -1   -1    0    0    0  501 -0.00000000000E+00 -0.00000000000E+00 -0.55095476190E+03  0.55095476190E+03  0.00000000000E+00 0.  1.
         23    2    1    2    0    0  0.19335870754E+03  0.10365974611E+03 -0.30675129479E+03  0.38833345743E+03  0.92593652933E+02 0.  0.
        254    2    1    2    0    0 -0.19335870754E+03 -0.10365974611E+03  0.83869356479E+03  0.12455183364E+04  0.89430201716E+03 0.  0.
        -24    2    4    4    0    0 -0.13077940103E+03 -0.49399819126E+03  0.48264147112E+03  0.70749173089E+03  0.80400839122E+02 0.  0.
         24    2    4    4    0    0 -0.62579306506E+02  0.39033844515E+03  0.35605209368E+03  0.53802660549E+03  0.80120306040E+02 0.  0.
         13    1    3    3    0    0  0.15821255496E+03  0.45602860572E+02 -0.25253033833E+03  0.30146708811E+03  0.00000000000E+00 0.  1.
        -13    1    3    3    0    0  0.35146152576E+02  0.58056885538E+02 -0.54220956462E+02  0.86866369320E+02  0.00000000000E+00 0. -1.
          2    1    6    6  502    0  0.10682141326E+02  0.15268622008E+03  0.11264196941E+03  0.19004053046E+03  0.00000000000E+00 0. -1.
          3    1    5    5  503    0 -0.12900926041E+03 -0.34787836350E+03  0.35368445989E+03  0.51259676377E+03  0.00000000000E+00 0. -1.
         -4    1    5    5    0  503 -0.17701406209E+01 -0.14611982776E+03  0.12895701123E+03  0.19489496712E+03  0.00000000000E+00 0.  1.
         -1    1    6    6    0  502 -0.73261447833E+02  0.23765222507E+03  0.24341012426E+03  0.34798607503E+03  0.00000000000E+00 0.  1.
<mgrwt>
<rscale>  0 0.15448330E+04</rscale>
<asrwt>0</asrwt>
<pdfrwt beam="1">  1        1 0.16659954E+00 0.15448330E+04</pdfrwt>
<pdfrwt beam="2">  1       -1 0.84762272E-01 0.15448330E+04</pdfrwt>
<totfact> 0.17344858E+01</totfact>
</mgrwt>
</event>
<event>
12    1  0.1549527E-007  0.1445067E+04  0.7818608E-02  0.8921828E-01
         -1   -1    0    0    0  501 -0.00000000000E+00  0.00000000000E+00  0.12558315604E+04  0.12558315604E+04  0.00000000000E+00 0.  1.
          1   -1    0    0  501    0  0.00000000000E+00 -0.00000000000E+00 -0.41570413620E+03  0.41570413620E+03  0.00000000000E+00 0. -1.
         23    2    1    2    0    0 -0.92282853709E+02 -0.10854252336E+03  0.72282324599E+03  0.74242892612E+03  0.91813184923E+02 0.  0.
        254    2    1    2    0    0  0.92282853709E+02  0.10854252336E+03  0.11730417821E+03  0.92910677047E+03  0.91059404580E+03 0.  0.
        -24    2    4    4    0    0 -0.24033418927E+03 -0.12274134087E+03  0.35449802564E+03  0.45284785592E+03  0.81094828051E+02 0.  0.
         24    2    4    4    0    0  0.33261704298E+03  0.23128386423E+03 -0.23719384743E+03  0.47625891455E+03  0.80220379578E+02 0.  0.
         11    1    3    3    0    0 -0.45885824027E+02  0.56494615690E+01  0.19599675778E+03  0.20137565475E+03  0.00000000000E+00 0. -1.
        -11    1    3    3    0    0 -0.46397029682E+02 -0.11419198493E+03  0.52682648821E+03  0.54105327137E+03  0.00000000000E+00 0.  1.
          4    1    6    6  502    0  0.31847759067E+03  0.23016475108E+03 -0.24175981484E+03  0.46135842517E+03  0.00000000000E+00 0. -1.
          1    1    5    5  503    0 -0.16669552451E+03 -0.12232487955E+03  0.28031448068E+03  0.34832022928E+03  0.00000000000E+00 0. -1.
         -2    1    5    5    0  503 -0.73638664757E+02 -0.41646132208E+00  0.74183544965E+02  0.10452762664E+03  0.00000000000E+00 0.  1.
         -3    1    6    6    0  502  0.14139452303E+02  0.11191131490E+01  0.45659674034E+01  0.14900489388E+02  0.00000000000E+00 0.  1.
<mgrwt>
<rscale>  0 0.14450666E+04</rscale>
<asrwt>0</asrwt>
<pdfrwt beam="1">  1        1 0.63954483E-01 0.14450666E+04</pdfrwt>
<pdfrwt beam="2">  1       -1 0.19320485E+00 0.14450666E+04</pdfrwt>
<totfact> 0.92885471E+00</totfact>
</mgrwt>
</event>
<event>
12    1  0.1549527E-007  0.2428748E+04  0.7818608E-02  0.8428819E-01
          2   -1    0    0  501    0  0.00000000000E+00  0.00000000000E+00  0.17290874623E+04  0.17290874623E+04  0.00000000000E+00 0. -1.
         -2   -1    0    0    0  501 -0.00000000000E+00 -0.00000000000E+00 -0.85287986118E+03  0.85287986118E+03  0.00000000000E+00 0.  1.
         23    2    1    2    0    0 -0.50233036471E+03 -0.42829663966E+02 -0.59520840834E+03  0.78550731604E+03  0.92620293465E+02 0.  0.
        254    2    1    2    0    0  0.50233036471E+03  0.42829663966E+02  0.14714160095E+04  0.17964600074E+04  0.89890673041E+03 0.  0.
        -24    2    4    4    0    0  0.50787487213E+03  0.15817516060E+03  0.15485429496E+04  0.16392206821E+04  0.78121127711E+02 0.  0.
         24    2    4    4    0    0 -0.55445074171E+01 -0.11534549664E+03 -0.77126940171E+02  0.15723932533E+03  0.73758493573E+02 0.  0.
         13    1    3    3    0    0 -0.13904820605E+03  0.16614922195E+00 -0.10701128582E+03  0.17545895960E+03  0.00000000000E+00 0. -1.
        -13    1    3    3    0    0 -0.36328215866E+03 -0.42995813188E+02 -0.48819712252E+03  0.61004835643E+03  0.00000000000E+00 0.  1.
          2    1    6    6  502    0  0.28971010851E+02 -0.87909925786E+02 -0.57585365000E+02  0.10901169104E+03  0.00000000000E+00 0. -1.
          3    1    5    5  503    0  0.36910042478E+03  0.12614225107E+03  0.12280117636E+04  0.12884719177E+04  0.00000000000E+00 0. -1.
         -4    1    5    5    0  503  0.13877444734E+03  0.32032909531E+02  0.32053118598E+03  0.35074876438E+03  0.00000000000E+00 0.  1.
         -1    1    6    6    0  502 -0.34515518268E+02 -0.27435570851E+02 -0.19541575171E+02  0.48227634292E+02  0.00000000000E+00 0.  1.
<mgrwt>
<rscale>  0 0.24287477E+04</rscale>
<asrwt>0</asrwt>
<pdfrwt beam="1">  1        2 0.26601345E+00 0.24287477E+04</pdfrwt>
<pdfrwt beam="2">  1       -2 0.13121229E+00 0.24287477E+04</pdfrwt>
<totfact> 0.35959610E+00</totfact>
</mgrwt>
</event>
<event>
12    1  0.1549527E-007  0.1212138E+04  0.7818608E-02  0.9102298E-01
         -1   -1    0    0    0  501 -0.00000000000E+00  0.00000000000E+00  0.21171428668E+03  0.21171428668E+03  0.00000000000E+00 0.  1.
          1   -1    0    0  501    0  0.00000000000E+00 -0.00000000000E+00 -0.17349772262E+04  0.17349772262E+04  0.00000000000E+00 0. -1.
         23    2    1    2    0    0 -0.81465294979E+02 -0.19839648965E+02 -0.75420731464E+03  0.76418783846E+03  0.90134194587E+02 0.  0.
        254    2    1    2    0    0  0.81465294979E+02  0.19839648965E+02 -0.76905562483E+03  0.11825036744E+04  0.89433672621E+03 0.  0.
        -24    2    4    4    0    0  0.16877560217E+03  0.35193432912E+03 -0.72551291079E+03  0.82752875658E+03  0.78050517932E+02 0.  0.
         24    2    4    4    0    0 -0.87310307190E+02 -0.33209468016E+03 -0.43542714044E+02  0.35497491778E+03  0.78748066503E+02 0.  0.
         11    1    3    3    0    0 -0.28605160185E+02  0.35193377222E+02 -0.22692466194E+03  0.23141225375E+03  0.00000000000E+00 0.  1.
        -11    1    3    3    0    0 -0.52860134794E+02 -0.55033026188E+02 -0.52728265270E+03  0.53277558471E+03  0.00000000000E+00 0. -1.
          4    1    6    6  502    0  0.69368909013E+01 -0.10550277933E+03  0.39599737389E-02  0.10573058648E+03  0.00000000000E+00 0. -1.
          1    1    5    5  503    0  0.12749847593E+03  0.31222446518E+03 -0.65462759368E+03  0.73639477486E+03  0.00000000000E+00 0. -1.
         -2    1    5    5    0  503  0.41277126234E+02  0.39709863943E+02 -0.70885317104E+02  0.91133981727E+02  0.00000000000E+00 0.  1.
         -3    1    6    6    0  502 -0.94247198092E+02 -0.22659190083E+03 -0.43546674018E+02  0.24924433131E+03  0.00000000000E+00 0.  1.
<mgrwt>
<rscale>  0 0.12121377E+04</rscale>
<asrwt>0</asrwt>
<pdfrwt beam="1">  1        1 0.26691957E+00 0.12121377E+04</pdfrwt>
<pdfrwt beam="2">  1       -1 0.32571429E-01 0.12121377E+04</pdfrwt>
<totfact> 0.39378432E+01</totfact>
</mgrwt>
</event>
<event>
12    1  0.1549527E-007  0.1524799E+04  0.7818608E-02  0.8868127E-01
          1   -1    0    0  501    0  0.00000000000E+00  0.00000000000E+00  0.54439362798E+03  0.54439362798E+03  0.00000000000E+00 0. -1.
         -1   -1    0    0    0  501 -0.00000000000E+00 -0.00000000000E+00 -0.10677073463E+04  0.10677073463E+04  0.00000000000E+00 0.  1.
         23    2    1    2    0    0  0.35422246223E+03  0.27495571793E+03  0.66062584679E+02  0.46229299294E+03  0.90974428554E+02 0.  0.
        254    2    1    2    0    0 -0.35422246223E+03 -0.27495571793E+03 -0.58937630298E+03  0.11498079813E+04  0.87955657455E+03 0.  0.
        -24    2    4    4    0    0  0.22924384857E+03 -0.28954419381E+03 -0.11948448326E+03  0.39619774642E+03  0.79419961324E+02 0.  0.
         24    2    4    4    0    0 -0.58346631080E+03  0.14588475878E+02 -0.46989181972E+03  0.75361023490E+03  0.80525178958E+02 0.  0.
         11    1    3    3    0    0  0.22743664820E+02  0.36172751904E+02 -0.15959478282E+02  0.45611919679E+02  0.00000000000E+00 0.  1.
        -11    1    3    3    0    0  0.33147879741E+03  0.23878296602E+03  0.82022062961E+02  0.41668107326E+03  0.00000000000E+00 0. -1.
          4    1    6    6  502    0 -0.43909157760E+03  0.13481194842E+01 -0.39409306800E+03  0.59001065854E+03  0.00000000000E+00 0. -1.
          1    1    5    5  503    0  0.16908679303E+03 -0.20505282781E+03 -0.12201890678E+03  0.29244763528E+03  0.00000000000E+00 0. -1.
         -2    1    5    5    0  503  0.60157055541E+02 -0.84491365995E+02  0.25344235216E+01  0.10375011114E+03  0.00000000000E+00 0.  1.
         -1    1    6    6    0  502 -0.14437473321E+03  0.13240356394E+02 -0.75798751719E+02  0.16359957637E+03  0.00000000000E+00 0.  1.
<mgrwt>
<rscale>  0 0.15247991E+04</rscale>
<asrwt>0</asrwt>
<pdfrwt beam="1">  1        1 0.83752866E-01 0.15247991E+04</pdfrwt>
<pdfrwt beam="2">  1       -1 0.16426267E+00 0.15247991E+04</pdfrwt>
<totfact> 0.10311799E+01</totfact>
</mgrwt>
</event>
<event>
12    1  0.1549527E-007  0.1339638E+04  0.7818608E-02  0.8998709E-01
         -1   -1    0    0    0  501 -0.00000000000E+00  0.00000000000E+00  0.16827493937E+03  0.16827493937E+03  0.00000000000E+00 0.  1.
          1   -1    0    0  501    0  0.00000000000E+00 -0.00000000000E+00 -0.26662183140E+04  0.26662183140E+04  0.00000000000E+00 0. -1.
         23    2    1    2    0    0  0.11386933534E+03  0.85457974378E+02  0.13145512781E+02  0.17173378173E+03  0.95133571185E+02 0.  0.
        254    2    1    2    0    0 -0.11386933534E+03 -0.85457974378E+02 -0.25110888874E+04  0.26627594716E+04  0.87432906415E+03 0.  0.
        -24    2    4    4    0    0 -0.33452911231E+03 -0.33198053494E+02 -0.36284923601E+03  0.50112029156E+03  0.80312768591E+02 0.  0.
         24    2    4    4    0    0  0.22065977697E+03 -0.52259920885E+02 -0.21482396514E+04  0.21616391801E+04  0.79551923427E+02 0.  0.
         11    1    3    3    0    0  0.12473901648E+03  0.71938404914E+02  0.30505314316E+02  0.14719215514E+03  0.00000000000E+00 0.  1.
        -11    1    3    3    0    0 -0.10869681137E+02  0.13519569464E+02 -0.17359801535E+02  0.24541626593E+02  0.00000000000E+00 0. -1.
          2    1    6    6  502    0 -0.62486087043E+01  0.41301016149E+00 -0.10005065601E+03  0.10024644360E+03  0.00000000000E+00 0. -1.
          1    1    5    5  503    0 -0.86285574751E+02 -0.24907935023E+02 -0.54029801124E+02  0.10480851610E+03  0.00000000000E+00 0. -1.
         -2    1    5    5    0  503 -0.24824353756E+03 -0.82901184707E+01 -0.30881943489E+03  0.39631177546E+03  0.00000000000E+00 0.  1.
         -1    1    6    6    0  502  0.22690838568E+03 -0.52672931046E+02 -0.20481889954E+04  0.20613927365E+04  0.00000000000E+00 0.  1.
<mgrwt>
<rscale>  0 0.13396383E+04</rscale>
<asrwt>0</asrwt>
<pdfrwt beam="1">  1        1 0.41018738E+00 0.13396383E+04</pdfrwt>
<pdfrwt beam="2">  1       -1 0.25888455E-01 0.13396383E+04</pdfrwt>
<totfact> 0.13470505E+01</totfact>
</mgrwt>
</event>
<event>
12    1  0.1549527E-007  0.1750176E+04  0.7818608E-02  0.8733253E-01
          1   -1    0    0  501    0  0.00000000000E+00  0.00000000000E+00  0.50704989342E+03  0.50704989342E+03  0.00000000000E+00 0. -1.
         -1   -1    0    0    0  501 -0.00000000000E+00 -0.00000000000E+00 -0.15102636140E+04  0.15102636140E+04  0.00000000000E+00 0.  1.
         23    2    1    2    0    0  0.21608357191E+03 -0.11372002124E+03 -0.10474759569E+04  0.10794341599E+04  0.91366690577E+02 0.  0.
        254    2    1    2    0    0 -0.21608357191E+03  0.11372002124E+03  0.44262236248E+02  0.93787934753E+03  0.90445241538E+03 0.  0.
        -24    2    4    4    0    0 -0.20036331794E+03  0.45266402626E+03  0.21927576439E+03  0.54737203013E+03  0.80523901269E+02 0.  0.
         24    2    4    4    0    0 -0.15720253961E+02 -0.33894400501E+03 -0.17501352814E+03  0.39050731740E+03  0.82073534057E+02 0.  0.
         13    1    3    3    0    0  0.82791370855E+02 -0.64252747716E+02 -0.28149509326E+03  0.30037029515E+03  0.00000000000E+00 0. -1.
        -13    1    3    3    0    0  0.13329220105E+03 -0.49467273528E+02 -0.76598086359E+03  0.77906386478E+03  0.00000000000E+00 0.  1.
          4    1    6    6  502    0 -0.44757177591E+02 -0.25165607847E+03 -0.14430213156E+03  0.29352528333E+03  0.00000000000E+00 0. -1.
          3    1    5    5  503    0 -0.19114042753E+03  0.42083024109E+03  0.18008950041E+03  0.49604937558E+03  0.00000000000E+00 0. -1.
         -4    1    5    5    0  503 -0.92228904121E+01  0.31833785168E+02  0.39186263981E+02  0.51322654554E+02  0.00000000000E+00 0.  1.
         -3    1    6    6    0  502  0.29036923630E+02 -0.87287926536E+02 -0.30711396581E+02  0.96982034073E+02  0.00000000000E+00 0.  1.
<mgrwt>
<rscale>  0 0.17501760E+04</rscale>
<asrwt>0</asrwt>
<pdfrwt beam="1">  1        1 0.78007676E-01 0.17501760E+04</pdfrwt>
<pdfrwt beam="2">  1       -1 0.23234825E+00 0.17501760E+04</pdfrwt>
<totfact> 0.37511956E+00</totfact>
</mgrwt>
</event>
<event>
12    1  0.1549527E-007  0.2691932E+04  0.7818608E-02  0.8337628E-01
          1   -1    0    0  501    0  0.00000000000E+00  0.00000000000E+00  0.22422645535E+04  0.22422645535E+04  0.00000000000E+00 0. -1.
         -1   -1    0    0    0  501 -0.00000000000E+00 -0.00000000000E+00 -0.80794410933E+03  0.80794410933E+03  0.00000000000E+00 0.  1.
         23    2    1    2    0    0 -0.84211053301E+03  0.26882355969E+03 -0.26613605636E+03  0.92756132284E+03  0.90140729322E+02 0.  0.
        254    2    1    2    0    0  0.84211053301E+03 -0.26882355969E+03  0.17004565006E+04  0.21226473400E+04  0.91250378836E+03 0.  0.
        -24    2    4    4    0    0 -0.25489205106E+02 -0.32715905030E+03  0.21778570959E+03  0.40197538781E+03  0.80441614426E+02 0.  0.
         24    2    4    4    0    0  0.86759973811E+03  0.58335490606E+02  0.14826707910E+04  0.17206719522E+04  0.79164118901E+02 0.  0.
         11    1    3    3    0    0 -0.54393528902E+03  0.18296219959E+03 -0.21631019744E+03  0.61329508937E+03  0.00000000000E+00 0. -1.
        -11    1    3    3    0    0 -0.29817524398E+03  0.85861360099E+02 -0.49825858917E+02  0.31426623347E+03  0.00000000000E+00 0.  1.
          4    1    6    6  502    0  0.24807273947E+03 -0.10042793047E+02  0.47038007859E+03  0.53188190428E+03  0.00000000000E+00 0. -1.
          3    1    5    5  503    0 -0.32968248012E+02 -0.48290180885E+02  0.30270282048E+02  0.65841756676E+02  0.00000000000E+00 0. -1.
         -4    1    5    5    0  503  0.74790429059E+01 -0.27886886941E+03  0.18751542755E+03  0.33613363113E+03  0.00000000000E+00 0.  1.
         -3    1    6    6    0  502  0.61952699864E+03  0.68378283653E+02  0.10122907124E+04  0.11887900479E+04  0.00000000000E+00 0.  1.
<mgrwt>
<rscale>  0 0.26919320E+04</rscale>
<asrwt>0</asrwt>
<pdfrwt beam="1">  1        1 0.34496377E+00 0.26919320E+04</pdfrwt>
<pdfrwt beam="2">  1       -1 0.12429909E+00 0.26919320E+04</pdfrwt>
<totfact> 0.10105217E+00</totfact>
</mgrwt>
</event>
<event>
12    1  0.1549527E-007  0.2465720E+04  0.7818608E-02  0.8415301E-01
          2   -1    0    0  501    0  0.00000000000E+00  0.00000000000E+00  0.20772684565E+04  0.20772684565E+04  0.00000000000E+00 0.  1.
         -2   -1    0    0    0  501 -0.00000000000E+00 -0.00000000000E+00 -0.73170308259E+03  0.73170308259E+03  0.00000000000E+00 0. -1.
         23    2    1    2    0    0 -0.55193094339E+03  0.78345143908E+03  0.11140239079E+04  0.14730930506E+04  0.10261551865E+03 0.  0.
        254    2    1    2    0    0  0.55193094339E+03 -0.78345143908E+03  0.23154146601E+03  0.13358784885E+04  0.90140776670E+03 0.  0.
        -24    2    4    4    0    0  0.18896152478E+03 -0.84406745392E+03 -0.44750987430E+02  0.86898763785E+03  0.70572935680E+02 0.  0.
         24    2    4    4    0    0  0.36296941861E+03  0.60616014840E+02  0.27629245344E+03  0.46689085064E+03  0.78920507366E+02 0.  0.
         11    1    3    3    0    0 -0.36044071858E+03  0.53138523105E+03  0.67240993263E+03  0.92974345542E+03  0.00000000000E+00 0.  1.
        -11    1    3    3    0    0 -0.19149022481E+03  0.25206620803E+03  0.44161397525E+03  0.54334959516E+03  0.00000000000E+00 0. -1.
          2    1    6    6  502    0  0.36653881553E+03  0.59318571307E+02  0.27670400123E+03  0.46307072947E+03  0.00000000000E+00 0. -1.
          3    1    5    5  503    0  0.16176355247E+03 -0.70972871578E+03 -0.63284961809E+02  0.73067590853E+03  0.00000000000E+00 0. -1.
         -4    1    5    5    0  503  0.27197972315E+02 -0.13433873814E+03  0.18533974379E+02  0.13831172932E+03  0.00000000000E+00 0.  1.
         -1    1    6    6    0  502 -0.35693969261E+01  0.12974435325E+01 -0.41154779514E+00  0.38201211661E+01  0.00000000000E+00 0.  1.
<mgrwt>
<rscale>  0 0.24657200E+04</rscale>
<asrwt>0</asrwt>
<pdfrwt beam="1">  1        2 0.31957976E+00 0.24657200E+04</pdfrwt>
<pdfrwt beam="2">  1       -2 0.11256971E+00 0.24657200E+04</pdfrwt>
<totfact> 0.33612275E+00</totfact>
</mgrwt>
</event>
<event>
12    1  0.1549527E-007  0.1537230E+04  0.7818608E-02  0.8860066E-01
          3   -1    0    0  501    0  0.00000000000E+00  0.00000000000E+00  0.78298710952E+03  0.78298710952E+03  0.00000000000E+00 0. -1.
         -3   -1    0    0    0  501 -0.00000000000E+00 -0.00000000000E+00 -0.75450677880E+03  0.75450677880E+03  0.00000000000E+00 0.  1.
         23    2    1    2    0    0  0.39900250980E+03  0.14726740237E+01 -0.29065063418E+03  0.50191206136E+03  0.90734528125E+02 0.  0.
        254    2    1    2    0    0 -0.39900250980E+03 -0.14726740237E+01  0.31913096490E+03  0.10355818270E+04  0.90076632706E+03 0.  0.
        -24    2    4    4    0    0 -0.36427774920E+03  0.41068964416E+03  0.24719993113E+03  0.60733376776E+03  0.79888904890E+02 0.  0.
         24    2    4    4    0    0 -0.34724760592E+02 -0.41216231819E+03  0.71931033765E+02  0.42824805920E+03  0.84491070862E+02 0.  0.
         11    1    3    3    0    0  0.41547859338E+02 -0.16382456913E+02 -0.69300601343E+01  0.45195522384E+02  0.00000000000E+00 0. -1.
        -11    1    3    3    0    0  0.35745465046E+03  0.17855130937E+02 -0.28372057405E+03  0.45671653897E+03  0.00000000000E+00 0.  1.
          4    1    6    6  502    0 -0.27501254148E+01 -0.34893489662E+03  0.76555209669E+02  0.35724476958E+03  0.00000000000E+00 0. -1.
          1    1    5    5  503    0 -0.28857638916E+03  0.34894919555E+03  0.17330503218E+03  0.48484689092E+03  0.00000000000E+00 0. -1.
         -2    1    5    5    0  503 -0.75701360042E+02  0.61740448615E+02  0.73894898954E+02  0.12248687684E+03  0.00000000000E+00 0.  1.
         -3    1    6    6    0  502 -0.31974635177E+02 -0.63227421570E+02 -0.46241759041E+01  0.71003289613E+02  0.00000000000E+00 0.  1.
<mgrwt>
<rscale>  0 0.15372301E+04</rscale>
<asrwt>0</asrwt>
<pdfrwt beam="1">  1        3 0.12045956E+00 0.15372301E+04</pdfrwt>
<pdfrwt beam="2">  1       -3 0.11607797E+00 0.15372301E+04</pdfrwt>
<totfact> 0.86800985E-01</totfact>
</mgrwt>
</event>
<event>
12    1  0.1549527E-007  0.2135249E+04  0.7818608E-02  0.8545873E-01
          1   -1    0    0  501    0  0.00000000000E+00  0.00000000000E+00  0.16454720587E+04  0.16454720587E+04  0.00000000000E+00 0. -1.
         -1   -1    0    0    0  501 -0.00000000000E+00 -0.00000000000E+00 -0.69270194710E+03  0.69270194710E+03  0.00000000000E+00 0.  1.
         23    2    1    2    0    0 -0.15975729019E+03  0.78529184703E+03  0.79527657654E+03  0.11325509074E+04  0.89448576555E+02 0.  0.
        254    2    1    2    0    0  0.15975729019E+03 -0.78529184703E+03  0.15749353509E+03  0.12056230984E+04  0.88685802985E+03 0.  0.
        -24    2    4    4    0    0  0.48558696074E+03 -0.57568138233E+03 -0.49531013762E+02  0.75909059059E+03  0.81002796262E+02 0.  0.
         24    2    4    4    0    0 -0.32582967055E+03 -0.20961046470E+03  0.20702454885E+03  0.44653250785E+03  0.80190994600E+02 0.  0.
         13    1    3    3    0    0 -0.52749240650E+02  0.43433164053E+03  0.39347452662E+03  0.58842897571E+03  0.00000000000E+00 0.  1.
        -13    1    3    3    0    0 -0.10700804954E+03  0.35096020650E+03  0.40180204991E+03  0.54412193167E+03  0.00000000000E+00 0. -1.
          4    1    6    6  502    0 -0.29360582982E+03 -0.15837901789E+03  0.18882824539E+03  0.38333327910E+03  0.00000000000E+00 0. -1.
          3    1    5    5  503    0  0.48134222078E+03 -0.57646345159E+03 -0.44294808794E+02  0.75230477508E+03  0.00000000000E+00 0. -1.
         -4    1    5    5    0  503  0.42447399605E+01  0.78206926413E+00 -0.52362049680E+01  0.67858155098E+01  0.00000000000E+00 0.  1.
         -3    1    6    6    0  502 -0.32223840733E+02 -0.51231446818E+02  0.18196303457E+02  0.63199228746E+02  0.00000000000E+00 0.  1.
<mgrwt>
<rscale>  0 0.21352486E+04</rscale>
<asrwt>0</asrwt>
<pdfrwt beam="1">  1        1 0.25314955E+00 0.21352486E+04</pdfrwt>
<pdfrwt beam="2">  1       -1 0.10656953E+00 0.21352486E+04</pdfrwt>
<totfact> 0.39152772E+00</totfact>
</mgrwt>
</event>
<event>
12    1  0.1549527E-007  0.1677572E+04  0.7818608E-02  0.8774260E-01
         -2   -1    0    0    0  501 -0.00000000000E+00  0.00000000000E+00  0.29200189154E+03  0.29200189154E+03  0.00000000000E+00 0.  1.
          2   -1    0    0  501    0  0.00000000000E+00 -0.00000000000E+00 -0.24094421555E+04  0.24094421555E+04  0.00000000000E+00 0. -1.
         23    2    1    2    0    0  0.26037059682E+03  0.35035759904E+02  0.97026669178E+02  0.29516519710E+03  0.93209263945E+02 0.  0.
        254    2    1    2    0    0 -0.26037059682E+03 -0.35035759904E+02 -0.22144669331E+04  0.24062788499E+04  0.90404300425E+03 0.  0.
        -24    2    4    4    0    0  0.34023589664E+02  0.36568280085E+03 -0.13927607467E+04  0.14424135946E+04  0.76765647763E+02 0.  0.
         24    2    4    4    0    0 -0.29439418649E+03 -0.40071856075E+03 -0.82170618638E+03  0.96386525535E+03  0.81190342747E+02 0.  0.
         13    1    3    3    0    0  0.58273000266E+02  0.45908304707E+02  0.42763443641E+02  0.85627256835E+02  0.00000000000E+00 0. -1.
        -13    1    3    3    0    0  0.20209759656E+03 -0.10872544803E+02  0.54263225537E+02  0.20953794027E+03  0.00000000000E+00 0.  1.
          2    1    6    6  502    0 -0.21837944918E+03 -0.28435449876E+03 -0.51929902016E+03  0.63104559037E+03  0.00000000000E+00 0. -1.
          1    1    5    5  503    0  0.45688688881E+02  0.26863171472E+03 -0.91298021866E+03  0.95277664440E+03  0.00000000000E+00 0. -1.
         -2    1    5    5    0  503 -0.11665099217E+02  0.97051086129E+02 -0.47978052807E+03  0.48963695018E+03  0.00000000000E+00 0.  1.
         -1    1    6    6    0  502 -0.76014737312E+02 -0.11636406199E+03 -0.30240716622E+03  0.33281966497E+03  0.00000000000E+00 0.  1.
<mgrwt>
<rscale>  0 0.16775717E+04</rscale>
<asrwt>0</asrwt>
<pdfrwt beam="1">  1        2 0.37068341E+00 0.16775717E+04</pdfrwt>
<pdfrwt beam="2">  1       -2 0.44923368E-01 0.16775717E+04</pdfrwt>
<totfact> 0.17610157E+01</totfact>
</mgrwt>
</event>
<event>
12    1  0.1549527E-007  0.1674513E+04  0.7818608E-02  0.8776036E-01
          2   -1    0    0  501    0  0.00000000000E+00  0.00000000000E+00  0.11642655427E+04  0.11642655427E+04  0.00000000000E+00 0. -1.
         -2   -1    0    0    0  501 -0.00000000000E+00 -0.00000000000E+00 -0.60209475516E+03  0.60209475516E+03  0.00000000000E+00 0.  1.
         23    2    1    2    0    0 -0.50926575183E+03  0.29968330763E+03  0.15659823336E+03  0.61810801273E+03  0.91503102947E+02 0.  0.
        254    2    1    2    0    0  0.50926575183E+03 -0.29968330763E+03  0.40557255422E+03  0.11482522852E+04  0.89712458599E+03 0.  0.
        -24    2    4    4    0    0  0.11553976006E+03  0.17968336312E+03  0.46684732269E+03  0.51981833614E+03  0.81419486324E+02 0.  0.
         24    2    4    4    0    0  0.39372599178E+03 -0.47936667075E+03 -0.61274768472E+02  0.62843394902E+03  0.79762581471E+02 0.  0.
         13    1    3    3    0    0 -0.27959894063E+03  0.20073027342E+03  0.12432271231E+03  0.36595675573E+03  0.00000000000E+00 0. -1.
        -13    1    3    3    0    0 -0.22966681121E+03  0.98953034213E+02  0.32275521046E+02  0.25215125701E+03  0.00000000000E+00 0.  1.
          4    1    6    6  502    0  0.37461906068E+03 -0.45861805588E+03 -0.40795705122E+02  0.59357750241E+03  0.00000000000E+00 0. -1.
          1    1    5    5  503    0  0.74893264081E+02  0.16177370638E+03  0.31887259811E+03  0.36532104635E+03  0.00000000000E+00 0. -1.
         -2    1    5    5    0  503  0.40646495975E+02  0.17909656742E+02  0.14797472458E+03  0.15449728980E+03  0.00000000000E+00 0.  1.
         -3    1    6    6    0  502  0.19106931100E+02 -0.20748614867E+02 -0.20479063350E+02  0.34856446616E+02  0.00000000000E+00 0.  1.
<mgrwt>
<rscale>  0 0.16745127E+04</rscale>
<asrwt>0</asrwt>
<pdfrwt beam="1">  1        2 0.17911778E+00 0.16745127E+04</pdfrwt>
<pdfrwt beam="2">  1       -2 0.92629963E-01 0.16745127E+04</pdfrwt>
<totfact> 0.18761964E+01</totfact>
</mgrwt>
</event>
<event>
12    1  0.1549527E-007  0.2108708E+04  0.7818608E-02  0.8557417E-01
         -2   -1    0    0    0  501 -0.00000000000E+00  0.00000000000E+00  0.56852330285E+03  0.56852330285E+03  0.00000000000E+00 0.  1.
          2   -1    0    0  501    0  0.00000000000E+00 -0.00000000000E+00 -0.19553506805E+04  0.19553506805E+04  0.00000000000E+00 0. -1.
         23    2    1    2    0    0 -0.30144058674E+03  0.57174140578E+03  0.10880069799E+03  0.66170186673E+03  0.90868620158E+02 0.  0.
        254    2    1    2    0    0  0.30144058674E+03 -0.57174140578E+03 -0.14956280756E+04  0.18621721166E+04  0.90168009229E+03 0.  0.
        -24    2    4    4    0    0 -0.17522549515E+03 -0.25940950549E+03 -0.77992886060E+02  0.33220001889E+03  0.79225605626E+02 0.  0.
         24    2    4    4    0    0  0.47666608189E+03 -0.31233190029E+03 -0.14176351896E+04  0.15299720977E+04  0.79770417464E+02 0.  0.
         11    1    3    3    0    0 -0.97554590144E+02  0.21783664855E+03 -0.13066597370E+01  0.23868684687E+03  0.00000000000E+00 0. -1.
        -11    1    3    3    0    0 -0.20388599659E+03  0.35390475724E+03  0.11010735773E+03  0.42301501986E+03  0.00000000000E+00 0.  1.
          4    1    6    6  502    0  0.51111747762E+02 -0.59137775316E+02 -0.24188723785E+03  0.25420291710E+03  0.00000000000E+00 0. -1.
          1    1    5    5  503    0 -0.54987606767E+02 -0.86363514893E+02  0.11971722956E+02  0.10308062744E+03  0.00000000000E+00 0. -1.
         -2    1    5    5    0  503 -0.12023788838E+03 -0.17304599060E+03 -0.89964609016E+02  0.22911939145E+03  0.00000000000E+00 0.  1.
         -3    1    6    6    0  502  0.42555433412E+03 -0.25319412497E+03 -0.11757479517E+04  0.12757691806E+04  0.00000000000E+00 0.  1.
<mgrwt>
<rscale>  0 0.21087081E+04</rscale>
<asrwt>0</asrwt>
<pdfrwt beam="1">  1        2 0.30082318E+00 0.21087081E+04</pdfrwt>
<pdfrwt beam="2">  1       -2 0.87465124E-01 0.21087081E+04</pdfrwt>
<totfact> 0.73523213E+00</totfact>
</mgrwt>
</event>
<event>
12    1  0.1549527E-007  0.1295602E+04  0.7818608E-02  0.9033060E-01
         -1   -1    0    0    0  501 -0.00000000000E+00  0.00000000000E+00  0.12886079100E+04  0.12886079100E+04  0.00000000000E+00 0.  1.
          1   -1    0    0  501    0  0.00000000000E+00 -0.00000000000E+00 -0.32565828720E+03  0.32565828720E+03  0.00000000000E+00 0. -1.
         23    2    1    2    0    0  0.28012536286E+03 -0.27519815780E+02  0.46401945861E+02  0.30037729689E+03  0.94052223415E+02 0.  0.
        254    2    1    2    0    0 -0.28012536286E+03  0.27519815780E+02  0.91654767699E+03  0.13138889004E+04  0.89834115965E+03 0.  0.
        -24    2    4    4    0    0 -0.95932109503E+02  0.40553884383E+03  0.73599020973E+03  0.84938284886E+03  0.78133933900E+02 0.  0.
         24    2    4    4    0    0 -0.18419325335E+03 -0.37801902805E+03  0.18055746726E+03  0.46450605150E+03  0.79619926854E+02 0.  0.
         13    1    3    3    0    0  0.28400895508E+03 -0.34990916648E+02  0.51178107362E+02  0.29069683432E+03  0.00000000000E+00 0. -1.
        -13    1    3    3    0    0 -0.38835922232E+01  0.74711008677E+01 -0.47761615009E+01  0.96804625619E+01  0.00000000000E+00 0.  1.
          2    1    6    6  502    0 -0.13494939647E+03 -0.25940537229E+03  0.16331472817E+03  0.33492415143E+03  0.00000000000E+00 0. -1.
          3    1    5    5  503    0 -0.86990699745E+02  0.30057086532E+03  0.48498204026E+03  0.57716358712E+03  0.00000000000E+00 0. -1.
         -4    1    5    5    0  503 -0.89414097584E+01  0.10496797851E+03  0.25100816947E+03  0.27221926173E+03  0.00000000000E+00 0.  1.
         -1    1    6    6    0  502 -0.49243856888E+02 -0.11861365576E+03  0.17242739096E+02  0.12958190007E+03  0.00000000000E+00 0.  1.
<mgrwt>
<rscale>  0 0.12956016E+04</rscale>
<asrwt>0</asrwt>
<pdfrwt beam="1">  1        1 0.50101276E-01 0.12956016E+04</pdfrwt>
<pdfrwt beam="2">  1       -1 0.19824737E+00 0.12956016E+04</pdfrwt>
<totfact> 0.11977842E+01</totfact>
</mgrwt>
</event>
<event>
12    1  0.1549527E-007  0.1545213E+04  0.7818608E-02  0.8854931E-01
         -2   -1    0    0    0  501 -0.00000000000E+00  0.00000000000E+00  0.33332001874E+03  0.33332001874E+03  0.00000000000E+00 0.  1.
          2   -1    0    0  501    0  0.00000000000E+00 -0.00000000000E+00 -0.17908339414E+04  0.17908339414E+04  0.00000000000E+00 0. -1.
         23    2    1    2    0    0 -0.14620427242E+03  0.20342066015E+03  0.12554093847E+03  0.29466908360E+03  0.91179423927E+02 0.  0.
        254    2    1    2    0    0  0.14620427242E+03 -0.20342066015E+03 -0.15830548611E+04  0.18294848765E+04  0.88215450227E+03 0.  0.
        -24    2    4    4    0    0 -0.13355253800E+03 -0.38274320757E+03 -0.13593215667E+04  0.14206694809E+04  0.78854353018E+02 0.  0.
         24    2    4    4    0    0  0.27975681042E+03  0.17932254742E+03 -0.22373329440E+03  0.40881539558E+03  0.81565873086E+02 0.  0.
         11    1    3    3    0    0 -0.15138061520E+03  0.20884111771E+03  0.12618400603E+03  0.28714648959E+03  0.00000000000E+00 0.  1.
        -11    1    3    3    0    0  0.51763427788E+01 -0.54204575616E+01 -0.64306756353E+00  0.75225940095E+01  0.00000000000E+00 0. -1.
          4    1    6    6  502    0  0.85799506310E+02  0.83563847907E+02 -0.44050092904E+02  0.12761223548E+03  0.00000000000E+00 0. -1.
          1    1    5    5  503    0 -0.96110431624E+01 -0.11386271152E+03 -0.45428180254E+03  0.46843254087E+03  0.00000000000E+00 0. -1.
         -2    1    5    5    0  503 -0.12394149484E+03 -0.26888049605E+03 -0.90503976417E+03  0.95223694007E+03  0.00000000000E+00 0.  1.
         -3    1    6    6    0  502  0.19395730411E+03  0.95758699513E+02 -0.17968320149E+03  0.28120316010E+03  0.00000000000E+00 0.  1.
<mgrwt>
<rscale>  0 0.15452130E+04</rscale>
<asrwt>0</asrwt>
<pdfrwt beam="1">  1        2 0.27551292E+00 0.15452130E+04</pdfrwt>
<pdfrwt beam="2">  1       -2 0.51280002E-01 0.15452130E+04</pdfrwt>
<totfact> 0.30206519E+01</totfact>
</mgrwt>
</event>
<event>
12    1  0.1549527E-007  0.2170728E+04  0.7818608E-02  0.8530711E-01
         -2   -1    0    0    0  501 -0.00000000000E+00  0.00000000000E+00  0.54983756409E+03  0.54983756409E+03  0.00000000000E+00 0.  1.
          2   -1    0    0  501    0  0.00000000000E+00 -0.00000000000E+00 -0.21424788169E+04  0.21424788169E+04  0.00000000000E+00 0. -1.
         23    2    1    2    0    0 -0.79761469674E+03 -0.38560392950E+03 -0.84242060384E+03  0.12260153866E+04  0.92529236337E+02 0.  0.
        254    2    1    2    0    0  0.79761469674E+03  0.38560392950E+03 -0.75022064903E+03  0.14663009944E+04  0.89572763109E+03 0.  0.
        -24    2    4    4    0    0  0.12796173483E+02 -0.20531275754E+03 -0.32757797404E+03  0.39402230267E+03  0.75027831254E+02 0.  0.
         24    2    4    4    0    0  0.78481852325E+03  0.59091668704E+03 -0.42264267498E+03  0.10722786917E+04  0.77666701821E+02 0.  0.
         13    1    3    3    0    0 -0.28667729778E+03 -0.17542976774E+03 -0.27754100370E+03  0.43587668578E+03  0.00000000000E+00 0. -1.
        -13    1    3    3    0    0 -0.51093739896E+03 -0.21017416176E+03 -0.56487960013E+03  0.79013870085E+03  0.00000000000E+00 0.  1.
          4    1    6    6  502    0  0.33673039908E+03  0.21882912868E+03 -0.20114499395E+03  0.44914681098E+03  0.00000000000E+00 0. -1.
          1    1    5    5  503    0 -0.23332902856E+02 -0.11123052908E+03 -0.13340193873E+03  0.17525048420E+03  0.00000000000E+00 0. -1.
         -2    1    5    5    0  503  0.36129076339E+02 -0.94082228456E+02 -0.19417603531E+03  0.21877181847E+03  0.00000000000E+00 0.  1.
         -3    1    6    6    0  502  0.44808812418E+03  0.37208755836E+03 -0.22149768103E+03  0.62313188076E+03  0.00000000000E+00 0.  1.
<mgrwt>
<rscale>  0 0.21707283E+04</rscale>
<asrwt>0</asrwt>
<pdfrwt beam="1">  1        2 0.32961212E+00 0.21707283E+04</pdfrwt>
<pdfrwt beam="2">  1       -2 0.84590396E-01 0.21707283E+04</pdfrwt>
<totfact> 0.62084186E+00</totfact>
</mgrwt>
</event>
<event>
12    1  0.1549527E-007  0.1167019E+04  0.7818608E-02  0.9142225E-01
          1   -1    0    0  501    0  0.00000000000E+00  0.00000000000E+00  0.39869899295E+03  0.39869899295E+03  0.00000000000E+00 0. -1.
         -1   -1    0    0    0  501 -0.00000000000E+00 -0.00000000000E+00 -0.85398545812E+03  0.85398545812E+03  0.00000000000E+00 0.  1.
         23    2    1    2    0    0 -0.57222393645E+02 -0.10799130966E+03 -0.28474518421E+03  0.32217178535E+03  0.88194750695E+02 0.  0.
        254    2    1    2    0    0  0.57222393645E+02  0.10799130966E+03 -0.17054128096E+03  0.93051266572E+03  0.90655003572E+03 0.  0.
        -24    2    4    4    0    0  0.19782214891E+03 -0.36060643492E+03 -0.86974268782E+02  0.42784290345E+03  0.79463344387E+02 0.  0.
         24    2    4    4    0    0 -0.14059975527E+03  0.46859774458E+03 -0.83567012178E+02  0.50266976227E+03  0.79632323639E+02 0.  0.
         13    1    3    3    0    0 -0.59673945341E+02 -0.99006921398E+02 -0.16168450441E+03  0.19875922420E+03  0.00000000000E+00 0.  1.
        -13    1    3    3    0    0  0.24515516958E+01 -0.89843882635E+01 -0.12306067980E+03  0.12341256116E+03  0.00000000000E+00 0. -1.
          4    1    6    6  502    0 -0.54775942438E+02  0.75413917281E+02 -0.13725387419E+02  0.94212786019E+02  0.00000000000E+00 0. -1.
          1    1    5    5  503    0  0.52221127702E+02 -0.16413864371E+03 -0.57216770695E+02  0.18150013605E+03  0.00000000000E+00 0. -1.
         -2    1    5    5    0  503  0.14560102121E+03 -0.19646779121E+03 -0.29757498087E+02  0.24634276740E+03  0.00000000000E+00 0.  1.
         -3    1    6    6    0  502 -0.85823812829E+02  0.39318382730E+03 -0.69841624758E+02  0.40845697625E+03  0.00000000000E+00 0.  1.
<mgrwt>
<rscale>  0 0.11670187E+04</rscale>
<asrwt>0</asrwt>
<pdfrwt beam="1">  1        1 0.61338307E-01 0.11670187E+04</pdfrwt>
<pdfrwt beam="2">  1       -1 0.13138238E+00 0.11670187E+04</pdfrwt>
<totfact> 0.29520921E+01</totfact>
</mgrwt>
</event>
<event>
12    1  0.1549527E-007  0.1693676E+04  0.7818608E-02  0.8764980E-01
         -2   -1    0    0    0  501 -0.00000000000E+00  0.00000000000E+00  0.32410417180E+03  0.32410417180E+03  0.00000000000E+00 0.  1.
          2   -1    0    0  501    0  0.00000000000E+00 -0.00000000000E+00 -0.22126663420E+04  0.22126663420E+04  0.00000000000E+00 0. -1.
         23    2    1    2    0    0 -0.39761726374E+03 -0.31866877262E+03 -0.19771211830E+03  0.55404096296E+03  0.90675420328E+02 0.  0.
        254    2    1    2    0    0  0.39761726374E+03  0.31866877262E+03 -0.16908500519E+04  0.19827295509E+04  0.90143957017E+03 0.  0.
        -24    2    4    4    0    0 -0.99627548009E+02  0.47710364186E+03 -0.97450056989E+03  0.10928064824E+04  0.83792087460E+02 0.  0.
         24    2    4    4    0    0  0.49724481175E+03 -0.15843486924E+03 -0.71634948204E+03  0.88992306843E+03  0.80327309834E+02 0.  0.
         11    1    3    3    0    0 -0.17725235069E+03 -0.14693551872E+03 -0.13775525623E+03  0.26830011760E+03  0.00000000000E+00 0. -1.
        -11    1    3    3    0    0 -0.22036491305E+03 -0.17173325390E+03 -0.59956862070E+02  0.28574084536E+03  0.00000000000E+00 0.  1.
          2    1    6    6  502    0  0.84093799796E+02 -0.25352160413E+02 -0.74992060536E+02  0.11549159426E+03  0.00000000000E+00 0. -1.
          1    1    5    5  503    0 -0.10254894620E+03  0.33597886194E+03 -0.73902791572E+03  0.81826666940E+03  0.00000000000E+00 0. -1.
         -2    1    5    5    0  503  0.29213981943E+01  0.14112477992E+03 -0.23547265416E+03  0.27453981302E+03  0.00000000000E+00 0.  1.
         -1    1    6    6    0  502  0.41315101195E+03 -0.13308270882E+03 -0.64135742150E+03  0.77443147417E+03  0.00000000000E+00 0.  1.
<mgrwt>
<rscale>  0 0.16936758E+04</rscale>
<asrwt>0</asrwt>
<pdfrwt beam="1">  1        2 0.34041022E+00 0.16936758E+04</pdfrwt>
<pdfrwt beam="2">  1       -2 0.49862179E-01 0.16936758E+04</pdfrwt>
<totfact> 0.18414400E+01</totfact>
</mgrwt>
</event>
<event>
12    1  0.1549527E-007  0.1836305E+04  0.7818608E-02  0.8687228E-01
         -2   -1    0    0    0  501 -0.00000000000E+00  0.00000000000E+00  0.42175813325E+03  0.42175813325E+03  0.00000000000E+00 0.  1.
          2   -1    0    0  501    0  0.00000000000E+00 -0.00000000000E+00 -0.19987849502E+04  0.19987849502E+04  0.00000000000E+00 0. -1.
         23    2    1    2    0    0  0.35084926738E+03  0.36127229364E+03 -0.12320325137E+04  0.13339912904E+04  0.89530830116E+02 0.  0.
        254    2    1    2    0    0 -0.35084926738E+03 -0.36127229364E+03 -0.34499430318E+03  0.10865517930E+04  0.89886642554E+03 0.  0.
        -24    2    4    4    0    0 -0.13716276251E+03  0.12707871979E+02 -0.57186126107E+03  0.59356197001E+03  0.79469471454E+02 0.  0.
         24    2    4    4    0    0 -0.21368650487E+03 -0.37398016562E+03  0.22686695789E+03  0.49298982294E+03  0.77764145371E+02 0.  0.
         13    1    3    3    0    0  0.30816722485E+03  0.28037856513E+03 -0.10643266519E+04  0.11429656164E+04  0.00000000000E+00 0. -1.
        -13    1    3    3    0    0  0.42682042529E+02  0.80893728512E+02 -0.16770586183E+03  0.19102567408E+03  0.00000000000E+00 0.  1.
          2    1    6    6  502    0 -0.47636899619E+02 -0.41584025778E+02  0.54123843693E+02  0.83233982611E+02  0.00000000000E+00 0. -1.
          3    1    5    5  503    0 -0.22342626901E+02 -0.64242983931E+01 -0.25392085691E+03  0.25498287425E+03  0.00000000000E+00 0. -1.
         -4    1    5    5    0  503 -0.11482013561E+03  0.19132170372E+02 -0.31794040416E+03  0.33857909576E+03  0.00000000000E+00 0.  1.
         -1    1    6    6    0  502 -0.16604960525E+03 -0.33239613984E+03  0.17274311420E+03  0.40975584033E+03  0.00000000000E+00 0.  1.
<mgrwt>
<rscale>  0 0.18363048E+04</rscale>
<asrwt>0</asrwt>
<pdfrwt beam="1">  1        2 0.30750537E+00 0.18363048E+04</pdfrwt>
<pdfrwt beam="2">  1       -2 0.64885867E-01 0.18363048E+04</pdfrwt>
<totfact> 0.13803390E+01</totfact>
</mgrwt>
</event>
<event>
12    1  0.1549527E-007  0.2791005E+04  0.7818608E-02  0.8306066E-01
          2   -1    0    0  501    0  0.00000000000E+00  0.00000000000E+00  0.35763651188E+04  0.35763651188E+04  0.00000000000E+00 0. -1.
         -2   -1    0    0    0  501 -0.00000000000E+00 -0.00000000000E+00 -0.54452706146E+03  0.54452706146E+03  0.00000000000E+00 0.  1.
         23    2    1    2    0    0  0.29327272744E+03 -0.10659849808E+04  0.20864948054E+04  0.23630376819E+04  0.90297516027E+02 0.  0.
        254    2    1    2    0    0 -0.29327272744E+03  0.10659849808E+04  0.94534325196E+03  0.17578544983E+04  0.98693753672E+03 0.  0.
        -24    2    4    4    0    0  0.27173671053E+03  0.72751434570E+03  0.31142945900E+03  0.84013181669E+03  0.75598931435E+02 0.  0.
         24    2    4    4    0    0 -0.56500943796E+03  0.33847063508E+03  0.63391379296E+03  0.91772268165E+03  0.81056694422E+02 0.  0.
         13    1    3    3    0    0  0.22198078512E+03 -0.88883113217E+03  0.17799527170E+04  0.20018810967E+04  0.00000000000E+00 0. -1.
        -13    1    3    3    0    0  0.71291942315E+02 -0.17715384860E+03  0.30654208833E+03  0.36115658520E+03  0.00000000000E+00 0.  1.
          2    1    6    6  502    0 -0.14284731066E+03  0.47199140475E+02  0.15478465448E+03  0.21585041647E+03  0.00000000000E+00 0. -1.
          3    1    5    5  503    0  0.52635299757E+02  0.12217711821E+03  0.84186440675E+02  0.15743277864E+03  0.00000000000E+00 0. -1.
         -4    1    5    5    0  503  0.21910141077E+03  0.60533722748E+03  0.22724301833E+03  0.68269903805E+03  0.00000000000E+00 0.  1.
         -1    1    6    6    0  502 -0.42216212730E+03  0.29127149461E+03  0.47912913848E+03  0.70187226518E+03  0.00000000000E+00 0.  1.
<mgrwt>
<rscale>  0 0.27910053E+04</rscale>
<asrwt>0</asrwt>
<pdfrwt beam="1">  1        2 0.55021000E+00 0.27910053E+04</pdfrwt>
<pdfrwt beam="2">  1       -2 0.83773396E-01 0.27910053E+04</pdfrwt>
<totfact> 0.77851009E-01</totfact>
</mgrwt>
</event>
<event>
12    1  0.1549527E-007  0.1746005E+04  0.7818608E-02  0.8735552E-01
         -2   -1    0    0    0  501 -0.00000000000E+00  0.00000000000E+00  0.12063114976E+04  0.12063114976E+04  0.00000000000E+00 0.  1.
          2   -1    0    0  501    0  0.00000000000E+00 -0.00000000000E+00 -0.63178817720E+03  0.63178817720E+03  0.00000000000E+00 0. -1.
         23    2    1    2    0    0 -0.58918006989E+03 -0.42801056172E+02 -0.31086262172E+02  0.59880971463E+03  0.92960386567E+02 0.  0.
        254    2    1    2    0    0  0.58918006989E+03  0.42801056172E+02  0.60560958262E+03  0.12392899602E+04  0.90560010699E+03 0.  0.
        -24    2    4    4    0    0  0.16993200881E+03 -0.16972042863E+03 -0.18657670699E+03  0.31464524679E+03  0.80677457979E+02 0.  0.
         24    2    4    4    0    0  0.41924806108E+03  0.21252148480E+03  0.79218628960E+03  0.92464471343E+03  0.80463721128E+02 0.  0.
         11    1    3    3    0    0 -0.22657151447E+02  0.14251883496E+02 -0.11365408351E+02  0.29079807459E+02  0.00000000000E+00 0. -1.
        -11    1    3    3    0    0 -0.56652291845E+03 -0.57052939668E+02 -0.19720853821E+02  0.56972990717E+03  0.00000000000E+00 0.  1.
          2    1    6    6  502    0  0.37718504612E+03  0.16083240939E+03  0.67217538179E+03  0.78737244479E+03  0.00000000000E+00 0. -1.
          1    1    5    5  503    0  0.10097207694E+03 -0.13320338634E+03 -0.16215948095E+03  0.23288237313E+03  0.00000000000E+00 0. -1.
         -2    1    5    5    0  503  0.68959931879E+02 -0.36517042283E+02 -0.24417226039E+02  0.81762873661E+02  0.00000000000E+00 0.  1.
         -1    1    6    6    0  502  0.42063014960E+02  0.51689075404E+02  0.12001090781E+03  0.13727226864E+03  0.00000000000E+00 0.  1.
<mgrwt>
<rscale>  0 0.17460050E+04</rscale>
<asrwt>0</asrwt>
<pdfrwt beam="1">  1        2 0.97198181E-01 0.17460050E+04</pdfrwt>
<pdfrwt beam="2">  1       -2 0.18558638E+00 0.17460050E+04</pdfrwt>
<totfact> 0.73237687E+00</totfact>
</mgrwt>
</event>
<event>
12    1  0.1549527E-007  0.1778740E+04  0.7818608E-02  0.8717688E-01
         -2   -1    0    0    0  501 -0.00000000000E+00  0.00000000000E+00  0.73552100892E+03  0.73552100892E+03  0.00000000000E+00 0.  1.
          2   -1    0    0  501    0  0.00000000000E+00 -0.00000000000E+00 -0.10753992138E+04  0.10753992138E+04  0.00000000000E+00 0. -1.
         23    2    1    2    0    0 -0.15794445084E+03  0.17398096450E+03  0.49165294994E+03  0.55250942180E+03  0.91259040263E+02 0.  0.
        254    2    1    2    0    0  0.15794445084E+03 -0.17398096450E+03 -0.83153115482E+03  0.12584108009E+04  0.91484307775E+03 0.  0.
        -24    2    4    4    0    0  0.20591433406E+03 -0.53127065802E+03 -0.53646764261E+03  0.78662520245E+03  0.79576708349E+02 0.  0.
         24    2    4    4    0    0 -0.47969883216E+02  0.35728969351E+03 -0.29506351221E+03  0.47178559849E+03  0.74579755404E+02 0.  0.
         11    1    3    3    0    0 -0.97499744185E+02  0.14719343404E+03  0.41672078412E+03  0.45257962731E+03  0.00000000000E+00 0.  1.
        -11    1    3    3    0    0 -0.60444706660E+02  0.26787530461E+02  0.74932165816E+02  0.99929794483E+02  0.00000000000E+00 0. -1.
          2    1    6    6  502    0 -0.34290079302E+02  0.22884470028E+03 -0.14197407678E+03  0.27148175788E+03  0.00000000000E+00 0. -1.
          3    1    5    5  503    0  0.16312919697E+03 -0.46074797485E+03 -0.48931168856E+03  0.69161098878E+03  0.00000000000E+00 0. -1.
         -4    1    5    5    0  503  0.42785137089E+02 -0.70522683168E+02 -0.47155954049E+02  0.95014213669E+02  0.00000000000E+00 0.  1.
         -1    1    6    6    0  502 -0.13679803914E+02  0.12844499324E+03 -0.15308943543E+03  0.20030384061E+03  0.00000000000E+00 0.  1.
<mgrwt>
<rscale>  0 0.17787397E+04</rscale>
<asrwt>0</asrwt>
<pdfrwt beam="1">  1        2 0.16544603E+00 0.17787397E+04</pdfrwt>
<pdfrwt beam="2">  1       -2 0.11315708E+00 0.17787397E+04</pdfrwt>
<totfact> 0.13090756E+01</totfact>
</mgrwt>
</event>
<event>
12    1  0.1549527E-007  0.1534277E+04  0.7818608E-02  0.8861973E-01
         -1   -1    0    0    0  501 -0.00000000000E+00  0.00000000000E+00  0.65728089816E+03  0.65728089816E+03  0.00000000000E+00 0.  1.
          1   -1    0    0  501    0  0.00000000000E+00 -0.00000000000E+00 -0.89535804992E+03  0.89535804992E+03  0.00000000000E+00 0. -1.
         23    2    1    2    0    0 -0.54820767749E+02  0.48658701640E+03 -0.16623803399E+03  0.52512397531E+03  0.91366648157E+02 0.  0.
        254    2    1    2    0    0  0.54820767749E+02 -0.48658701640E+03 -0.71839117775E+02  0.10275149728E+04  0.90047427466E+03 0.  0.
        -24    2    4    4    0    0 -0.22698140527E+03  0.15486923666E+03 -0.14126668972E+03  0.31900396601E+03  0.79386484395E+02 0.  0.
         24    2    4    4    0    0  0.28180217302E+03 -0.64145625305E+03  0.69427571944E+02  0.70851100676E+03  0.79303654679E+02 0.  0.
         13    1    3    3    0    0 -0.40718055762E+02  0.47867465309E+03 -0.15285912161E+03  0.50413618660E+03  0.00000000000E+00 0. -1.
        -13    1    3    3    0    0 -0.14102711988E+02  0.79123633040E+01 -0.13378912379E+02  0.20987788709E+02  0.00000000000E+00 0.  1.
          2    1    6    6  502    0  0.13512905808E+03 -0.30040155933E+03  0.72332910831E+02  0.33724324927E+03  0.00000000000E+00 0. -1.
          3    1    5    5  503    0 -0.28510418533E+02  0.58573938825E+02 -0.26384385756E+02  0.70284323189E+02  0.00000000000E+00 0. -1.
         -4    1    5    5    0  503 -0.19847098674E+03  0.96295297834E+02 -0.11488230396E+03  0.24871964282E+03  0.00000000000E+00 0.  1.
         -1    1    6    6    0  502  0.14667311494E+03 -0.34105469372E+03 -0.29053388871E+01  0.37126775749E+03  0.00000000000E+00 0.  1.
<mgrwt>
<rscale>  0 0.15342773E+04</rscale>
<asrwt>0</asrwt>
<pdfrwt beam="1">  1        1 0.13774739E+00 0.15342773E+04</pdfrwt>
<pdfrwt beam="2">  1       -1 0.10112014E+00 0.15342773E+04</pdfrwt>
<totfact> 0.16456909E+01</totfact>
</mgrwt>
</event>
<event>
12    1  0.1549527E-007  0.1326621E+04  0.7818608E-02  0.9008717E-01
         -2   -1    0    0    0  501 -0.00000000000E+00  0.00000000000E+00  0.31038445039E+03  0.31038445039E+03  0.00000000000E+00 0.  1.
          2   -1    0    0  501    0  0.00000000000E+00 -0.00000000000E+00 -0.14175341095E+04  0.14175341095E+04  0.00000000000E+00 0. -1.
         23    2    1    2    0    0 -0.13642850901E+03  0.14217585625E+03  0.83288360667E+02  0.23706205884E+03  0.10215065612E+03 0.  0.
        254    2    1    2    0    0  0.13642850901E+03 -0.14217585625E+03 -0.11904380198E+04  0.14908565011E+04  0.87560477137E+03 0.  0.
        -24    2    4    4    0    0  0.47875118802E+03 -0.15854536742E+03 -0.49030882814E+03  0.70764920466E+03  0.77622911204E+02 0.  0.
         24    2    4    4    0    0 -0.34232267901E+03  0.16369511174E+02 -0.70012919166E+03  0.78320729641E+03  0.76026355131E+02 0.  0.
         13    1    3    3    0    0 -0.11062002091E+03  0.15450342752E+03  0.85509140076E+02  0.20837444944E+03  0.00000000000E+00 0.  1.
        -13    1    3    3    0    0 -0.25808488107E+02 -0.12327571277E+02 -0.22207794084E+01  0.28687609401E+02  0.00000000000E+00 0. -1.
          4    1    6    6  502    0 -0.32592427056E+03  0.12696685726E+02 -0.61202265338E+03  0.69351248311E+03  0.00000000000E+00 0. -1.
          3    1    5    5  503    0  0.41640380447E+03 -0.11459993891E+03 -0.39233291781E+03  0.58348127028E+03  0.00000000000E+00 0. -1.
         -4    1    5    5    0  503  0.62347383556E+02 -0.43945428514E+02 -0.97975910328E+02  0.12416793438E+03  0.00000000000E+00 0.  1.
         -3    1    6    6    0  502 -0.16398408447E+02  0.36728254474E+01 -0.88106538277E+02  0.89694813303E+02  0.00000000000E+00 0.  1.
<mgrwt>
<rscale>  0 0.13266206E+04</rscale>
<asrwt>0</asrwt>
<pdfrwt beam="1">  1        2 0.21808218E+00 0.13266206E+04</pdfrwt>
<pdfrwt beam="2">  1       -2 0.47751453E-01 0.13266206E+04</pdfrwt>
<totfact> 0.57471762E+01</totfact>
</mgrwt>
</event>
<event>
12    1  0.1549527E-007  0.1932711E+04  0.7818608E-02  0.8638743E-01
         -2   -1    0    0    0  501 -0.00000000000E+00  0.00000000000E+00  0.21692362398E+03  0.21692362398E+03  0.00000000000E+00 0.  1.
          2   -1    0    0  501    0  0.00000000000E+00 -0.00000000000E+00 -0.43049373788E+04  0.43049373788E+04  0.00000000000E+00 0. -1.
         23    2    1    2    0    0  0.15003701531E+02  0.32713377405E+03 -0.19714294424E+02  0.34002147181E+03  0.89355082151E+02 0.  0.
        254    2    1    2    0    0 -0.15003701531E+02 -0.32713377405E+03 -0.40682994604E+04  0.41818395309E+04  0.91075778676E+03 0.  0.
        -24    2    4    4    0    0  0.32892157130E+03 -0.18323747782E+03 -0.76040184530E+03  0.85203669389E+03  0.77396305136E+02 0.  0.
         24    2    4    4    0    0 -0.34392527283E+03 -0.14389629623E+03 -0.33078976151E+04  0.33298028370E+04  0.80059756119E+02 0.  0.
         11    1    3    3    0    0 -0.82481320954E-02  0.10307085168E+03  0.35063705516E+02  0.10887177770E+03  0.00000000000E+00 0. -1.
        -11    1    3    3    0    0  0.15011949664E+02  0.22406292237E+03 -0.54777999940E+02  0.23114969411E+03  0.00000000000E+00 0.  1.
          2    1    6    6  502    0 -0.25790266544E+03 -0.13131579491E+03 -0.22937542427E+04  0.23119399103E+04  0.00000000000E+00 0. -1.
          1    1    5    5  503    0  0.19415424910E+03 -0.64734496431E+02 -0.42104517089E+03  0.46815111172E+03  0.00000000000E+00 0. -1.
         -2    1    5    5    0  503  0.13476732219E+03 -0.11850298139E+03 -0.33935667441E+03  0.38388558217E+03  0.00000000000E+00 0.  1.
         -1    1    6    6    0  502 -0.86022607391E+02 -0.12580501320E+02 -0.10141433723E+04  0.10178629267E+04  0.00000000000E+00 0.  1.
<mgrwt>
<rscale>  0 0.19327107E+04</rscale>
<asrwt>0</asrwt>
<pdfrwt beam="1">  1        2 0.66229803E+00 0.19327107E+04</pdfrwt>
<pdfrwt beam="2">  1       -2 0.33372867E-01 0.19327107E+04</pdfrwt>
<totfact> 0.14945296E+00</totfact>
</mgrwt>
</event>
<event>
12    1  0.1549527E-007  0.2812283E+04  0.7818608E-02  0.8299465E-01
         -2   -1    0    0    0  501 -0.00000000000E+00  0.00000000000E+00  0.23008228220E+04  0.23008228220E+04  0.00000000000E+00 0.  1.
          2   -1    0    0  501    0  0.00000000000E+00 -0.00000000000E+00 -0.85935925071E+03  0.85935925071E+03  0.00000000000E+00 0. -1.
         23    2    1    2    0    0  0.12308176057E+04  0.83356125978E+02  0.92849600516E+03  0.15466694665E+04  0.90671851849E+02 0.  0.
        254    2    1    2    0    0 -0.12308176057E+04 -0.83356125978E+02  0.51296756612E+03  0.16135126062E+04  0.90466954435E+03 0.  0.
        -24    2    4    4    0    0 -0.57213812315E+03  0.16656013882E+03 -0.17420506577E+03  0.62617675162E+03  0.81643171924E+02 0.  0.
         24    2    4    4    0    0 -0.65867948251E+03 -0.24991626479E+03  0.68717263189E+03  0.98733585463E+03  0.79429614899E+02 0.  0.
         13    1    3    3    0    0  0.33531242005E+03  0.63275562421E+02  0.25788132059E+03  0.42771601717E+03  0.00000000000E+00 0. -1.
        -13    1    3    3    0    0  0.89550518562E+03  0.20080563557E+02  0.67061468457E+03  0.11189534493E+04  0.00000000000E+00 0.  1.
          2    1    6    6  502    0 -0.32058491159E+03 -0.79310333868E+02  0.32280592719E+03  0.46181000555E+03  0.00000000000E+00 0. -1.
          1    1    5    5  503    0 -0.47823611874E+03  0.10670688300E+03 -0.13737891436E+03  0.50889007679E+03  0.00000000000E+00 0. -1.
         -2    1    5    5    0  503 -0.93902004413E+02  0.59853255815E+02 -0.36826151406E+02  0.11728667483E+03  0.00000000000E+00 0.  1.
         -1    1    6    6    0  502 -0.33809457092E+03 -0.17060593093E+03  0.36436670470E+03  0.52552584908E+03  0.00000000000E+00 0.  1.
<mgrwt>
<rscale>  0 0.28122826E+04</rscale>
<asrwt>0</asrwt>
<pdfrwt beam="1">  1        2 0.13220912E+00 0.28122826E+04</pdfrwt>
<pdfrwt beam="2">  1       -2 0.35397274E+00 0.28122826E+04</pdfrwt>
<totfact> 0.39908080E-01</totfact>
</mgrwt>
</event>
<event>
12    1  0.1549527E-007  0.1193432E+04  0.7818608E-02  0.9118625E-01
         -1   -1    0    0    0  501 -0.00000000000E+00  0.00000000000E+00  0.78539725945E+03  0.78539725945E+03  0.00000000000E+00 0.  1.
          1   -1    0    0  501    0  0.00000000000E+00 -0.00000000000E+00 -0.45336262383E+03  0.45336262383E+03  0.00000000000E+00 0. -1.
         23    2    1    2    0    0  0.18723524656E+03  0.16842070531E+03  0.70913924457E+02  0.27478216309E+03  0.83987385585E+02 0.  0.
        254    2    1    2    0    0 -0.18723524656E+03 -0.16842070531E+03  0.26112071117E+03  0.96397772019E+03  0.89311054618E+03 0.  0.
        -24    2    4    4    0    0  0.34338909929E+02  0.21781152252E+03 -0.20722792719E+03  0.31294276814E+03  0.79804399912E+02 0.  0.
         24    2    4    4    0    0 -0.22157415649E+03 -0.38623222783E+03  0.46834863835E+03  0.65103495205E+03  0.78902605228E+02 0.  0.
         13    1    3    3    0    0  0.10589107929E+03  0.59521324718E+02  0.67163132050E+02  0.13880416087E+03  0.00000000000E+00 0.  1.
        -13    1    3    3    0    0  0.81344167272E+02  0.10889938059E+03  0.37507924074E+01  0.13597800221E+03  0.00000000000E+00 0. -1.
          2    1    6    6  502    0 -0.20440212416E+03 -0.38359527615E+03  0.45374525267E+03  0.62833933393E+03  0.00000000000E+00 0. -1.
          3    1    5    5  503    0  0.38304291398E+02  0.21627263231E+03 -0.17607876789E+03  0.28150453412E+03  0.00000000000E+00 0. -1.
         -4    1    5    5    0  503 -0.39653814692E+01  0.15388902053E+01 -0.31149159297E+02  0.31438234018E+02  0.00000000000E+00 0.  1.
         -1    1    6    6    0  502 -0.17172032330E+02 -0.26369516766E+01  0.14603385684E+02  0.22695618122E+02  0.00000000000E+00 0.  1.
<mgrwt>
<rscale>  0 0.11934316E+04</rscale>
<asrwt>0</asrwt>
<pdfrwt beam="1">  1        1 0.69748096E-01 0.11934316E+04</pdfrwt>
<pdfrwt beam="2">  1       -1 0.12083035E+00 0.11934316E+04</pdfrwt>
<totfact> 0.30561954E+01</totfact>
</mgrwt>
</event>
<event>
12    1  0.1549527E-007  0.1473266E+04  0.7818608E-02  0.8902428E-01
         -1   -1    0    0    0  501 -0.00000000000E+00  0.00000000000E+00  0.74693342967E+03  0.74693342967E+03  0.00000000000E+00 0.  1.
          1   -1    0    0  501    0  0.00000000000E+00 -0.00000000000E+00 -0.72647497847E+03  0.72647497847E+03  0.00000000000E+00 0. -1.
         23    2    1    2    0    0  0.42157453567E+03  0.86423692510E+02  0.15411398998E+03  0.46642768985E+03  0.92787521796E+02 0.  0.
        254    2    1    2    0    0 -0.42157453567E+03 -0.86423692510E+02 -0.13365553878E+03  0.10069807183E+04  0.90052885585E+03 0.  0.
        -24    2    4    4    0    0  0.15955792320E+03 -0.21191208381E+03  0.17849548947E+03  0.33104145541E+03  0.85804098494E+02 0.  0.
         24    2    4    4    0    0 -0.58113245887E+03  0.12548839130E+03 -0.31215102825E+03  0.67593926289E+03  0.77416739668E+02 0.  0.
         11    1    3    3    0    0  0.12278431134E+03  0.10114156727E+02  0.35437160377E+01  0.12325113063E+03  0.00000000000E+00 0. -1.
        -11    1    3    3    0    0  0.29879022433E+03  0.76309535783E+02  0.15057027394E+03  0.34317655923E+03  0.00000000000E+00 0.  1.
          4    1    6    6  502    0 -0.46927690838E+03  0.96996689288E+02 -0.21563983567E+03  0.52548045939E+03  0.00000000000E+00 0. -1.
          3    1    5    5  503    0  0.13617326704E+03 -0.11511009207E+03  0.12713751575E+03  0.21899187168E+03  0.00000000000E+00 0. -1.
         -4    1    5    5    0  503  0.23384656161E+02 -0.96801991742E+02  0.51357973719E+02  0.11204958373E+03  0.00000000000E+00 0.  1.
         -3    1    6    6    0  502 -0.11185555048E+03  0.28491702010E+02 -0.96511192577E+02  0.15045880350E+03  0.00000000000E+00 0.  1.
<mgrwt>
<rscale>  0 0.14732664E+04</rscale>
<asrwt>0</asrwt>
<pdfrwt beam="1">  1        1 0.11176538E+00 0.14732664E+04</pdfrwt>
<pdfrwt beam="2">  1       -1 0.11491284E+00 0.14732664E+04</pdfrwt>
<totfact> 0.17162657E+01</totfact>
</mgrwt>
</event>
<event>
12    1  0.1549527E-007  0.4290879E+04  0.7818608E-02  0.7948307E-01
          1   -1    0    0  501    0  0.00000000000E+00  0.00000000000E+00  0.27163927116E+04  0.27163927116E+04  0.00000000000E+00 0. -1.
         -1   -1    0    0    0  501 -0.00000000000E+00 -0.00000000000E+00 -0.16944939588E+04  0.16944939588E+04  0.00000000000E+00 0.  1.
         23    2    1    2    0    0 -0.19681565292E+04  0.16184471298E+03  0.10523316556E+04  0.22392738739E+04  0.84331101608E+02 0.  0.
        254    2    1    2    0    0  0.19681565292E+04 -0.16184471298E+03 -0.30432902814E+02  0.21716127965E+04  0.90285222602E+03 0.  0.
        -24    2    4    4    0    0  0.11275281693E+04 -0.39447004941E+03 -0.33690782945E+03  0.12436989460E+04  0.79710666107E+02 0.  0.
         24    2    4    4    0    0  0.84062835989E+03  0.23262533643E+03  0.30647492663E+03  0.92791385054E+03  0.79540221192E+02 0.  0.
         11    1    3    3    0    0 -0.51053347521E+03  0.71834239661E+02  0.29970965826E+03  0.59634760547E+03  0.00000000000E+00 0.  1.
        -11    1    3    3    0    0 -0.14576230539E+04  0.90010473321E+02  0.75262199733E+03  0.16429262685E+04  0.00000000000E+00 0. -1.
          2    1    6    6  502    0  0.88845716189E+02  0.49930096636E+02  0.43040789340E+02  0.11063039990E+03  0.00000000000E+00 0. -1.
          1    1    5    5  503    0  0.69540111630E+03 -0.21990144652E+03 -0.17219828804E+03  0.74939416140E+03  0.00000000000E+00 0. -1.
         -2    1    5    5    0  503  0.43212705297E+03 -0.17456860288E+03 -0.16470954140E+03  0.49430478457E+03  0.00000000000E+00 0.  1.
         -1    1    6    6    0  502  0.75178264370E+03  0.18269523979E+03  0.26343413729E+03  0.81728345064E+03  0.00000000000E+00 0.  1.
<mgrwt>
<rscale>  0 0.42908792E+04</rscale>
<asrwt>0</asrwt>
<pdfrwt beam="1">  1        1 0.41790657E+00 0.42908792E+04</pdfrwt>
<pdfrwt beam="2">  1       -1 0.26069138E+00 0.42908792E+04</pdfrwt>
<totfact> 0.43367906E-02</totfact>
</mgrwt>
</event>
<event>
12    1  0.1549527E-007  0.2286355E+04  0.7818608E-02  0.8483320E-01
          1   -1    0    0  501    0  0.00000000000E+00  0.00000000000E+00  0.71114796414E+03  0.71114796414E+03  0.00000000000E+00 0. -1.
         -1   -1    0    0    0  501 -0.00000000000E+00 -0.00000000000E+00 -0.18376699268E+04  0.18376699268E+04  0.00000000000E+00 0.  1.
         23    2    1    2    0    0 -0.35247580427E+03 -0.47786328615E+02  0.51023525377E+03  0.62881376709E+03  0.92433834186E+02 0.  0.
        254    2    1    2    0    0  0.35247580427E+03  0.47786328615E+02 -0.16367572164E+04  0.19200041239E+04  0.93857281245E+03 0.  0.
        -24    2    4    4    0    0  0.50736377809E+03  0.28771794972E+03 -0.14607744427E+04  0.15750138311E+04  0.81283293615E+02 0.  0.
         24    2    4    4    0    0 -0.15488797382E+03 -0.23993162110E+03 -0.17598277371E+03  0.34499029273E+03  0.80566110730E+02 0.  0.
         13    1    3    3    0    0 -0.26904467777E+03  0.41297586156E+01  0.38216945889E+03  0.46739232861E+03  0.00000000000E+00 0. -1.
        -13    1    3    3    0    0 -0.83431126507E+02 -0.51916087231E+02  0.12806579488E+03  0.16142143848E+03  0.00000000000E+00 0.  1.
          2    1    6    6  502    0 -0.29411470223E+02 -0.10227143927E+03 -0.91983561291E+02  0.14066078849E+03  0.00000000000E+00 0. -1.
          1    1    5    5  503    0  0.96484585808E+02  0.49770700179E+02 -0.36475213771E+03  0.38056605190E+03  0.00000000000E+00 0. -1.
         -4    1    5    5    0  503  0.41087919228E+03  0.23794724954E+03 -0.10960223050E+04  0.11944477792E+04  0.00000000000E+00 0.  1.
         -1    1    6    6    0  502 -0.12547650359E+03 -0.13766018183E+03 -0.83999212422E+02  0.20432950424E+03  0.00000000000E+00 0.  1.
<mgrwt>
<rscale>  0 0.22863554E+04</rscale>
<asrwt>0</asrwt>
<pdfrwt beam="1">  1        1 0.10940738E+00 0.22863554E+04</pdfrwt>
<pdfrwt beam="2">  1       -1 0.28271845E+00 0.22863554E+04</pdfrwt>
<totfact> 0.10287211E+00</totfact>
</mgrwt>
</event>
<event>
12    1  0.1549527E-007  0.1236238E+04  0.7818608E-02  0.9081715E-01
         -2   -1    0    0    0  501 -0.00000000000E+00  0.00000000000E+00  0.50659367133E+03  0.50659367133E+03  0.00000000000E+00 0.  1.
          2   -1    0    0  501    0  0.00000000000E+00 -0.00000000000E+00 -0.75419683620E+03  0.75419683620E+03  0.00000000000E+00 0. -1.
         23    2    1    2    0    0  0.26047470002E+02 -0.32093474231E+02 -0.36077461331E+03  0.37416913884E+03  0.90198453794E+02 0.  0.
        254    2    1    2    0    0 -0.26047470002E+02  0.32093474231E+02  0.11317144844E+03  0.88662136869E+03  0.87839695633E+03 0.  0.
        -24    2    4    4    0    0 -0.16173260213E+02  0.44695141576E+03  0.20421330934E+02  0.45389870919E+03  0.74698494300E+02 0.  0.
         24    2    4    4    0    0 -0.98742097890E+01 -0.41485794153E+03  0.92750117505E+02  0.43272265949E+03  0.80260227204E+02 0.  0.
         13    1    3    3    0    0 -0.60956338305E+01 -0.58144746517E+01  0.22968078271E+01  0.87315630598E+01  0.00000000000E+00 0.  1.
        -13    1    3    3    0    0  0.32143103833E+02 -0.26278999579E+02 -0.36307142114E+03  0.36543757578E+03  0.00000000000E+00 0. -1.
          4    1    6    6  502    0  0.34879925665E+02 -0.15409202897E+03  0.30201801859E+02  0.16085120901E+03  0.00000000000E+00 0. -1.
          1    1    5    5  503    0 -0.42889431819E+02  0.18961321947E+03  0.39860000174E+00  0.19440379431E+03  0.00000000000E+00 0. -1.
         -4    1    5    5    0  503  0.26716171605E+02  0.25733819629E+03  0.20022730933E+02  0.25949491488E+03  0.00000000000E+00 0.  1.
         -3    1    6    6    0  502 -0.44754135454E+02 -0.26076591257E+03  0.62548315646E+02  0.27187145048E+03  0.00000000000E+00 0.  1.
<mgrwt>
<rscale>  0 0.12362384E+04</rscale>
<asrwt>0</asrwt>
<pdfrwt beam="1">  1        2 0.11603028E+00 0.12362384E+04</pdfrwt>
<pdfrwt beam="2">  1       -2 0.77937488E-01 0.12362384E+04</pdfrwt>
<totfact> 0.53742993E+01</totfact>
</mgrwt>
</event>
<event>
12    1  0.1549527E-007  0.1482882E+04  0.7818608E-02  0.8895916E-01
          1   -1    0    0  501    0  0.00000000000E+00  0.00000000000E+00  0.95588339499E+03  0.95588339499E+03  0.00000000000E+00 0. -1.
         -1   -1    0    0    0  501 -0.00000000000E+00 -0.00000000000E+00 -0.57510674933E+03  0.57510674933E+03  0.00000000000E+00 0.  1.
         23    2    1    2    0    0 -0.55459198816E+02  0.10991115171E+03  0.58302331390E+03  0.60267344811E+03  0.90238110030E+02 0.  0.
        254    2    1    2    0    0  0.55459198816E+02 -0.10991115171E+03 -0.20224666824E+03  0.92831669620E+03  0.89761461086E+03 0.  0.
        -24    2    4    4    0    0  0.16042981660E+02 -0.29358815689E+03  0.27419205430E+03  0.40970608463E+03  0.78907604293E+02 0.  0.
         24    2    4    4    0    0  0.39416217156E+02  0.18367700518E+03 -0.47643872254E+03  0.51861061157E+03  0.81683717400E+02 0.  0.
         11    1    3    3    0    0 -0.71541239790E+02  0.71822941204E+02  0.49696366127E+03  0.50719775679E+03  0.00000000000E+00 0. -1.
        -11    1    3    3    0    0  0.16082040975E+02  0.38088210505E+02  0.86059652632E+02  0.95475691318E+02  0.00000000000E+00 0.  1.
          2    1    6    6  502    0  0.38135291365E+02  0.18872240745E+03 -0.47590595383E+03  0.51337795474E+03  0.00000000000E+00 0. -1.
          3    1    5    5  503    0  0.32943874867E+00 -0.10397873803E+03  0.14994819441E+03  0.18247231982E+03  0.00000000000E+00 0. -1.
         -4    1    5    5    0  503  0.15713542911E+02 -0.18960941886E+03  0.12424385989E+03  0.22723376481E+03  0.00000000000E+00 0.  1.
         -1    1    6    6    0  502  0.12809257911E+01 -0.50454022730E+01 -0.53276871025E+00  0.52326568278E+01  0.00000000000E+00 0.  1.
<mgrwt>
<rscale>  0 0.14828823E+04</rscale>
<asrwt>0</asrwt>
<pdfrwt beam="1">  1        1 0.14705898E+00 0.14828823E+04</pdfrwt>
<pdfrwt beam="2">  1       -1 0.88477961E-01 0.14828823E+04</pdfrwt>
<totfact> 0.19926190E+01</totfact>
</mgrwt>
</event>
<event>
12    1  0.1549527E-007  0.1551024E+04  0.7818608E-02  0.8851214E-01
          2   -1    0    0  501    0  0.00000000000E+00  0.00000000000E+00  0.83423928472E+03  0.83423928472E+03  0.00000000000E+00 0. -1.
         -2   -1    0    0    0  501 -0.00000000000E+00 -0.00000000000E+00 -0.72091879696E+03  0.72091879696E+03  0.00000000000E+00 0.  1.
         23    2    1    2    0    0  0.45159629294E+03 -0.15566994791E+03  0.20476055207E+03  0.52940193711E+03  0.10083244943E+03 0.  0.
        254    2    1    2    0    0 -0.45159629294E+03  0.15566994791E+03 -0.91440064312E+02  0.10257561446E+04  0.90312902638E+03 0.  0.
        -24    2    4    4    0    0 -0.57123035507E+03 -0.17606186443E+03  0.10853988878E+03  0.61277166081E+03  0.80039378895E+02 0.  0.
         24    2    4    4    0    0  0.11963406213E+03  0.33173181234E+03 -0.19997995309E+03  0.41298448376E+03  0.78777522490E+02 0.  0.
         11    1    3    3    0    0  0.19867375241E+03 -0.17593802767E+02  0.96608377836E+02  0.22161674228E+03  0.00000000000E+00 0. -1.
        -11    1    3    3    0    0  0.25292254053E+03 -0.13807614514E+03  0.10815217423E+03  0.30778519483E+03  0.00000000000E+00 0.  1.
          2    1    6    6  502    0  0.17097105569E+02  0.10834087192E+03 -0.97230224428E+02  0.14657343582E+03  0.00000000000E+00 0. -1.
          1    1    5    5  503    0 -0.82317216360E+01  0.47554026492E+01  0.90738460941E+01  0.13141909237E+02  0.00000000000E+00 0. -1.
         -2    1    5    5    0  503 -0.56299863343E+03 -0.18081726708E+03  0.99466042688E+02  0.59962975157E+03  0.00000000000E+00 0.  1.
         -1    1    6    6    0  502  0.10253695656E+03  0.22339094042E+03 -0.10274972867E+03  0.26641104794E+03  0.00000000000E+00 0.  1.
<mgrwt>
<rscale>  0 0.15510239E+04</rscale>
<asrwt>0</asrwt>
<pdfrwt beam="1">  1        2 0.12834451E+00 0.15510239E+04</pdfrwt>
<pdfrwt beam="2">  1       -2 0.11091058E+00 0.15510239E+04</pdfrwt>
<totfact> 0.20183450E+01</totfact>
</mgrwt>
</event>
<event>
12    1  0.1549527E-007  0.2667276E+04  0.7818608E-02  0.8345702E-01
          2   -1    0    0  501    0  0.00000000000E+00  0.00000000000E+00  0.21628646849E+04  0.21628646849E+04  0.00000000000E+00 0. -1.
         -2   -1    0    0    0  501 -0.00000000000E+00 -0.00000000000E+00 -0.82233064512E+03  0.82233064512E+03  0.00000000000E+00 0.  1.
         23    2    1    2    0    0  0.66562484000E+03  0.64115832893E+03  0.14092823245E+04  0.16878678089E+04  0.93169950319E+02 0.  0.
        254    2    1    2    0    0 -0.66562484000E+03 -0.64115832893E+03 -0.68748284759E+02  0.12973275211E+04  0.90785017489E+03 0.  0.
        -24    2    4    4    0    0  0.18486309706E+03  0.35886891501E+02 -0.31146197860E+02  0.20683521093E+03  0.79677381997E+02 0.  0.
         24    2    4    4    0    0 -0.85048793706E+03 -0.67704522043E+03 -0.37602086899E+02  0.10904923102E+04  0.77714864020E+02 0.  0.
         11    1    3    3    0    0  0.32375920476E+03  0.34392624718E+03  0.64575564674E+03  0.80006602319E+03  0.00000000000E+00 0. -1.
        -11    1    3    3    0    0  0.34186563524E+03  0.29723208175E+03  0.76352667778E+03  0.88780178568E+03  0.00000000000E+00 0.  1.
          2    1    6    6  502    0 -0.16216169333E+03 -0.95996517802E+02 -0.20379193369E+02  0.18954434240E+03  0.00000000000E+00 0. -1.
          1    1    5    5  503    0  0.74006086378E+02 -0.21592756046E+02 -0.27692662324E+02  0.81914781824E+02  0.00000000000E+00 0. -1.
         -2    1    5    5    0  503  0.11085701068E+03  0.57479647548E+02 -0.34535355361E+01  0.12492042910E+03  0.00000000000E+00 0.  1.
         -1    1    6    6    0  502 -0.68832624373E+03 -0.58104870263E+03 -0.17222893530E+02  0.90094796781E+03  0.00000000000E+00 0.  1.
<mgrwt>
<rscale>  0 0.26672757E+04</rscale>
<asrwt>0</asrwt>
<pdfrwt beam="1">  1        2 0.33274841E+00 0.26672757E+04</pdfrwt>
<pdfrwt beam="2">  1       -2 0.12651241E+00 0.26672757E+04</pdfrwt>
<totfact> 0.22170210E+00</totfact>
</mgrwt>
</event>
<event>
12    1  0.1549527E-007  0.1340436E+04  0.7818608E-02  0.8998100E-01
         -2   -1    0    0    0  501 -0.00000000000E+00  0.00000000000E+00  0.27277770019E+03  0.27277770019E+03  0.00000000000E+00 0. -1.
          2   -1    0    0  501    0  0.00000000000E+00 -0.00000000000E+00 -0.16467323398E+04  0.16467323398E+04  0.00000000000E+00 0.  1.
         23    2    1    2    0    0  0.32943399849E+03 -0.29693746645E+02 -0.55547844070E+03  0.65285386575E+03  0.90848192036E+02 0.  0.
        254    2    1    2    0    0 -0.32943399849E+03  0.29693746645E+02 -0.81847619896E+03  0.12666561743E+04  0.90835350918E+03 0.  0.
        -24    2    4    4    0    0 -0.29212983077E+03  0.43322949227E+03 -0.59913019974E+03  0.79901634834E+03  0.80265171055E+02 0.  0.
         24    2    4    4    0    0 -0.37304167726E+02 -0.40353574562E+03 -0.21934599922E+03  0.46763982594E+03  0.79634417871E+02 0.  0.
         13    1    3    3    0    0  0.30695457533E+02 -0.80137197575E+01 -0.12132049312E+03  0.12539973233E+03  0.00000000000E+00 0.  1.
        -13    1    3    3    0    0  0.29873854096E+03 -0.21680026888E+02 -0.43415794758E+03  0.52745413342E+03  0.00000000000E+00 0. -1.
          4    1    6    6  502    0 -0.26916417761E+02 -0.11903353932E+03 -0.29812080510E+02  0.12562737430E+03  0.00000000000E+00 0. -1.
          3    1    5    5  503    0 -0.65975789735E+02  0.49377537845E+02 -0.78911796071E+02  0.11409652770E+03  0.00000000000E+00 0. -1.
         -4    1    5    5    0  503 -0.22615404103E+03  0.38385195442E+03 -0.52021840367E+03  0.68491982064E+03  0.00000000000E+00 0.  1.
         -3    1    6    6    0  502 -0.10387749965E+02 -0.28450220630E+03 -0.18953391871E+03  0.34201245165E+03  0.00000000000E+00 0.  1.
<mgrwt>
<rscale>  0 0.13404355E+04</rscale>
<asrwt>0</asrwt>
<pdfrwt beam="1">  1        2 0.25334344E+00 0.13404355E+04</pdfrwt>
<pdfrwt beam="2">  1       -2 0.41965800E-01 0.13404355E+04</pdfrwt>
<totfact> 0.55219413E+01</totfact>
</mgrwt>
</event>
<event>
12    1  0.1549527E-007  0.2122030E+04  0.7818608E-02  0.8551601E-01
         -2   -1    0    0    0  501 -0.00000000000E+00  0.00000000000E+00  0.76939431550E+03  0.76939431550E+03  0.00000000000E+00 0.  1.
          2   -1    0    0  501    0  0.00000000000E+00 -0.00000000000E+00 -0.14631669420E+04  0.14631669420E+04  0.00000000000E+00 0. -1.
         23    2    1    2    0    0  0.68495931310E+02 -0.30381077544E+03 -0.11439406795E+04  0.11902399992E+04  0.10525349194E+03 0.  0.
        254    2    1    2    0    0 -0.68495931310E+02  0.30381077544E+03  0.45016805300E+03  0.10423212583E+04  0.88701164011E+03 0.  0.
        -24    2    4    4    0    0 -0.46340133866E+02  0.28891866081E+03  0.70840759993E+03  0.77058262154E+03  0.79591760933E+02 0.  0.
         24    2    4    4    0    0 -0.22155797444E+02  0.14892114626E+02 -0.25823954693E+03  0.27173863677E+03  0.80259383733E+02 0.  0.
         13    1    3    3    0    0  0.95046965221E+02 -0.25497402387E+03 -0.91190654074E+03  0.95164027736E+03  0.00000000000E+00 0. -1.
        -13    1    3    3    0    0 -0.26551033911E+02 -0.48836751566E+02 -0.23203413878E+03  0.23859972184E+03  0.00000000000E+00 0.  1.
          4    1    6    6  502    0  0.10135924621E+02  0.14154474036E+02 -0.75486617726E+01  0.18975468314E+02  0.00000000000E+00 0. -1.
          1    1    5    5  503    0 -0.45660361694E+01  0.52809439253E+02  0.22260832992E+03  0.22883215270E+03  0.00000000000E+00 0. -1.
         -2    1    5    5    0  503 -0.41774097697E+02  0.23610922156E+03  0.48579927001E+03  0.54175046883E+03  0.00000000000E+00 0.  1.
         -3    1    6    6    0  502 -0.32291722065E+02  0.73764058944E+00 -0.25069088516E+03  0.25276316845E+03  0.00000000000E+00 0.  1.
<mgrwt>
<rscale>  0 0.21220295E+04</rscale>
<asrwt>0</asrwt>
<pdfrwt beam="1">  1        2 0.22510260E+00 0.21220295E+04</pdfrwt>
<pdfrwt beam="2">  1       -2 0.11836836E+00 0.21220295E+04</pdfrwt>
<totfact> 0.67318540E+00</totfact>
</mgrwt>
</event>
<event>
12    1  0.2058717E-007  0.2048963E+04  0.7818608E-02  0.8584065E-01
          2   -1    0    0  501    0  0.00000000000E+00  0.00000000000E+00  0.84616175986E+03  0.84616175986E+03  0.00000000000E+00 0. -1.
         -2   -1    0    0    0  501 -0.00000000000E+00 -0.00000000000E+00 -0.12403802716E+04  0.12403802716E+04  0.00000000000E+00 0.  1.
         23    2    1    2    0    0  0.26979760550E+03 -0.68254981935E+03 -0.54848754269E+03  0.92080548259E+03  0.91537688722E+02 0.  0.
        254    2    1    2    0    0 -0.26979760550E+03  0.68254981935E+03  0.15426903095E+03  0.11657365489E+04  0.89245602897E+03 0.  0.
        -24    2    4    4    0    0 -0.23876608442E+02  0.75514708878E+03 -0.13554253359E+03  0.77163612503E+03  0.78951332621E+02 0.  0.
         24    2    4    4    0    0 -0.24592099706E+03 -0.72597269432E+02  0.28981156455E+03  0.39410042384E+03  0.74678650219E+02 0.  0.
         13    1    3    3    0    0  0.25148280539E+03 -0.66436118078E+03 -0.51007499636E+03  0.87452608986E+03  0.00000000000E+00 0.  1.
        -13    1    3    3    0    0  0.18314800109E+02 -0.18188638571E+02 -0.38412546331E+02  0.46279392733E+02  0.00000000000E+00 0. -1.
          2    1    6    6  502    0 -0.21863962764E+02 -0.30946325042E+02  0.28764927240E+02  0.47572354792E+02  0.00000000000E+00 0. -1.
          3    1    5    5  503    0 -0.32899050496E+02  0.13749298215E+03 -0.13930366842E+02  0.14205887084E+03  0.00000000000E+00 0. -1.
         -4    1    5    5    0  503  0.90224420542E+01  0.61765410663E+03 -0.12161216675E+03  0.62957725419E+03  0.00000000000E+00 0.  1.
         -1    1    6    6    0  502 -0.22405703429E+03 -0.41650944390E+02  0.26104663731E+03  0.34652806904E+03  0.00000000000E+00 0.  1.
<mgrwt>
<rscale>  0 0.20489630E+04</rscale>
<asrwt>0</asrwt>
<pdfrwt beam="1">  1        2 0.13017873E+00 0.20489630E+04</pdfrwt>
<pdfrwt beam="2">  1       -2 0.19082773E+00 0.20489630E+04</pdfrwt>
<totfact> 0.45204686E+00</totfact>
</mgrwt>
</event>
<event>
12    1  0.1549527E-007  0.1268447E+04  0.7818608E-02  0.9054968E-01
          2   -1    0    0  501    0  0.00000000000E+00  0.00000000000E+00  0.63714768194E+03  0.63714768194E+03  0.00000000000E+00 0. -1.
         -2   -1    0    0    0  501 -0.00000000000E+00 -0.00000000000E+00 -0.63131272962E+03  0.63131272962E+03  0.00000000000E+00 0.  1.
         23    2    1    2    0    0 -0.25080765810E+03  0.16603881573E+03  0.73498438942E+02  0.32323244080E+03  0.92756781787E+02 0.  0.
        254    2    1    2    0    0  0.25080765810E+03 -0.16603881573E+03 -0.67663486625E+02  0.94522797076E+03  0.89353466614E+03 0.  0.
        -24    2    4    4    0    0 -0.31200843404E+03 -0.15899625001E+03 -0.10796879404E+03  0.37490430188E+03  0.79163783724E+02 0.  0.
         24    2    4    4    0    0  0.56281609214E+03 -0.70425657256E+01  0.40305307417E+02  0.57032366887E+03  0.82662072099E+02 0.  0.
         13    1    3    3    0    0 -0.68908910988E+02  0.22351264431E+02  0.54492623937E+02  0.90650223931E+02  0.00000000000E+00 0. -1.
        -13    1    3    3    0    0 -0.18189874711E+03  0.14368755130E+03  0.19005815005E+02  0.23258221687E+03  0.00000000000E+00 0.  1.
          4    1    6    6  502    0  0.45665794587E+03  0.12867176529E+02  0.59251297588E+02  0.46066556201E+03  0.00000000000E+00 0. -1.
          1    1    5    5  503    0 -0.17496119435E+03 -0.12644255640E+03 -0.85871734579E+02  0.23232110192E+03  0.00000000000E+00 0. -1.
         -4    1    5    5    0  503 -0.13704723969E+03 -0.32553693604E+02 -0.22097059462E+02  0.14258319996E+03  0.00000000000E+00 0.  1.
         -3    1    6    6    0  502  0.10615814628E+03 -0.19909742255E+02 -0.18945990171E+02  0.10965810687E+03  0.00000000000E+00 0.  1.
<mgrwt>
<rscale>  0 0.12684470E+04</rscale>
<asrwt>0</asrwt>
<pdfrwt beam="1">  1        2 0.98022721E-01 0.12684470E+04</pdfrwt>
<pdfrwt beam="2">  1       -2 0.97125035E-01 0.12684470E+04</pdfrwt>
<totfact> 0.40070111E+01</totfact>
</mgrwt>
</event>
<event>
12    1  0.1549527E-007  0.1927012E+04  0.7818608E-02  0.8641527E-01
          1   -1    0    0  501    0  0.00000000000E+00  0.00000000000E+00  0.50186143917E+03  0.50186143917E+03  0.00000000000E+00 0. -1.
         -1   -1    0    0    0  501 -0.00000000000E+00 -0.00000000000E+00 -0.18498003921E+04  0.18498003921E+04  0.00000000000E+00 0.  1.
         23    2    1    2    0    0 -0.54011938969E+03  0.16709232718E+03  0.71988962528E+02  0.57726967456E+03  0.91700957030E+02 0.  0.
        254    2    1    2    0    0  0.54011938969E+03 -0.16709232718E+03 -0.14199279155E+04  0.17743921567E+04  0.90145628834E+03 0.  0.
        -24    2    4    4    0    0 -0.22220320380E+03  0.95304349313E+02 -0.36614612697E+03  0.44520345938E+03  0.75405246279E+02 0.  0.
         24    2    4    4    0    0  0.76232259349E+03 -0.26239667649E+03 -0.10537817885E+04  0.13291886973E+04  0.79364872657E+02 0.  0.
         13    1    3    3    0    0 -0.45094275739E+03  0.16186586432E+03  0.86231107768E+02  0.48681180391E+03  0.00000000000E+00 0. -1.
        -13    1    3    3    0    0 -0.89176632303E+02  0.52264628581E+01 -0.14242145240E+02  0.90457870657E+02  0.00000000000E+00 0.  1.
          4    1    6    6  502    0  0.42184750986E+03 -0.17435428355E+03 -0.64094561060E+03  0.78687102724E+03  0.00000000000E+00 0. -1.
          1    1    5    5  503    0 -0.15962874436E+03  0.57625321346E+02 -0.19139301506E+03  0.25579933522E+03  0.00000000000E+00 0. -1.
         -2    1    5    5    0  503 -0.62574459435E+02  0.37679027967E+02 -0.17475311191E+03  0.18940412415E+03  0.00000000000E+00 0.  1.
         -3    1    6    6    0  502  0.34047508363E+03 -0.88042392942E+02 -0.41283617788E+03  0.54231767009E+03  0.00000000000E+00 0.  1.
<mgrwt>
<rscale>  0 0.19270117E+04</rscale>
<asrwt>0</asrwt>
<pdfrwt beam="1">  1        1 0.77209454E-01 0.19270117E+04</pdfrwt>
<pdfrwt beam="2">  1       -1 0.28458467E+00 0.19270117E+04</pdfrwt>
<totfact> 0.17118318E+00</totfact>
</mgrwt>
</event>
<event>
12    1  0.1549527E-007  0.1468095E+04  0.7818608E-02  0.8905951E-01
         -1   -1    0    0    0  501 -0.00000000000E+00  0.00000000000E+00  0.82209123198E+03  0.82209123198E+03  0.00000000000E+00 0.  1.
          1   -1    0    0  501    0  0.00000000000E+00 -0.00000000000E+00 -0.65543277063E+03  0.65543277063E+03  0.00000000000E+00 0. -1.
         23    2    1    2    0    0 -0.99712462624E+02 -0.21021328442E+03  0.44406910203E+03  0.50894891361E+03  0.87746391023E+02 0.  0.
        254    2    1    2    0    0  0.99712462624E+02  0.21021328442E+03 -0.27741064069E+03  0.96857508900E+03  0.89835897018E+03 0.  0.
        -24    2    4    4    0    0  0.19471104281E+03 -0.11772247006E+03  0.24209106102E+03  0.34169761883E+03  0.79863700990E+02 0.  0.
         24    2    4    4    0    0 -0.94998580185E+02  0.32793575448E+03 -0.51950170171E+03  0.62687747017E+03  0.80788335935E+02 0.  0.
         11    1    3    3    0    0 -0.10269635963E+03 -0.13510187532E+03  0.26424292212E+03  0.31404359711E+03  0.00000000000E+00 0. -1.
        -11    1    3    3    0    0  0.29838970054E+01 -0.75111409100E+02  0.17982617991E+03  0.19490531650E+03  0.00000000000E+00 0.  1.
          2    1    6    6  502    0 -0.11168613708E+02  0.16614269027E+01 -0.61320610267E+01  0.12849141759E+02  0.00000000000E+00 0. -1.
          3    1    5    5  503    0  0.11225531121E+03 -0.68369732149E+02  0.81814813819E+02  0.15482034404E+03  0.00000000000E+00 0. -1.
         -4    1    5    5    0  503  0.82455731596E+02 -0.49352737909E+02  0.16027624720E+03  0.18687727478E+03  0.00000000000E+00 0.  1.
         -1    1    6    6    0  502 -0.83829966478E+02  0.32627432757E+03 -0.51336964069E+03  0.61402832841E+03  0.00000000000E+00 0.  1.
<mgrwt>
<rscale>  0 0.14680947E+04</rscale>
<asrwt>0</asrwt>
<pdfrwt beam="1">  1        1 0.10083581E+00 0.14680947E+04</pdfrwt>
<pdfrwt beam="2">  1       -1 0.12647557E+00 0.14680947E+04</pdfrwt>
<totfact> 0.15859705E+01</totfact>
</mgrwt>
</event>
<event>
12    1  0.1549527E-007  0.1940985E+04  0.7818608E-02  0.8634720E-01
          1   -1    0    0  501    0  0.00000000000E+00  0.00000000000E+00  0.12951153182E+04  0.12951153182E+04  0.00000000000E+00 0. -1.
         -1   -1    0    0    0  501 -0.00000000000E+00 -0.00000000000E+00 -0.72723718282E+03  0.72723718282E+03  0.00000000000E+00 0.  1.
         23    2    1    2    0    0  0.42938130320E+03 -0.17234271615E+03 -0.34048026643E+03  0.58186817172E+03  0.92592883569E+02 0.  0.
        254    2    1    2    0    0 -0.42938130320E+03  0.17234271615E+03  0.90835840178E+03  0.14404843293E+04  0.10177474153E+04 0.  0.
        -24    2    4    4    0    0  0.19817565514E+03 -0.26865119249E+02 -0.97088657613E+02  0.23600896915E+03  0.79238255672E+02 0.  0.
         24    2    4    4    0    0 -0.62755695834E+03  0.19920783540E+03  0.10054470594E+04  0.12044753601E+04  0.79533679867E+02 0.  0.
         13    1    3    3    0    0  0.27630475659E+03 -0.97594884893E+02 -0.26668484785E+03  0.39621949491E+03  0.00000000000E+00 0.  1.
        -13    1    3    3    0    0  0.15307654661E+03 -0.74747831262E+02 -0.73795418579E+02  0.18564867681E+03  0.00000000000E+00 0. -1.
          2    1    6    6  502    0 -0.45739424293E+03  0.12582848741E+03  0.77634867036E+03  0.90981292565E+03  0.00000000000E+00 0. -1.
          1    1    5    5  503    0  0.19777388162E+03 -0.15527094107E+02 -0.76733203513E+02  0.21270539115E+03  0.00000000000E+00 0. -1.
         -2    1    5    5    0  503  0.40177351590E+00 -0.11338025142E+02 -0.20355454100E+02  0.23303578002E+02  0.00000000000E+00 0.  1.
         -1    1    6    6    0  502 -0.17016271541E+03  0.73379347990E+02  0.22909838904E+03  0.29466243447E+03  0.00000000000E+00 0.  1.
<mgrwt>
<rscale>  0 0.19409853E+04</rscale>
<asrwt>0</asrwt>
<pdfrwt beam="1">  1        1 0.19924851E+00 0.19409853E+04</pdfrwt>
<pdfrwt beam="2">  1       -1 0.11188264E+00 0.19409853E+04</pdfrwt>
<totfact> 0.62326017E+00</totfact>
</mgrwt>
</event>
<event>
12    1  0.1549527E-007  0.1782076E+04  0.7818608E-02  0.8715889E-01
          2   -1    0    0  501    0  0.00000000000E+00  0.00000000000E+00  0.11159367477E+04  0.11159367477E+04  0.00000000000E+00 0. -1.
         -2   -1    0    0    0  501 -0.00000000000E+00 -0.00000000000E+00 -0.71146425706E+03  0.71146425706E+03  0.00000000000E+00 0.  1.
         23    2    1    2    0    0  0.57120317103E+03 -0.77363166777E+02  0.47875258486E+03  0.75540469268E+03  0.95781470309E+02 0.  0.
        254    2    1    2    0    0 -0.57120317103E+03  0.77363166777E+02 -0.74280094227E+02  0.10719963121E+04  0.90077768541E+03 0.  0.
        -24    2    4    4    0    0 -0.67818331500E+03  0.30921559255E+03 -0.20066389498E+03  0.77614257633E+03  0.81144369076E+02 0.  0.
         24    2    4    4    0    0  0.10698014397E+03 -0.23185242577E+03  0.12638380075E+03  0.29585373574E+03  0.79726214761E+02 0.  0.
         11    1    3    3    0    0  0.25962543841E+03 -0.26104575830E+02  0.15666998175E+03  0.30435554921E+03  0.00000000000E+00 0.  1.
        -11    1    3    3    0    0  0.31157773261E+03 -0.51258590947E+02  0.32208260311E+03  0.45104914348E+03  0.00000000000E+00 0. -1.
          2    1    6    6  502    0  0.53763855651E+02 -0.56225501946E+02  0.67869699275E+02  0.10323834231E+03  0.00000000000E+00 0. -1.
          3    1    5    5  503    0 -0.98518207849E+02  0.15893607451E+02 -0.19208459237E+02  0.10162386010E+03  0.00000000000E+00 0. -1.
         -4    1    5    5    0  503 -0.57966510715E+03  0.29332198510E+03 -0.18145543574E+03  0.67451871623E+03  0.00000000000E+00 0.  1.
         -1    1    6    6    0  502  0.53216288323E+02 -0.17562692382E+03  0.58514101474E+02  0.19261539343E+03  0.00000000000E+00 0.  1.
<mgrwt>
<rscale>  0 0.17820764E+04</rscale>
<asrwt>0</asrwt>
<pdfrwt beam="1">  1        2 0.17168258E+00 0.17820764E+04</pdfrwt>
<pdfrwt beam="2">  1       -2 0.10945604E+00 0.17820764E+04</pdfrwt>
<totfact> 0.13392062E+01</totfact>
</mgrwt>
</event>
<event>
12    1  0.1549527E-007  0.1346568E+04  0.7818608E-02  0.8993430E-01
          2   -1    0    0  501    0  0.00000000000E+00  0.00000000000E+00  0.18970378890E+04  0.18970378890E+04  0.00000000000E+00 0. -1.
         -2   -1    0    0    0  501 -0.00000000000E+00 -0.00000000000E+00 -0.23895739662E+03  0.23895739662E+03  0.00000000000E+00 0.  1.
         23    2    1    2    0    0 -0.18558778601E+02  0.18666758859E+03  0.97147264138E+03  0.99385077805E+03  0.93760648332E+02 0.  0.
        254    2    1    2    0    0  0.18558778601E+02 -0.18666758859E+03  0.68660785099E+03  0.11421445076E+04  0.89323822030E+03 0.  0.
        -24    2    4    4    0    0 -0.19052234339E+03 -0.73021763987E+02  0.82688298338E+03  0.85486772222E+03  0.73704904510E+02 0.  0.
         24    2    4    4    0    0  0.20908112199E+03 -0.11364582460E+03 -0.14027513239E+03  0.28727678534E+03  0.78870460898E+02 0.  0.
         13    1    3    3    0    0 -0.33558759127E+01  0.18896146646E+03  0.81505709724E+03  0.83668140260E+03  0.00000000000E+00 0. -1.
        -13    1    3    3    0    0 -0.15202902689E+02 -0.22938778733E+01  0.15641554415E+03  0.15716937544E+03  0.00000000000E+00 0.  1.
          2    1    6    6  502    0 -0.59375889514E+01  0.10878943559E+00 -0.92125340803E+01  0.10960729076E+02  0.00000000000E+00 0. -1.
          3    1    5    5  503    0 -0.37679855573E+02 -0.48222128310E+02  0.20059732336E+03  0.20972465596E+03  0.00000000000E+00 0. -1.
         -4    1    5    5    0  503 -0.15284248782E+03 -0.24799635677E+02  0.62628566001E+03  0.64514306626E+03  0.00000000000E+00 0.  1.
         -1    1    6    6    0  502  0.21501871094E+03 -0.11375461404E+03 -0.13106259831E+03  0.27631605626E+03  0.00000000000E+00 0.  1.
<mgrwt>
<rscale>  0 0.13465678E+04</rscale>
<asrwt>0</asrwt>
<pdfrwt beam="1">  1        2 0.29185197E+00 0.13465678E+04</pdfrwt>
<pdfrwt beam="2">  1       -2 0.36762678E-01 0.13465678E+04</pdfrwt>
<totfact> 0.51923162E+01</totfact>
</mgrwt>
</event>
<event>
12    1  0.1784151E-007  0.1160622E+04  0.7818608E-02  0.9148040E-01
          1   -1    0    0  501    0  0.00000000000E+00  0.00000000000E+00  0.68347599978E+03  0.68347599978E+03  0.00000000000E+00 0. -1.
         -1   -1    0    0    0  501 -0.00000000000E+00 -0.00000000000E+00 -0.49271813161E+03  0.49271813161E+03  0.00000000000E+00 0.  1.
         23    2    1    2    0    0  0.12021033527E+03  0.85486464290E+02  0.27345641316E+03  0.32427899737E+03  0.92843944094E+02 0.  0.
        254    2    1    2    0    0 -0.12021033527E+03 -0.85486464290E+02 -0.82698544981E+02  0.85191513402E+03  0.83496220630E+03 0.  0.
        -24    2    4    4    0    0  0.21646543108E+03 -0.30589434296E+03 -0.19023201246E+03  0.42780376670E+03  0.79995076926E+02 0.  0.
         24    2    4    4    0    0 -0.33667576635E+03  0.22040787867E+03  0.10753346748E+03  0.42411136732E+03  0.79854872332E+02 0.  0.
         11    1    3    3    0    0  0.11127405615E+03  0.78573439512E+02  0.27988952806E+03  0.31127776806E+03  0.00000000000E+00 0. -1.
        -11    1    3    3    0    0  0.89362791192E+01  0.69130247774E+01 -0.64331149077E+01  0.13001229307E+02  0.00000000000E+00 0.  1.
          2    1    6    6  502    0  0.36168980153E+01  0.87995635795E+01  0.19059242025E+01  0.97029282955E+01  0.00000000000E+00 0. -1.
          3    1    5    5  503    0  0.10121593700E+01  0.29699238833E+01  0.31681269807E+01  0.44589172485E+01  0.00000000000E+00 0. -1.
         -4    1    5    5    0  503  0.21545327171E+03 -0.30886426684E+03 -0.19340013944E+03  0.42334484945E+03  0.00000000000E+00 0.  1.
         -1    1    6    6    0  502 -0.34029266437E+03  0.21160831509E+03  0.10562754328E+03  0.41440843903E+03  0.00000000000E+00 0.  1.
<mgrwt>
<rscale>  0 0.11606223E+04</rscale>
<asrwt>0</asrwt>
<pdfrwt beam="1">  1        1 0.10515015E+00 0.11606223E+04</pdfrwt>
<pdfrwt beam="2">  1       -1 0.75802789E-01 0.11606223E+04</pdfrwt>
<totfact> 0.49041306E+01</totfact>
</mgrwt>
</event>
<event>
12    1  0.1549527E-007  0.2056495E+04  0.7818608E-02  0.8580654E-01
         -1   -1    0    0    0  501 -0.00000000000E+00  0.00000000000E+00  0.64078999553E+03  0.64078999553E+03  0.00000000000E+00 0.  1.
          1   -1    0    0  501    0  0.00000000000E+00 -0.00000000000E+00 -0.16499835961E+04  0.16499835961E+04  0.00000000000E+00 0. -1.
         23    2    1    2    0    0 -0.20969109313E+03 -0.60379418759E+03 -0.10017343471E+04  0.11918124714E+04  0.91692362577E+02 0.  0.
        254    2    1    2    0    0  0.20969109313E+03  0.60379418759E+03 -0.74592534633E+01  0.10989611202E+04  0.89393631079E+03 0.  0.
        -24    2    4    4    0    0  0.25105023773E+02 -0.22624331019E+03  0.33792841756E+02  0.24387203957E+03  0.80717519181E+02 0.  0.
         24    2    4    4    0    0  0.18458606936E+03  0.83003749779E+03 -0.41252095220E+02  0.85508908064E+03  0.80257932528E+02 0.  0.
         11    1    3    3    0    0 -0.18997931049E+03 -0.45492639982E+03 -0.81053608660E+03  0.94869326727E+03  0.00000000000E+00 0. -1.
        -11    1    3    3    0    0 -0.19711782640E+02 -0.14886778777E+03 -0.19119826052E+03  0.24311920417E+03  0.00000000000E+00 0.  1.
          2    1    6    6  502    0  0.31430317690E+02  0.49674949203E+02 -0.54155798776E+01  0.59032143395E+02  0.00000000000E+00 0. -1.
          3    1    5    5  503    0 -0.22578869585E+02 -0.13967531006E+03  0.79223279227E+01  0.14171012974E+03  0.00000000000E+00 0. -1.
         -4    1    5    5    0  503  0.47683893358E+02 -0.86568000135E+02  0.25870513834E+02  0.10216190983E+03  0.00000000000E+00 0.  1.
         -1    1    6    6    0  502  0.15315575167E+03  0.78036254858E+03 -0.35836515342E+02  0.79605693724E+03  0.00000000000E+00 0.  1.
<mgrwt>
<rscale>  0 0.20564951E+04</rscale>
<asrwt>0</asrwt>
<pdfrwt beam="1">  1        1 0.25384363E+00 0.20564951E+04</pdfrwt>
<pdfrwt beam="2">  1       -1 0.98583078E-01 0.20564951E+04</pdfrwt>
<totfact> 0.46869228E+00</totfact>
</mgrwt>
</event>
<event>
12    1  0.1549527E-007  0.1265272E+04  0.7818608E-02  0.9057567E-01
         -1   -1    0    0    0  501 -0.00000000000E+00  0.00000000000E+00  0.69223041279E+03  0.69223041279E+03  0.00000000000E+00 0.  1.
          1   -1    0    0  501    0  0.00000000000E+00 -0.00000000000E+00 -0.57817214017E+03  0.57817214017E+03  0.00000000000E+00 0. -1.
         23    2    1    2    0    0 -0.14549874243E+03 -0.45027387112E+02 -0.17331286575E+03  0.24844152157E+03  0.92133004769E+02 0.  0.
        254    2    1    2    0    0  0.14549874243E+03  0.45027387112E+02  0.28737113838E+03  0.10219610314E+04  0.96882652155E+03 0.  0.
        -24    2    4    4    0    0  0.20984774283E+03 -0.25595122284E+03 -0.23197088540E+03  0.41202986310E+03  0.80068800256E+02 0.  0.
         24    2    4    4    0    0 -0.64349000400E+02  0.30097860995E+03  0.51934202378E+03  0.60993116828E+03  0.87011349161E+02 0.  0.
         13    1    3    3    0    0 -0.53988953613E+02 -0.31943948192E+02 -0.13406241881E+03  0.14801336114E+03  0.00000000000E+00 0. -1.
        -13    1    3    3    0    0 -0.91509788814E+02 -0.13083438921E+02 -0.39250446941E+02  0.10042816043E+03  0.00000000000E+00 0.  1.
          4    1    6    6  502    0 -0.32232218732E+02  0.83515246613E+02  0.86572734622E+02  0.12453333177E+03  0.00000000000E+00 0. -1.
          1    1    5    5  503    0  0.45798172269E+01 -0.15534193671E+01  0.59947503338E+01  0.77022638962E+01  0.00000000000E+00 0. -1.
         -2    1    5    5    0  503  0.20526792560E+03 -0.25439780347E+03 -0.23796563573E+03  0.40432759921E+03  0.00000000000E+00 0.  1.
         -3    1    6    6    0  502 -0.32116781668E+02  0.21746336334E+03  0.43276928916E+03  0.48539783652E+03  0.00000000000E+00 0.  1.
<mgrwt>
<rscale>  0 0.12652720E+04</rscale>
<asrwt>0</asrwt>
<pdfrwt beam="1">  1        1 0.88949560E-01 0.12652720E+04</pdfrwt>
<pdfrwt beam="2">  1       -1 0.10649699E+00 0.12652720E+04</pdfrwt>
<totfact> 0.29325795E+01</totfact>
</mgrwt>
</event>
<event>
12    1  0.1549527E-007  0.1974769E+04  0.7818608E-02  0.8618508E-01
         -1   -1    0    0    0  501 -0.00000000000E+00  0.00000000000E+00  0.13402815786E+04  0.13402815786E+04  0.00000000000E+00 0.  1.
          1   -1    0    0  501    0  0.00000000000E+00 -0.00000000000E+00 -0.72740583175E+03  0.72740583175E+03  0.00000000000E+00 0. -1.
         23    2    1    2    0    0  0.71324051699E+03 -0.15151751169E+03 -0.10791144362E+03  0.74260550810E+03  0.90268873731E+02 0.  0.
        254    2    1    2    0    0 -0.71324051699E+03  0.15151751169E+03  0.72078719044E+03  0.13250819022E+04  0.83942735379E+03 0.  0.
        -24    2    4    4    0    0 -0.12217180401E+03  0.13266130795E+03  0.70065417951E+03  0.72790698832E+03  0.80045812282E+02 0.  0.
         24    2    4    4    0    0 -0.59106871298E+03  0.18856203739E+02  0.20133010937E+02  0.59717491391E+03  0.80590072538E+02 0.  0.
         11    1    3    3    0    0  0.69579205261E+03 -0.15147585445E+03 -0.90262507242E+02  0.71778745821E+03  0.00000000000E+00 0. -1.
        -11    1    3    3    0    0  0.17448464382E+02 -0.41657231139E-01 -0.17648936378E+02  0.24818049881E+02  0.00000000000E+00 0.  1.
          2    1    6    6  502    0 -0.25259628083E+03  0.37128381522E+01  0.48283852301E+02  0.25719641648E+03  0.00000000000E+00 0. -1.
          1    1    5    5  503    0 -0.19031759488E+02  0.35829973493E+02  0.64397500720E+02  0.76111976513E+02  0.00000000000E+00 0. -1.
         -2    1    5    5    0  503 -0.10314004452E+03  0.96831334453E+02  0.63625667879E+03  0.65179501181E+03  0.00000000000E+00 0.  1.
         -1    1    6    6    0  502 -0.33847243215E+03  0.15143365587E+02 -0.28150841364E+02  0.33997849743E+03  0.00000000000E+00 0.  1.
<mgrwt>
<rscale>  0 0.19747695E+04</rscale>
<asrwt>0</asrwt>
<pdfrwt beam="1">  1        1 0.11190859E+00 0.19747695E+04</pdfrwt>
<pdfrwt beam="2">  1       -1 0.20619716E+00 0.19747695E+04</pdfrwt>
<totfact> 0.32579360E+00</totfact>
</mgrwt>
</event>
<event>
12    1  0.1549527E-007  0.1923454E+04  0.7818608E-02  0.8643269E-01
          2   -1    0    0  501    0  0.00000000000E+00  0.00000000000E+00  0.61600796777E+03  0.61600796777E+03  0.00000000000E+00 0.  1.
         -2   -1    0    0    0  501 -0.00000000000E+00 -0.00000000000E+00 -0.15014720928E+04  0.15014720928E+04  0.00000000000E+00 0. -1.
         23    2    1    2    0    0 -0.63311533149E+03  0.31376371558E+03 -0.53588806391E+03  0.89153867746E+03  0.91556016576E+02 0.  0.
        254    2    1    2    0    0  0.63311533149E+03 -0.31376371558E+03 -0.34957606107E+03  0.12259413831E+04  0.93885364145E+03 0.  0.
        -24    2    4    4    0    0  0.40549500163E+03  0.23943490323E+03 -0.39640585776E+03  0.62073203743E+03  0.80096123469E+02 0.  0.
         24    2    4    4    0    0  0.22762032986E+03 -0.55319861882E+03  0.46829796690E+02  0.60520934563E+03  0.79029081721E+02 0.  0.
         11    1    3    3    0    0 -0.42731307342E+03  0.19069342423E+03 -0.30432327195E+03  0.55818733290E+03  0.00000000000E+00 0.  1.
        -11    1    3    3    0    0 -0.20580225807E+03  0.12307029135E+03 -0.23156479196E+03  0.33335134456E+03  0.00000000000E+00 0. -1.
          4    1    6    6  502    0  0.99179840557E+02 -0.29906849357E+03 -0.82227047206E+01  0.31519234999E+03  0.00000000000E+00 0. -1.
          3    1    5    5  503    0  0.26349780742E+03  0.17924492521E+03 -0.22472629173E+03  0.38995095066E+03  0.00000000000E+00 0. -1.
         -4    1    5    5    0  503  0.14199719421E+03  0.60189978026E+02 -0.17167956603E+03  0.23078108677E+03  0.00000000000E+00 0.  1.
         -3    1    6    6    0  502  0.12844048930E+03 -0.25413012524E+03  0.55052501411E+02  0.29001699564E+03  0.00000000000E+00 0.  1.
<mgrwt>
<rscale>  0 0.19234539E+04</rscale>
<asrwt>0</asrwt>
<pdfrwt beam="1">  1        2 0.94770457E-01 0.19234539E+04</pdfrwt>
<pdfrwt beam="2">  1       -2 0.23099571E+00 0.19234539E+04</pdfrwt>
<totfact> 0.37824823E+00</totfact>
</mgrwt>
</event>
<event>
12    1  0.1549527E-007  0.1173526E+04  0.7818608E-02  0.9136350E-01
          1   -1    0    0  501    0  0.00000000000E+00  0.00000000000E+00  0.31984259387E+04  0.31984259387E+04  0.00000000000E+00 0. -1.
         -1   -1    0    0    0  501 -0.00000000000E+00 -0.00000000000E+00 -0.10764381451E+03  0.10764381451E+03  0.00000000000E+00 0.  1.
         23    2    1    2    0    0 -0.21184768944E+02  0.21681716069E+03  0.42706899697E+03  0.48774313123E+03  0.89704839800E+02 0.  0.
        254    2    1    2    0    0  0.21184768944E+02 -0.21681716069E+03  0.26637131272E+04  0.28183266219E+04  0.89450480624E+03 0.  0.
        -24    2    4    4    0    0 -0.24440235560E+03 -0.34418558869E+03  0.23179580975E+04  0.23574652715E+04  0.80725051427E+02 0.  0.
         24    2    4    4    0    0  0.26558712454E+03  0.12736842800E+03  0.34575502968E+03  0.46086135038E+03  0.78021833829E+02 0.  0.
         13    1    3    3    0    0  0.17303311896E+02  0.18151387744E+03  0.31193345297E+03  0.36131588865E+03  0.00000000000E+00 0.  1.
        -13    1    3    3    0    0 -0.38488080841E+02  0.35303283247E+02  0.11513554400E+03  0.12642724258E+03  0.00000000000E+00 0. -1.
          4    1    6    6  502    0  0.75863749733E+02  0.75700233921E+02  0.10533117832E+03  0.15026806403E+03  0.00000000000E+00 0. -1.
          1    1    5    5  503    0 -0.18751852999E+02 -0.61798805421E+02  0.47738270783E+03  0.48173122597E+03  0.00000000000E+00 0. -1.
         -2    1    5    5    0  503 -0.22565050260E+03 -0.28238678327E+03  0.18405753897E+04  0.18757340456E+04  0.00000000000E+00 0.  1.
         -3    1    6    6    0  502  0.18972337481E+03  0.51668194075E+02  0.24042385136E+03  0.31059328636E+03  0.00000000000E+00 0.  1.
<mgrwt>
<rscale>  0 0.11735259E+04</rscale>
<asrwt>0</asrwt>
<pdfrwt beam="1">  1        1 0.49206546E+00 0.11735259E+04</pdfrwt>
<pdfrwt beam="2">  1       -1 0.16560589E-01 0.11735259E+04</pdfrwt>
<totfact> 0.12037042E+01</totfact>
</mgrwt>
</event>
<event>
12    1  0.1549527E-007  0.3344512E+04  0.7818608E-02  0.8151661E-01
          2   -1    0    0  501    0  0.00000000000E+00  0.00000000000E+00  0.24310485460E+04  0.24310485460E+04  0.00000000000E+00 0. -1.
         -2   -1    0    0    0  501 -0.00000000000E+00 -0.00000000000E+00 -0.11503021079E+04  0.11503021079E+04  0.00000000000E+00 0.  1.
         23    2    1    2    0    0  0.11807530150E+03 -0.15413102541E+04  0.71593764903E+03  0.17061101540E+04  0.93091697489E+02 0.  0.
        254    2    1    2    0    0 -0.11807530150E+03  0.15413102541E+04  0.56480878904E+03  0.18752404999E+04  0.89885420845E+03 0.  0.
        -24    2    4    4    0    0 -0.46916174027E+03  0.53489681536E+03  0.17032309829E+03  0.73589471454E+03  0.79396041804E+02 0.  0.
         24    2    4    4    0    0  0.35108643878E+03  0.10064134387E+04  0.39448569075E+03  0.11393457853E+04  0.79750619044E+02 0.  0.
         13    1    3    3    0    0  0.69217001134E+02 -0.11962010072E+04  0.51905131991E+03  0.13057955872E+04  0.00000000000E+00 0.  1.
        -13    1    3    3    0    0  0.48858300364E+02 -0.34510924691E+03  0.19688632911E+03  0.40031456682E+03  0.00000000000E+00 0. -1.
          4    1    6    6  502    0  0.14065576810E+03  0.31830060223E+03  0.15519910189E+03  0.38103291158E+03  0.00000000000E+00 0. -1.
          3    1    5    5  503    0 -0.12857852556E+03  0.18758636678E+03  0.28482634705E+02  0.22919935148E+03  0.00000000000E+00 0. -1.
         -4    1    5    5    0  503 -0.34058321472E+03  0.34731044857E+03  0.14184046359E+03  0.50669536306E+03  0.00000000000E+00 0.  1.
         -3    1    6    6    0  502  0.21043067068E+03  0.68811283647E+03  0.23928658886E+03  0.75831287375E+03  0.00000000000E+00 0.  1.
<mgrwt>
<rscale>  0 0.33445121E+04</rscale>
<asrwt>0</asrwt>
<pdfrwt beam="1">  1        2 0.37400747E+00 0.33445121E+04</pdfrwt>
<pdfrwt beam="2">  1       -2 0.17696956E+00 0.33445121E+04</pdfrwt>
<totfact> 0.60429908E-01</totfact>
</mgrwt>
</event>
<event>
12    1  0.1549527E-007  0.1213112E+04  0.7818608E-02  0.9101456E-01
          1   -1    0    0  501    0  0.00000000000E+00  0.00000000000E+00  0.13667161843E+04  0.13667161843E+04  0.00000000000E+00 0. -1.
         -1   -1    0    0    0  501 -0.00000000000E+00 -0.00000000000E+00 -0.26919290942E+03  0.26919290942E+03  0.00000000000E+00 0.  1.
         23    2    1    2    0    0 -0.23543114033E+03  0.32147743990E+02  0.33898669000E+03  0.42388654071E+03  0.91140134465E+02 0.  0.
        254    2    1    2    0    0  0.23543114033E+03 -0.32147743990E+02  0.75853658492E+03  0.12120225531E+04  0.91496427207E+03 0.  0.
        -24    2    4    4    0    0  0.31214776922E+03 -0.38717137647E+03  0.20189427439E+03  0.54275392396E+03  0.80514715138E+02 0.  0.
         24    2    4    4    0    0 -0.76716628883E+02  0.35502363248E+03  0.55664231052E+03  0.66926862910E+03  0.78374838211E+02 0.  0.
         11    1    3    3    0    0 -0.16977306584E+03  0.25179617885E+02  0.30414874612E+03  0.34923253973E+03  0.00000000000E+00 0.  1.
        -11    1    3    3    0    0 -0.65658074492E+02  0.69681261059E+01  0.34837943884E+02  0.74654000974E+02  0.00000000000E+00 0. -1.
          2    1    6    6  502    0 -0.79109882374E+02  0.35820573423E+03  0.55415754781E+03  0.66457528492E+03  0.00000000000E+00 0. -1.
          3    1    5    5  503    0  0.30741144063E+02 -0.86442730915E+02  0.42756425594E+02  0.10121993675E+03  0.00000000000E+00 0. -1.
         -4    1    5    5    0  503  0.28140662515E+03 -0.30072864555E+03  0.15913784880E+03  0.44153398721E+03  0.00000000000E+00 0.  1.
         -1    1    6    6    0  502  0.23932534913E+01 -0.31821017564E+01  0.24847627143E+01  0.46933441817E+01  0.00000000000E+00 0.  1.
<mgrwt>
<rscale>  0 0.12131122E+04</rscale>
<asrwt>0</asrwt>
<pdfrwt beam="1">  1        1 0.21026403E+00 0.12131122E+04</pdfrwt>
<pdfrwt beam="2">  1       -1 0.41414294E-01 0.12131122E+04</pdfrwt>
<totfact> 0.45800818E+01</totfact>
</mgrwt>
</event>
<event>
12    1  0.1549527E-007  0.1686035E+04  0.7818608E-02  0.8769369E-01
          2   -1    0    0  501    0  0.00000000000E+00  0.00000000000E+00  0.68964965165E+03  0.68964965165E+03  0.00000000000E+00 0. -1.
         -2   -1    0    0    0  501 -0.00000000000E+00 -0.00000000000E+00 -0.10304926171E+04  0.10304926171E+04  0.00000000000E+00 0.  1.
         23    2    1    2    0    0 -0.33642616680E+03 -0.49674542012E+03 -0.97092491094E+02  0.61408951542E+03  0.87979560185E+02 0.  0.
        254    2    1    2    0    0  0.33642616680E+03  0.49674542012E+03 -0.24375047435E+03  0.11060527533E+04  0.89666037121E+03 0.  0.
        -24    2    4    4    0    0  0.42524509951E+02  0.10527923982E+03  0.32382690588E+03  0.35228132244E+03  0.79663121250E+02 0.  0.
         24    2    4    4    0    0  0.29390165684E+03  0.39146618029E+03 -0.56757738023E+03  0.75377143089E+03  0.80020830198E+02 0.  0.
         11    1    3    3    0    0 -0.32021512649E+03 -0.49466777549E+03 -0.99378330361E+02  0.59758680364E+03  0.00000000000E+00 0. -1.
        -11    1    3    3    0    0 -0.16211040303E+02 -0.20776446293E+01  0.22858392673E+01  0.16502711779E+02  0.00000000000E+00 0.  1.
          2    1    6    6  502    0  0.13163189070E+03  0.14808425588E+03 -0.17610687714E+03  0.26508401246E+03  0.00000000000E+00 0. -1.
          1    1    5    5  503    0 -0.42287368169E+01  0.89078399473E+02  0.20405207567E+03  0.22268833165E+03  0.00000000000E+00 0. -1.
         -2    1    5    5    0  503  0.46753246768E+02  0.16200840351E+02  0.11977483021E+03  0.12959299079E+03  0.00000000000E+00 0.  1.
         -1    1    6    6    0  502  0.16226976615E+03  0.24338192441E+03 -0.39147050309E+03  0.48868741842E+03  0.00000000000E+00 0.  1.
<mgrwt>
<rscale>  0 0.16860354E+04</rscale>
<asrwt>0</asrwt>
<pdfrwt beam="1">  1        2 0.10609995E+00 0.16860354E+04</pdfrwt>
<pdfrwt beam="2">  1       -2 0.15853733E+00 0.16860354E+04</pdfrwt>
<totfact> 0.10265364E+01</totfact>
</mgrwt>
</event>
<event>
12    1  0.2140245E-007  0.3294429E+04  0.7818608E-02  0.8164314E-01
          1   -1    0    0  501    0  0.00000000000E+00  0.00000000000E+00  0.27146147485E+04  0.27146147485E+04  0.00000000000E+00 0.  1.
         -1   -1    0    0    0  501 -0.00000000000E+00 -0.00000000000E+00 -0.99952135960E+03  0.99952135960E+03  0.00000000000E+00 0. -1.
         23    2    1    2    0    0  0.13013019725E+04  0.61898505793E+03  0.24724869999E+03  0.14649409527E+04  0.91601035819E+02 0.  0.
        254    2    1    2    0    0 -0.13013019725E+04 -0.61898505793E+03  0.14678446890E+04  0.22491951555E+04  0.90982497824E+03 0.  0.
        -24    2    4    4    0    0 -0.18930665326E+03  0.71281922875E+01  0.76070085756E+03  0.78800455194E+03  0.79984742862E+02 0.  0.
         24    2    4    4    0    0 -0.11119953192E+04 -0.62611325021E+03  0.70714383139E+03  0.14611906035E+04  0.80462348649E+02 0.  0.
         13    1    3    3    0    0  0.55139406491E+03  0.27197365538E+03  0.60453242130E+02  0.61778611066E+03  0.00000000000E+00 0.  1.
        -13    1    3    3    0    0  0.74990790755E+03  0.34701140255E+03  0.18679545786E+03  0.84715484203E+03  0.00000000000E+00 0. -1.
          2    1    6    6  502    0 -0.91606465107E+03 -0.52479956312E+03  0.55044476026E+03  0.11906210398E+04  0.00000000000E+00 0. -1.
          1    1    5    5  503    0 -0.19105651572E+03  0.14750812704E+02  0.75310584403E+03  0.77710269011E+03  0.00000000000E+00 0. -1.
         -2    1    5    5    0  503  0.17498624661E+01 -0.76226204169E+01  0.75950135344E+01  0.10901861825E+02  0.00000000000E+00 0.  1.
         -3    1    6    6    0  502 -0.19593066813E+03 -0.10131368710E+03  0.15669907113E+03  0.27056956370E+03  0.00000000000E+00 0.  1.
<mgrwt>
<rscale>  0 0.32944289E+04</rscale>
<asrwt>0</asrwt>
<pdfrwt beam="1">  1        1 0.41763304E+00 0.32944289E+04</pdfrwt>
<pdfrwt beam="2">  1       -1 0.15377252E+00 0.32944289E+04</pdfrwt>
<totfact> 0.25928828E-01</totfact>
</mgrwt>
</event>
<event>
12    1  0.1549527E-007  0.3019799E+04  0.7818608E-02  0.8238100E-01
         -1   -1    0    0    0  501 -0.00000000000E+00  0.00000000000E+00  0.14566694654E+04  0.14566694654E+04  0.00000000000E+00 0.  1.
          1   -1    0    0  501    0  0.00000000000E+00 -0.00000000000E+00 -0.15650750236E+04  0.15650750236E+04  0.00000000000E+00 0. -1.
         23    2    1    2    0    0 -0.29809287819E+02 -0.19784807975E+03  0.13098060037E+04  0.13282126390E+04  0.92328711226E+02 0.  0.
        254    2    1    2    0    0  0.29809287819E+02  0.19784807975E+03 -0.14182115619E+04  0.16935318499E+04  0.90371103582E+03 0.  0.
        -24    2    4    4    0    0  0.16277832722E+03  0.51494832262E+03 -0.10493115148E+04  0.11828264880E+04  0.79720052951E+02 0.  0.
         24    2    4    4    0    0 -0.13296903940E+03 -0.31710024287E+03 -0.36890004701E+03  0.51070536189E+03  0.80618809918E+02 0.  0.
         11    1    3    3    0    0 -0.41230322736E+02 -0.76859338590E+02  0.76844297538E+03  0.77337694810E+03  0.00000000000E+00 0.  1.
        -11    1    3    3    0    0  0.11421034917E+02 -0.12098874116E+03  0.54136302829E+03  0.55483569092E+03  0.00000000000E+00 0. -1.
          2    1    6    6  502    0 -0.11725829192E+03 -0.26918969102E+03 -0.26633789687E+03  0.39641956572E+03  0.00000000000E+00 0. -1.
          3    1    5    5  503    0  0.16328013850E+03  0.41500080293E+03 -0.85665931750E+03  0.96579048262E+03  0.00000000000E+00 0. -1.
         -4    1    5    5    0  503 -0.50181128060E+00  0.99947519694E+02 -0.19265219733E+03  0.21703600541E+03  0.00000000000E+00 0.  1.
         -1    1    6    6    0  502 -0.15710747474E+02 -0.47910551852E+02 -0.10256215015E+03  0.11428579617E+03  0.00000000000E+00 0.  1.
<mgrwt>
<rscale>  0 0.30197993E+04</rscale>
<asrwt>0</asrwt>
<pdfrwt beam="1">  1        1 0.24078077E+00 0.30197993E+04</pdfrwt>
<pdfrwt beam="2">  1       -1 0.22410299E+00 0.30197993E+04</pdfrwt>
<totfact> 0.51770259E-01</totfact>
</mgrwt>
</event>
<event>
12    1  0.1549527E-007  0.1342684E+04  0.7818608E-02  0.8996384E-01
          2   -1    0    0  501    0  0.00000000000E+00  0.00000000000E+00  0.12563681028E+04  0.12563681028E+04  0.00000000000E+00 0. -1.
         -2   -1    0    0    0  501 -0.00000000000E+00 -0.00000000000E+00 -0.35873270309E+03  0.35873270309E+03  0.00000000000E+00 0.  1.
         23    2    1    2    0    0 -0.47722072793E+02 -0.18467173189E+03  0.61624023517E+03  0.65160426183E+03  0.91951301254E+02 0.  0.
        254    2    1    2    0    0  0.47722072793E+02  0.18467173189E+03  0.28139516451E+03  0.96349654403E+03  0.90153275424E+03 0.  0.
        -24    2    4    4    0    0  0.17567510628E+03  0.50432332583E+03  0.28347328978E+03  0.61005433037E+03  0.81273735245E+02 0.  0.
         24    2    4    4    0    0 -0.12795303349E+03 -0.31965159394E+03 -0.20781252772E+01  0.35344221366E+03  0.79799495656E+02 0.  0.
         13    1    3    3    0    0 -0.60315012992E+02 -0.72856661884E+02  0.21500075035E+03  0.23488575228E+03  0.00000000000E+00 0.  1.
        -13    1    3    3    0    0  0.12592940199E+02 -0.11181507001E+03  0.40123948482E+03  0.41671850955E+03  0.00000000000E+00 0. -1.
          2    1    6    6  502    0 -0.27776850686E+02 -0.18621700475E+02 -0.13285683182E+02  0.35983753838E+02  0.00000000000E+00 0. -1.
          3    1    5    5  503    0 -0.30011264707E+01  0.59850750721E+02  0.19060656274E+02  0.62884240789E+02  0.00000000000E+00 0. -1.
         -4    1    5    5    0  503  0.17867623275E+03  0.44447257511E+03  0.26441263351E+03  0.54717008958E+03  0.00000000000E+00 0.  1.
         -1    1    6    6    0  502 -0.10017618280E+03 -0.30102989347E+03  0.11207557905E+02  0.31745845982E+03  0.00000000000E+00 0.  1.
<mgrwt>
<rscale>  0 0.13426844E+04</rscale>
<asrwt>0</asrwt>
<pdfrwt beam="1">  1        2 0.19328740E+00 0.13426844E+04</pdfrwt>
<pdfrwt beam="2">  1       -2 0.55189647E-01 0.13426844E+04</pdfrwt>
<totfact> 0.52890724E+01</totfact>
</mgrwt>
</event>
<event>
12    1  0.1549527E-007  0.1333363E+04  0.7818608E-02  0.9003518E-01
          2   -1    0    0  501    0  0.00000000000E+00  0.00000000000E+00  0.28446846661E+03  0.28446846661E+03  0.00000000000E+00 0. -1.
         -2   -1    0    0    0  501 -0.00000000000E+00 -0.00000000000E+00 -0.15624383193E+04  0.15624383193E+04  0.00000000000E+00 0.  1.
         23    2    1    2    0    0 -0.13962775956E+02  0.96129387998E+01 -0.82631357222E+03  0.83147294806E+03  0.90916313249E+02 0.  0.
        254    2    1    2    0    0  0.13962775956E+02 -0.96129387998E+01 -0.45165628047E+03  0.10154338378E+04  0.90929924428E+03 0.  0.
        -24    2    4    4    0    0 -0.11464512800E+03  0.79885688396E+02 -0.69602394103E+03  0.71453828977E+03  0.81181355494E+02 0.  0.
         24    2    4    4    0    0  0.12860790396E+03 -0.89498627196E+02  0.24436766055E+03  0.30089554807E+03  0.79199621816E+02 0.  0.
         13    1    3    3    0    0  0.35868001805E+01  0.19263507354E+02 -0.78797215636E+03  0.78821574905E+03  0.00000000000E+00 0.  1.
        -13    1    3    3    0    0 -0.17549576136E+02 -0.96505685545E+01 -0.38341415856E+02  0.43257199005E+02  0.00000000000E+00 0. -1.
          4    1    6    6  502    0  0.75842604012E+02 -0.99911388417E+01  0.78976735818E+02  0.10995111750E+03  0.00000000000E+00 0. -1.
          3    1    5    5  503    0 -0.76338985476E+02  0.14604856302E+02 -0.46445419398E+03  0.47091256178E+03  0.00000000000E+00 0. -1.
         -4    1    5    5    0  503 -0.38306142524E+02  0.65280832094E+02 -0.23156974704E+03  0.24362572799E+03  0.00000000000E+00 0.  1.
         -3    1    6    6    0  502  0.52765299944E+02 -0.79507488354E+02  0.16539092474E+03  0.19094443058E+03  0.00000000000E+00 0.  1.
<mgrwt>
<rscale>  0 0.13333633E+04</rscale>
<asrwt>0</asrwt>
<pdfrwt beam="1">  1        2 0.43764379E-01 0.13333633E+04</pdfrwt>
<pdfrwt beam="2">  1       -2 0.24037513E+00 0.13333633E+04</pdfrwt>
<totfact> 0.84019527E+00</totfact>
</mgrwt>
</event>
<event>
12    1  0.1549527E-007  0.2216851E+04  0.7818608E-02  0.8511447E-01
          1   -1    0    0  501    0  0.00000000000E+00  0.00000000000E+00  0.16655261110E+04  0.16655261110E+04  0.00000000000E+00 0. -1.
         -1   -1    0    0    0  501 -0.00000000000E+00 -0.00000000000E+00 -0.73766879867E+03  0.73766879867E+03  0.00000000000E+00 0.  1.
         23    2    1    2    0    0 -0.58452912793E+03  0.25579938105E+02  0.11650032147E+04  0.13074915313E+04  0.99864807051E+02 0.  0.
        254    2    1    2    0    0  0.58452912793E+03 -0.25579938105E+02 -0.23714590231E+03  0.10957033784E+04  0.89554401329E+03 0.  0.
        -24    2    4    4    0    0  0.36285480244E+03 -0.27439129506E+03  0.23038207378E+03  0.51517579420E+03  0.73321269424E+02 0.  0.
         24    2    4    4    0    0  0.22167432549E+03  0.24881135695E+03 -0.46752797609E+03  0.58052758416E+03  0.85925954270E+02 0.  0.
         13    1    3    3    0    0 -0.58290063125E+03  0.19086897199E+02  0.11276171607E+04  0.12695108967E+04  0.00000000000E+00 0. -1.
        -13    1    3    3    0    0 -0.16284966837E+01  0.64930409056E+01  0.37386053914E+02  0.37980634656E+02  0.00000000000E+00 0.  1.
          2    1    6    6  502    0  0.20067286259E+03  0.24163222558E+03 -0.46016734676E+03  0.55714425174E+03  0.00000000000E+00 0. -1.
          3    1    5    5  503    0  0.89013513593E+02 -0.96144162130E+02  0.93269180560E+02  0.16082986525E+03  0.00000000000E+00 0. -1.
         -4    1    5    5    0  503  0.27384128885E+03 -0.17824713293E+03  0.13711289322E+03  0.35434592895E+03  0.00000000000E+00 0.  1.
         -1    1    6    6    0  502  0.21001462901E+02  0.71791313704E+01 -0.73606293300E+01  0.23383332426E+02  0.00000000000E+00 0.  1.
<mgrwt>
<rscale>  0 0.22168506E+04</rscale>
<asrwt>0</asrwt>
<pdfrwt beam="1">  1        1 0.25623479E+00 0.22168506E+04</pdfrwt>
<pdfrwt beam="2">  1       -1 0.11348751E+00 0.22168506E+04</pdfrwt>
<totfact> 0.32454229E+00</totfact>
</mgrwt>
</event>
<event>
12    1  0.1549527E-007  0.1268166E+04  0.7818608E-02  0.9055197E-01
          2   -1    0    0  501    0  0.00000000000E+00  0.00000000000E+00  0.68488144480E+03  0.68488144480E+03  0.00000000000E+00 0. -1.
         -2   -1    0    0    0  501 -0.00000000000E+00 -0.00000000000E+00 -0.58705274209E+03  0.58705274209E+03  0.00000000000E+00 0.  1.
         23    2    1    2    0    0 -0.18757281814E+03  0.33274787322E+02 -0.18342581065E+03  0.28248828126E+03  0.99316803532E+02 0.  0.
        254    2    1    2    0    0  0.18757281814E+03 -0.33274787322E+02  0.28125451336E+03  0.98944590563E+03  0.92930529176E+03 0.  0.
        -24    2    4    4    0    0  0.43431847678E+03 -0.32834198820E+03  0.21684479219E+03  0.59145617421E+03  0.79735447729E+02 0.  0.
         24    2    4    4    0    0 -0.24674565864E+03  0.29506720088E+03  0.64409721168E+02  0.39798973142E+03  0.79367128227E+02 0.  0.
         11    1    3    3    0    0 -0.51253666301E+02 -0.28499988599E+02 -0.22737232581E+02  0.62898087450E+02  0.00000000000E+00 0. -1.
        -11    1    3    3    0    0 -0.13631915184E+03  0.61774775922E+02 -0.16068857807E+03  0.21959019381E+03  0.00000000000E+00 0.  1.
          4    1    6    6  502    0 -0.22903159200E+03  0.25520766313E+03  0.79192208548E+02  0.35193440774E+03  0.00000000000E+00 0. -1.
          3    1    5    5  503    0  0.32824580648E+03 -0.21185693495E+03  0.17728812588E+03  0.42902185251E+03  0.00000000000E+00 0. -1.
         -4    1    5    5    0  503  0.10607267030E+03 -0.11648505325E+03  0.39556666316E+02  0.16243432170E+03  0.00000000000E+00 0.  1.
         -3    1    6    6    0  502 -0.17714066638E+02  0.39859537744E+02 -0.14782487380E+02  0.46055323679E+02  0.00000000000E+00 0.  1.
<mgrwt>
<rscale>  0 0.12681664E+04</rscale>
<asrwt>0</asrwt>
<pdfrwt beam="1">  1        2 0.10536638E+00 0.12681664E+04</pdfrwt>
<pdfrwt beam="2">  1       -2 0.90315807E-01 0.12681664E+04</pdfrwt>
<totfact> 0.43389464E+01</totfact>
</mgrwt>
</event>
<event>
12    1  0.1549527E-007  0.1951918E+04  0.7818608E-02  0.8629436E-01
          1   -1    0    0  501    0  0.00000000000E+00  0.00000000000E+00  0.79595595941E+03  0.79595595941E+03  0.00000000000E+00 0. -1.
         -1   -1    0    0    0  501 -0.00000000000E+00 -0.00000000000E+00 -0.11966695805E+04  0.11966695805E+04  0.00000000000E+00 0.  1.
         23    2    1    2    0    0  0.55780417679E+03 -0.25324238868E+03  0.30628175271E+03  0.69112224454E+03  0.92543167085E+02 0.  0.
        254    2    1    2    0    0 -0.55780417679E+03  0.25324238868E+03 -0.70699537380E+03  0.13015032954E+04  0.90487079862E+03 0.  0.
        -24    2    4    4    0    0  0.19988838952E+03 -0.11842140779E+03 -0.16829776136E+03  0.29712778085E+03  0.77341991104E+02 0.  0.
         24    2    4    4    0    0 -0.75769256631E+03  0.37166379647E+03 -0.53869761244E+03  0.10043755145E+04  0.79643291341E+02 0.  0.
         13    1    3    3    0    0  0.28350803060E+03 -0.10592033271E+03  0.19713632784E+03  0.36119060349E+03  0.00000000000E+00 0.  1.
        -13    1    3    3    0    0  0.27429614619E+03 -0.14732205597E+03  0.10914542488E+03  0.32993164104E+03  0.00000000000E+00 0. -1.
          4    1    6    6  502    0 -0.67458593012E+03  0.30177638483E+03 -0.47459457056E+03  0.87827966500E+03  0.00000000000E+00 0. -1.
          3    1    5    5  503    0  0.18737812648E+03 -0.80334671075E+02 -0.13072722701E+03  0.24218552712E+03  0.00000000000E+00 0. -1.
         -4    1    5    5    0  503  0.12510263036E+02 -0.38086736713E+02 -0.37570534342E+02  0.54942253734E+02  0.00000000000E+00 0.  1.
         -3    1    6    6    0  502 -0.83106636196E+02  0.69887411645E+02 -0.64103041884E+02  0.12609584952E+03  0.00000000000E+00 0.  1.
<mgrwt>
<rscale>  0 0.19519183E+04</rscale>
<asrwt>0</asrwt>
<pdfrwt beam="1">  1        1 0.12245476E+00 0.19519183E+04</pdfrwt>
<pdfrwt beam="2">  1       -1 0.18410301E+00 0.19519183E+04</pdfrwt>
<totfact> 0.40382751E+00</totfact>
</mgrwt>
</event>
<event>
12    1  0.1674400E-007  0.2040007E+04  0.7818608E-02  0.8588141E-01
          1   -1    0    0  501    0  0.00000000000E+00  0.00000000000E+00  0.30492185618E+04  0.30492185618E+04  0.00000000000E+00 0. -1.
         -1   -1    0    0    0  501 -0.00000000000E+00 -0.00000000000E+00 -0.34120444479E+03  0.34120444479E+03  0.00000000000E+00 0.  1.
         23    2    1    2    0    0 -0.11574740793E+03 -0.29571906113E+03  0.23408702710E+04  0.23641186837E+04  0.92392097720E+02 0.  0.
        254    2    1    2    0    0  0.11574740793E+03  0.29571906113E+03  0.36714384602E+03  0.10263043228E+04  0.90424484175E+03 0.  0.
        -24    2    4    4    0    0  0.28761120311E+03  0.47049006461E+03 -0.23956467806E+02  0.55766677985E+03  0.79606657682E+02 0.  0.
         24    2    4    4    0    0 -0.17186379518E+03 -0.17477100348E+03  0.39110031382E+03  0.46863754298E+03  0.81114878223E+02 0.  0.
         13    1    3    3    0    0  0.35709800801E+01 -0.33813327210E+01  0.50321714797E+01  0.70361963804E+01  0.00000000000E+00 0.  1.
        -13    1    3    3    0    0 -0.11931838801E+03 -0.29233772841E+03  0.23358380995E+04  0.23570824874E+04  0.00000000000E+00 0. -1.
          2    1    6    6  502    0  0.77207407731E+01 -0.86312270784E+01  0.32765396161E+02  0.34751677723E+02  0.00000000000E+00 0. -1.
          1    1    5    5  503    0  0.44379548136E+02  0.44289402657E+02  0.17785068735E+02  0.65172111753E+02  0.00000000000E+00 0. -1.
         -2    1    5    5    0  503  0.24323165497E+03  0.42620066195E+03 -0.41741536541E+02  0.49249466810E+03  0.00000000000E+00 0.  1.
         -1    1    6    6    0  502 -0.17958453595E+03 -0.16613977640E+03  0.35833491766E+03  0.43388586526E+03  0.00000000000E+00 0.  1.
<mgrwt>
<rscale>  0 0.20400068E+04</rscale>
<asrwt>0</asrwt>
<pdfrwt beam="1">  1        1 0.46911053E+00 0.20400068E+04</pdfrwt>
<pdfrwt beam="2">  1       -1 0.52492993E-01 0.20400068E+04</pdfrwt>
<totfact> 0.18630801E+00</totfact>
</mgrwt>
</event>
<event>
12    1  0.1549527E-007  0.3448365E+04  0.7818608E-02  0.8126137E-01
         -1   -1    0    0    0  501 -0.00000000000E+00  0.00000000000E+00  0.15752506919E+04  0.15752506919E+04  0.00000000000E+00 0.  1.
          1   -1    0    0  501    0  0.00000000000E+00 -0.00000000000E+00 -0.18871954792E+04  0.18871954792E+04  0.00000000000E+00 0. -1.
         23    2    1    2    0    0 -0.15584824090E+02 -0.15948677475E+04  0.49442940331E+02  0.15983476798E+04  0.91786070110E+02 0.  0.
        254    2    1    2    0    0  0.15584824090E+02  0.15948677475E+04 -0.36138772762E+03  0.18640984913E+04  0.89465975483E+03 0.  0.
        -24    2    4    4    0    0 -0.11041921640E+03  0.31344199918E+03 -0.45713549769E+03  0.57076309439E+03  0.79745573382E+02 0.  0.
         24    2    4    4    0    0  0.12600404049E+03  0.12814257483E+04  0.95747770062E+02  0.12933353969E+04  0.74965637563E+02 0.  0.
         11    1    3    3    0    0 -0.51214936831E+01 -0.15614810530E+04  0.57094434287E+02  0.15625329062E+04  0.00000000000E+00 0.  1.
        -11    1    3    3    0    0 -0.10463330407E+02 -0.33386694501E+02 -0.76514939569E+01  0.35814773665E+02  0.00000000000E+00 0. -1.
          2    1    6    6  502    0  0.93883996491E+02  0.90314457847E+03  0.10136407694E+03  0.91365147103E+03  0.00000000000E+00 0. -1.
          3    1    5    5  503    0 -0.66669368060E+02  0.23563031234E+03 -0.27700977948E+03  0.36973080296E+03  0.00000000000E+00 0. -1.
         -4    1    5    5    0  503 -0.43749848342E+02  0.77811686844E+02 -0.18012571821E+03  0.20103229143E+03  0.00000000000E+00 0.  1.
         -1    1    6    6    0  502  0.32120044001E+02  0.37828116981E+03 -0.56163068776E+01  0.37968392587E+03  0.00000000000E+00 0.  1.
<mgrwt>
<rscale>  0 0.34483654E+04</rscale>
<asrwt>0</asrwt>
<pdfrwt beam="1">  1        1 0.29033777E+00 0.34483654E+04</pdfrwt>
<pdfrwt beam="2">  1       -1 0.24234626E+00 0.34483654E+04</pdfrwt>
<totfact> 0.22790962E-01</totfact>
</mgrwt>
</event>
<event>
12    1  0.1549527E-007  0.1268638E+04  0.7818608E-02  0.9054812E-01
         -2   -1    0    0    0  501 -0.00000000000E+00  0.00000000000E+00  0.84130981360E+03  0.84130981360E+03  0.00000000000E+00 0.  1.
          2   -1    0    0  501    0  0.00000000000E+00 -0.00000000000E+00 -0.47825462536E+03  0.47825462536E+03  0.00000000000E+00 0. -1.
         23    2    1    2    0    0  0.16034866915E+03 -0.22469086805E+03  0.23118170709E+03  0.37188274136E+03  0.93027467676E+02 0.  0.
        254    2    1    2    0    0 -0.16034866915E+03  0.22469086805E+03  0.13187348114E+03  0.94768169760E+03  0.89694609819E+03 0.  0.
        -24    2    4    4    0    0  0.25672119298E+03  0.36085780519E+03 -0.76529977038E+02  0.45554449416E+03  0.74429982373E+02 0.  0.
         24    2    4    4    0    0 -0.41706986213E+03 -0.13616693714E+03  0.20840345818E+03  0.49213720345E+03  0.79235856546E+02 0.  0.
         13    1    3    3    0    0  0.77026980776E+02 -0.37104966829E+02  0.57869376228E+02  0.10324145987E+03  0.00000000000E+00 0. -1.
        -13    1    3    3    0    0  0.83321688378E+02 -0.18758590122E+03  0.17331233086E+03  0.26864128149E+03  0.00000000000E+00 0.  1.
          4    1    6    6  502    0 -0.71877167787E+02  0.67357820283E+01  0.31397016564E+02  0.78724015762E+02  0.00000000000E+00 0. -1.
          3    1    5    5  503    0 -0.27696098241E+00  0.21048493196E+02 -0.13113686417E+02  0.24800898061E+02  0.00000000000E+00 0. -1.
         -4    1    5    5    0  503  0.25699815396E+03  0.33980931200E+03 -0.63416290621E+02  0.43074359610E+03  0.00000000000E+00 0.  1.
         -3    1    6    6    0  502 -0.34519269435E+03 -0.14290271917E+03  0.17700644162E+03  0.41341318768E+03  0.00000000000E+00 0.  1.
<mgrwt>
<rscale>  0 0.12686376E+04</rscale>
<asrwt>0</asrwt>
<pdfrwt beam="1">  1        2 0.73577635E-01 0.12686376E+04</pdfrwt>
<pdfrwt beam="2">  1       -2 0.12943228E+00 0.12686376E+04</pdfrwt>
<totfact> 0.27954431E+01</totfact>
</mgrwt>
</event>
<event>
12    1  0.1549527E-007  0.1495855E+04  0.7818608E-02  0.8887214E-01
          2   -1    0    0  501    0  0.00000000000E+00  0.00000000000E+00  0.20363208467E+04  0.20363208467E+04  0.00000000000E+00 0. -1.
         -2   -1    0    0    0  501 -0.00000000000E+00 -0.00000000000E+00 -0.27470903879E+03  0.27470903879E+03  0.00000000000E+00 0.  1.
         23    2    1    2    0    0  0.42118129777E+03 -0.98423373354E+02  0.94258566785E+03  0.10412280675E+04  0.92775542373E+02 0.  0.
        254    2    1    2    0    0 -0.42118129777E+03  0.98423373354E+02  0.81902614002E+03  0.12698018180E+04  0.86862649789E+03 0.  0.
        -24    2    4    4    0    0 -0.13819103549E+03  0.22602258968E+03 -0.10299465606E+03  0.29396298334E+03  0.74989086290E+02 0.  0.
         24    2    4    4    0    0 -0.28299026228E+03 -0.12759921632E+03  0.92202079607E+03  0.97583883462E+03  0.75987066061E+02 0.  0.
         13    1    3    3    0    0  0.17063449290E+02  0.59954177609E+01  0.91895884472E+02  0.93658741817E+02  0.00000000000E+00 0.  1.
        -13    1    3    3    0    0  0.40411784848E+03 -0.10441879112E+03  0.85068978337E+03  0.94756932566E+03  0.00000000000E+00 0. -1.
          2    1    6    6  502    0 -0.56483090491E+02 -0.44490325360E+02  0.30410592968E+03  0.31249023190E+03  0.00000000000E+00 0. -1.
          3    1    5    5  503    0 -0.11583126150E+03  0.16900882952E+03 -0.45332615746E+02  0.20984735321E+03  0.00000000000E+00 0. -1.
         -4    1    5    5    0  503 -0.22359773992E+02  0.57013760155E+02 -0.57662040310E+02  0.84115630132E+02  0.00000000000E+00 0.  1.
         -1    1    6    6    0  502 -0.22650717179E+03 -0.83108890964E+02  0.61791486639E+03  0.66334860273E+03  0.00000000000E+00 0.  1.
<mgrwt>
<rscale>  0 0.14958553E+04</rscale>
<asrwt>0</asrwt>
<pdfrwt beam="1">  1        2 0.31328012E+00 0.14958553E+04</pdfrwt>
<pdfrwt beam="2">  1       -2 0.42262930E-01 0.14958553E+04</pdfrwt>
<totfact> 0.32722727E+01</totfact>
</mgrwt>
</event>
<event>
12    1  0.1549527E-007  0.2998124E+04  0.7818608E-02  0.8244267E-01
         -2   -1    0    0    0  501 -0.00000000000E+00  0.00000000000E+00  0.51796059379E+03  0.51796059379E+03  0.00000000000E+00 0.  1.
          2   -1    0    0  501    0  0.00000000000E+00 -0.00000000000E+00 -0.43385285216E+04  0.43385285216E+04  0.00000000000E+00 0. -1.
         23    2    1    2    0    0 -0.77012006009E+03  0.10197319380E+04 -0.24981135328E+04  0.28074165539E+04  0.89879652997E+02 0.  0.
        254    2    1    2    0    0  0.77012006009E+03 -0.10197319380E+04 -0.13224543950E+04  0.20490725615E+04  0.90381115455E+03 0.  0.
        -24    2    4    4    0    0  0.65648935938E+03 -0.21830316157E+03 -0.88208855615E+03  0.11237660306E+04  0.78328292574E+02 0.  0.
         24    2    4    4    0    0  0.11363070071E+03 -0.80142877642E+03 -0.44036583884E+03  0.92530653084E+03  0.84083792618E+02 0.  0.
         13    1    3    3    0    0 -0.39909273096E+03  0.53454660864E+03 -0.14018827286E+04  0.15525109563E+04  0.00000000000E+00 0. -1.
        -13    1    3    3    0    0 -0.37102732913E+03  0.48518532935E+03 -0.10962308042E+04  0.12549055976E+04  0.00000000000E+00 0.  1.
          2    1    6    6  502    0  0.16953861592E+02 -0.40765182699E+03 -0.20780182766E+03  0.45787448613E+03  0.00000000000E+00 0. -1.
          3    1    5    5  503    0  0.65009924337E+03 -0.20936744996E+03 -0.85341651171E+03  0.10930615252E+04  0.00000000000E+00 0. -1.
         -2    1    5    5    0  503  0.63901160043E+01 -0.89357116043E+01 -0.28672044441E+02  0.30704505481E+02  0.00000000000E+00 0.  1.
         -1    1    6    6    0  502  0.96676839121E+02 -0.39377694942E+03 -0.23256401119E+03  0.46743204471E+03  0.00000000000E+00 0.  1.
<mgrwt>
<rscale>  0 0.29981240E+04</rscale>
<asrwt>0</asrwt>
<pdfrwt beam="1">  1        2 0.66746595E+00 0.29981240E+04</pdfrwt>
<pdfrwt beam="2">  1       -2 0.79686242E-01 0.29981240E+04</pdfrwt>
<totfact> 0.20879783E-01</totfact>
</mgrwt>
</event>
<event>
12    1  0.1549527E-007  0.2011985E+04  0.7818608E-02  0.8601038E-01
          2   -1    0    0  501    0  0.00000000000E+00  0.00000000000E+00  0.11479535072E+04  0.11479535072E+04  0.00000000000E+00 0.  1.
         -2   -1    0    0    0  501 -0.00000000000E+00 -0.00000000000E+00 -0.88158676524E+03  0.88158676524E+03  0.00000000000E+00 0. -1.
         23    2    1    2    0    0  0.17605672829E+03 -0.62051510625E+03  0.57296032204E+03  0.86735287483E+03  0.89344894573E+02 0.  0.
        254    2    1    2    0    0 -0.17605672829E+03  0.62051510625E+03 -0.30659358012E+03  0.11621873976E+04  0.91686692329E+03 0.  0.
        -24    2    4    4    0    0 -0.12804657732E+03 -0.18899499770E+03 -0.24541816654E+03  0.34477343291E+03  0.80768858178E+02 0.  0.
         24    2    4    4    0    0 -0.48010150972E+02  0.80951010395E+03 -0.61175413578E+02  0.81741396465E+03  0.82532268789E+02 0.  0.
         11    1    3    3    0    0  0.17632686167E+03 -0.49523219576E+03  0.47099036204E+03  0.70581726460E+03  0.00000000000E+00 0.  1.
        -11    1    3    3    0    0 -0.27013337860E+00 -0.12528291048E+03  0.10196996000E+03  0.16153561023E+03  0.00000000000E+00 0. -1.
          2    1    6    6  502    0 -0.70327995659E+02  0.51736067063E+03 -0.38301668522E+02  0.52352183173E+03  0.00000000000E+00 0. -1.
          3    1    5    5  503    0 -0.82030849959E+02 -0.15587542936E+03 -0.22210314261E+03  0.28347136677E+03  0.00000000000E+00 0. -1.
         -4    1    5    5    0  503 -0.46015727360E+02 -0.33119568340E+02 -0.23315023934E+02  0.61302066136E+02  0.00000000000E+00 0.  1.
         -1    1    6    6    0  502  0.22317844688E+02  0.29214943332E+03 -0.22873745055E+02  0.29389213292E+03  0.00000000000E+00 0.  1.
<mgrwt>
<rscale>  0 0.20119847E+04</rscale>
<asrwt>0</asrwt>
<pdfrwt beam="1">  1        2 0.17660823E+00 0.20119847E+04</pdfrwt>
<pdfrwt beam="2">  1       -2 0.13562873E+00 0.20119847E+04</pdfrwt>
<totfact> 0.73680439E+00</totfact>
</mgrwt>
</event>
<event>
12    1  0.1549527E-007  0.1945430E+04  0.7818608E-02  0.8632568E-01
          1   -1    0    0  501    0  0.00000000000E+00  0.00000000000E+00  0.72285414550E+03  0.72285414550E+03  0.00000000000E+00 0. -1.
         -1   -1    0    0    0  501 -0.00000000000E+00 -0.00000000000E+00 -0.13089419368E+04  0.13089419368E+04  0.00000000000E+00 0.  1.
         23    2    1    2    0    0  0.47218324119E+03 -0.47134897199E+03  0.91251553044E+02  0.67964446529E+03  0.91993948758E+02 0.  0.
        254    2    1    2    0    0 -0.47218324119E+03  0.47134897199E+03 -0.67733934438E+03  0.13521516170E+04  0.96145646878E+03 0.  0.
        -24    2    4    4    0    0  0.27012176069E+03  0.24928706068E+03 -0.11966748425E+03  0.39422347721E+03  0.77343642111E+02 0.  0.
         24    2    4    4    0    0 -0.74230500188E+03  0.22206191131E+03 -0.55767186013E+03  0.95792813983E+03  0.79373857414E+02 0.  0.
         11    1    3    3    0    0  0.47515193505E+03 -0.46932247748E+03  0.94849550643E+02  0.67455866054E+03  0.00000000000E+00 0. -1.
        -11    1    3    3    0    0 -0.29686938598E+01 -0.20264945060E+01 -0.35979975987E+01  0.50858047481E+01  0.00000000000E+00 0.  1.
          4    1    6    6  502    0 -0.41478098563E+03  0.16442809325E+03 -0.31106525257E+03  0.54391309531E+03  0.00000000000E+00 0. -1.
          3    1    5    5  503    0  0.19952651283E+03  0.18295803830E+03 -0.12289958063E+03  0.29730250591E+03  0.00000000000E+00 0. -1.
         -4    1    5    5    0  503  0.70595247857E+02  0.66329022386E+02  0.32320963834E+01  0.96920971300E+02  0.00000000000E+00 0.  1.
         -3    1    6    6    0  502 -0.32752401625E+03  0.57633818054E+02 -0.24660660755E+03  0.41401504453E+03  0.00000000000E+00 0.  1.
<mgrwt>
<rscale>  0 0.19454296E+04</rscale>
<asrwt>0</asrwt>
<pdfrwt beam="1">  1        1 0.11120833E+00 0.19454296E+04</pdfrwt>
<pdfrwt beam="2">  1       -1 0.20137568E+00 0.19454296E+04</pdfrwt>
<totfact> 0.35588258E+00</totfact>
</mgrwt>
</event>
<event>
12    1  0.1549527E-007  0.1472661E+04  0.7818608E-02  0.8902839E-01
         -2   -1    0    0    0  501 -0.00000000000E+00  0.00000000000E+00  0.19918199958E+03  0.19918199958E+03  0.00000000000E+00 0.  1.
          2   -1    0    0  501    0  0.00000000000E+00 -0.00000000000E+00 -0.27220459657E+04  0.27220459657E+04  0.00000000000E+00 0. -1.
         23    2    1    2    0    0 -0.31114561695E+03  0.32900744792E+03 -0.83916013725E+03  0.95638696182E+03  0.73680316640E+02 0.  0.
        254    2    1    2    0    0  0.31114561695E+03 -0.32900744792E+03 -0.16837038289E+04  0.19648410034E+04  0.90591616047E+03 0.  0.
        -24    2    4    4    0    0  0.70193366478E+02 -0.41348574972E+03 -0.22681496155E+03  0.48355239369E+03  0.80500414555E+02 0.  0.
         24    2    4    4    0    0  0.24095225047E+03  0.84478301798E+02 -0.14568888673E+04  0.14812886098E+04  0.80599027627E+02 0.  0.
         11    1    3    3    0    0 -0.53697987062E+02  0.47201852298E+02 -0.19419999166E+03  0.20694232393E+03  0.00000000000E+00 0. -1.
        -11    1    3    3    0    0 -0.25744762988E+03  0.28180559562E+03 -0.64496014559E+03  0.74944463788E+03  0.00000000000E+00 0.  1.
          2    1    6    6  502    0  0.27262069438E+02 -0.15531845430E+02 -0.14545440235E+03  0.14880000610E+03  0.00000000000E+00 0. -1.
          3    1    5    5  503    0  0.53111339578E+02 -0.13315210756E+03 -0.10353758727E+03  0.17683418820E+03  0.00000000000E+00 0. -1.
         -4    1    5    5    0  503  0.17082026900E+02 -0.28033364216E+03 -0.12327737428E+03  0.30671820549E+03  0.00000000000E+00 0.  1.
         -1    1    6    6    0  502  0.21369018103E+03  0.10001014723E+03 -0.13114344649E+04  0.13324886037E+04  0.00000000000E+00 0.  1.
<mgrwt>
<rscale>  0 0.14726609E+04</rscale>
<asrwt>0</asrwt>
<pdfrwt beam="1">  1        2 0.41877626E+00 0.14726609E+04</pdfrwt>
<pdfrwt beam="2">  1       -2 0.30643388E-01 0.14726609E+04</pdfrwt>
<totfact> 0.24700816E+01</totfact>
</mgrwt>
</event>
<event>
12    1  0.1549527E-007  0.1586375E+04  0.7818608E-02  0.8828962E-01
         -2   -1    0    0    0  501 -0.00000000000E+00  0.00000000000E+00  0.76823689489E+03  0.76823689489E+03  0.00000000000E+00 0.  1.
          2   -1    0    0  501    0  0.00000000000E+00 -0.00000000000E+00 -0.81894833616E+03  0.81894833616E+03  0.00000000000E+00 0. -1.
         23    2    1    2    0    0 -0.36080545918E+03 -0.35736197744E+03  0.14647882572E+03  0.53641851805E+03  0.91654884337E+02 0.  0.
        254    2    1    2    0    0  0.36080545918E+03  0.35736197744E+03 -0.19719026700E+03  0.10507667130E+04  0.89852018423E+03 0.  0.
        -24    2    4    4    0    0 -0.29323175972E+03  0.14711822208E+03 -0.89253172950E+02  0.35089301694E+03  0.86782165644E+02 0.  0.
         24    2    4    4    0    0  0.65403721891E+03  0.21024375536E+03 -0.10793709405E+03  0.69987369607E+03  0.78775972219E+02 0.  0.
         11    1    3    3    0    0 -0.27686846119E+03 -0.22025752486E+03  0.11938914725E+03  0.37339428295E+03  0.00000000000E+00 0.  1.
        -11    1    3    3    0    0 -0.83936997993E+02 -0.13710445258E+03  0.27089678474E+02  0.16302423509E+03  0.00000000000E+00 0. -1.
          2    1    6    6  502    0  0.64391564022E+03  0.19913385203E+03 -0.11416608411E+03  0.68360481091E+03  0.00000000000E+00 0. -1.
          1    1    5    5  503    0 -0.23855097959E+03  0.80944305588E+02 -0.51524716444E+02  0.25712515799E+03  0.00000000000E+00 0. -1.
         -4    1    5    5    0  503 -0.54680780137E+02  0.66173916489E+02 -0.37728456506E+02  0.93767858941E+02  0.00000000000E+00 0.  1.
         -1    1    6    6    0  502  0.10121578693E+02  0.11109903327E+02  0.62289900664E+01  0.16268885162E+02  0.00000000000E+00 0.  1.
<mgrwt>
<rscale>  0 0.15863749E+04</rscale>
<asrwt>0</asrwt>
<pdfrwt beam="1">  1        2 0.12599205E+00 0.15863749E+04</pdfrwt>
<pdfrwt beam="2">  1       -2 0.11819029E+00 0.15863749E+04</pdfrwt>
<totfact> 0.17669312E+01</totfact>
</mgrwt>
</event>
<event>
12    1  0.1549527E-007  0.1955876E+04  0.7818608E-02  0.8627533E-01
         -1   -1    0    0    0  501 -0.00000000000E+00  0.00000000000E+00  0.15796301617E+04  0.15796301617E+04  0.00000000000E+00 0.  1.
          1   -1    0    0  501    0  0.00000000000E+00 -0.00000000000E+00 -0.60543435550E+03  0.60543435550E+03  0.00000000000E+00 0. -1.
         23    2    1    2    0    0 -0.34934964895E+02  0.68071481486E+03 -0.24032290203E+02  0.68849390865E+03  0.94091446650E+02 0.  0.
        254    2    1    2    0    0  0.34934964895E+02 -0.68071481486E+03  0.99822809643E+03  0.14965706086E+04  0.88242344883E+03 0.  0.
        -24    2    4    4    0    0 -0.33894008299E+03 -0.49112364931E+03  0.85625209269E+03  0.10468038247E+04  0.80918369359E+02 0.  0.
         24    2    4    4    0    0  0.37387504788E+03 -0.18959116555E+03  0.14197600374E+03  0.44976678384E+03  0.80035071865E+02 0.  0.
         13    1    3    3    0    0 -0.24064465947E+02  0.63952290515E+03 -0.43915035986E+02  0.64148045576E+03  0.00000000000E+00 0. -1.
        -13    1    3    3    0    0 -0.10870498948E+02  0.41191909707E+02  0.19882745783E+02  0.47013452889E+02  0.00000000000E+00 0.  1.
          2    1    6    6  502    0  0.36277974674E+03 -0.18446851495E+03  0.11947356225E+03  0.42416000487E+03  0.00000000000E+00 0. -1.
          3    1    5    5  503    0 -0.25601231289E+03 -0.41042034725E+03  0.72811858385E+03  0.87415321194E+03  0.00000000000E+00 0. -1.
         -4    1    5    5    0  503 -0.82927770092E+02 -0.80703302060E+02  0.12813350884E+03  0.17265061281E+03  0.00000000000E+00 0.  1.
         -1    1    6    6    0  502  0.11095301140E+02 -0.51226506010E+01  0.22502441487E+02  0.25606778974E+02  0.00000000000E+00 0.  1.
<mgrwt>
<rscale>  0 0.19558756E+04</rscale>
<asrwt>0</asrwt>
<pdfrwt beam="1">  1        1 0.93143747E-01 0.19558756E+04</pdfrwt>
<pdfrwt beam="2">  1       -1 0.24302002E+00 0.19558756E+04</pdfrwt>
<totfact> 0.24379120E+00</totfact>
</mgrwt>
</event>
<event>
12    1  0.1549527E-007  0.2860668E+04  0.7818608E-02  0.8284677E-01
         -2   -1    0    0    0  501 -0.00000000000E+00  0.00000000000E+00  0.11090583392E+04  0.11090583392E+04  0.00000000000E+00 0.  1.
          2   -1    0    0  501    0  0.00000000000E+00 -0.00000000000E+00 -0.18446777393E+04  0.18446777393E+04  0.00000000000E+00 0. -1.
         23    2    1    2    0    0  0.49428934584E+03  0.16452051477E+03  0.88271708099E+03  0.10289343346E+04  0.90152441559E+02 0.  0.
        254    2    1    2    0    0 -0.49428934584E+03 -0.16452051477E+03 -0.16183364810E+04  0.19248017438E+04  0.90247428221E+03 0.  0.
        -24    2    4    4    0    0 -0.62208915246E+02 -0.13036763758E+03  0.71932425075E+02  0.17836864308E+03  0.75996243297E+02 0.  0.
         24    2    4    4    0    0 -0.43208043059E+03 -0.34152877198E+02 -0.16902689061E+04  0.17464331008E+04  0.71830932986E+02 0.  0.
         11    1    3    3    0    0  0.97747812469E+02  0.53389115831E+02  0.13227521522E+03  0.17292126848E+03  0.00000000000E+00 0. -1.
        -11    1    3    3    0    0  0.39654153337E+03  0.11113139894E+03  0.75044186577E+03  0.85601306615E+03  0.00000000000E+00 0.  1.
          2    1    6    6  502    0 -0.42528983298E+03 -0.23548831131E+02 -0.16567343343E+04  0.17106123594E+04  0.00000000000E+00 0. -1.
          3    1    5    5  503    0 -0.26045796108E+02 -0.81489788572E+02  0.79884800910E+02  0.11704935093E+03  0.00000000000E+00 0. -1.
         -4    1    5    5    0  503 -0.36163119138E+02 -0.48877849003E+02 -0.79523758348E+01  0.61319292155E+02  0.00000000000E+00 0.  1.
         -1    1    6    6    0  502 -0.67905976091E+01 -0.10604046067E+02 -0.33534571768E+02  0.35820741374E+02  0.00000000000E+00 0.  1.
<mgrwt>
<rscale>  0 0.28606679E+04</rscale>
<asrwt>0</asrwt>
<pdfrwt beam="1">  1        2 0.28379657E+00 0.28606679E+04</pdfrwt>
<pdfrwt beam="2">  1       -2 0.17062436E+00 0.28606679E+04</pdfrwt>
<totfact> 0.14888716E+00</totfact>
</mgrwt>
</event>
<event>
12    1  0.1549527E-007  0.1140376E+04  0.7818608E-02  0.9166708E-01
          2   -1    0    0  501    0  0.00000000000E+00  0.00000000000E+00  0.75044818505E+03  0.75044818505E+03  0.00000000000E+00 0. -1.
         -2   -1    0    0    0  501 -0.00000000000E+00 -0.00000000000E+00 -0.43322677248E+03  0.43322677248E+03  0.00000000000E+00 0.  1.
         23    2    1    2    0    0 -0.15223565691E+03  0.10078104290E+03 -0.19457656680E+01  0.20462545958E+03  0.92386572958E+02 0.  0.
        254    2    1    2    0    0  0.15223565691E+03 -0.10078104290E+03  0.31916717823E+03  0.97904949795E+03  0.90737958867E+03 0.  0.
        -24    2    4    4    0    0 -0.25140999859E+03 -0.33969955206E+03  0.25127065345E+03  0.49815593092E+03  0.80122513442E+02 0.  0.
         24    2    4    4    0    0  0.40364565549E+03  0.23891850916E+03  0.67896524777E+02  0.48089356703E+03  0.81466652785E+02 0.  0.
         13    1    3    3    0    0 -0.41520864981E+02 -0.14718770217E+02 -0.67114572632E+01  0.44560835765E+02  0.00000000000E+00 0.  1.
        -13    1    3    3    0    0 -0.11071479192E+03  0.11549981311E+03  0.47656915952E+01  0.16006462381E+03  0.00000000000E+00 0. -1.
          4    1    6    6  502    0  0.33046743917E+03  0.21108214683E+03  0.28277496257E+02  0.39314630591E+03  0.00000000000E+00 0. -1.
          1    1    5    5  503    0 -0.21683316928E+03 -0.24131680987E+03  0.20719659388E+03  0.38494266397E+03  0.00000000000E+00 0. -1.
         -2    1    5    5    0  503 -0.34576829306E+02 -0.98382742194E+02  0.44074059571E+02  0.11321326695E+03  0.00000000000E+00 0.  1.
         -1    1    6    6    0  502  0.73178216330E+02  0.27836362334E+02  0.39619028519E+02  0.87747261120E+02  0.00000000000E+00 0.  1.
<mgrwt>
<rscale>  0 0.11403758E+04</rscale>
<asrwt>0</asrwt>
<pdfrwt beam="1">  1        2 0.11545357E+00 0.11403758E+04</pdfrwt>
<pdfrwt beam="2">  1       -2 0.66650272E-01 0.11403758E+04</pdfrwt>
<totfact> 0.76793666E+01</totfact>
</mgrwt>
</event>
<event>
12    1  0.1549527E-007  0.1517958E+04  0.7818608E-02  0.8872598E-01
         -1   -1    0    0    0  501 -0.00000000000E+00  0.00000000000E+00  0.90695039503E+03  0.90695039503E+03  0.00000000000E+00 0.  1.
          1   -1    0    0  501    0  0.00000000000E+00 -0.00000000000E+00 -0.63514972017E+03  0.63514972017E+03  0.00000000000E+00 0. -1.
         23    2    1    2    0    0 -0.35891012250E+03 -0.15531187244E+03  0.38864226951E+03  0.55911463970E+03  0.92887635956E+02 0.  0.
        254    2    1    2    0    0  0.35891012250E+03  0.15531187244E+03 -0.11684159464E+03  0.98298547551E+03  0.89424282668E+03 0.  0.
        -24    2    4    4    0    0 -0.24436463652E+03 -0.13298260922E+03 -0.10989035908E+03  0.30959564079E+03  0.79844347569E+02 0.  0.
         24    2    4    4    0    0  0.60327475903E+03  0.28829448167E+03 -0.69512355624E+01  0.67338983472E+03  0.79695713753E+02 0.  0.
         13    1    3    3    0    0 -0.19394266446E+03 -0.54308810926E+02  0.14573827449E+03  0.24860178739E+03  0.00000000000E+00 0. -1.
        -13    1    3    3    0    0 -0.16496745804E+03 -0.10100306152E+03  0.24290399502E+03  0.31051285230E+03  0.00000000000E+00 0.  1.
          4    1    6    6  502    0  0.25878232002E+03  0.80365191436E+02 -0.26167503215E+01  0.27098653201E+03  0.00000000000E+00 0. -1.
          3    1    5    5  503    0 -0.48212869501E+02  0.59682937017E+01 -0.25234317315E+02  0.54743694483E+02  0.00000000000E+00 0. -1.
         -4    1    5    5    0  503 -0.19615176702E+03 -0.13895090293E+03 -0.84656041767E+02  0.25485194631E+03  0.00000000000E+00 0.  1.
         -1    1    6    6    0  502  0.34449243901E+03  0.20792929023E+03 -0.43344852409E+01  0.40240330271E+03  0.00000000000E+00 0.  1.
<mgrwt>
<rscale>  0 0.15179582E+04</rscale>
<asrwt>0</asrwt>
<pdfrwt beam="1">  1        1 0.97715341E-01 0.15179582E+04</pdfrwt>
<pdfrwt beam="2">  1       -1 0.13953083E+00 0.15179582E+04</pdfrwt>
<totfact> 0.12874931E+01</totfact>
</mgrwt>
</event>
<event>
12    1  0.1549527E-007  0.2962035E+04  0.7818608E-02  0.8254656E-01
         -2   -1    0    0    0  501 -0.00000000000E+00  0.00000000000E+00  0.12707581553E+04  0.12707581553E+04  0.00000000000E+00 0.  1.
          2   -1    0    0  501    0  0.00000000000E+00 -0.00000000000E+00 -0.17260658122E+04  0.17260658122E+04  0.00000000000E+00 0. -1.
         23    2    1    2    0    0 -0.34821924798E+03  0.11124941782E+04  0.46571756469E+03  0.12586293088E+04  0.91405392165E+02 0.  0.
        254    2    1    2    0    0  0.34821924798E+03 -0.11124941782E+04 -0.92102522160E+03  0.17381946587E+04  0.90229334017E+03 0.  0.
        -24    2    4    4    0    0 -0.15639389356E+03 -0.60892346176E+01  0.47159535171E+02  0.18194653398E+03  0.79902382627E+02 0.  0.
         24    2    4    4    0    0  0.50461314154E+03 -0.11064049435E+04 -0.96818475677E+03  0.15562481247E+04  0.75895855190E+02 0.  0.
         11    1    3    3    0    0 -0.13545913669E+03  0.36658679893E+03  0.19769354864E+03  0.43797008806E+03  0.00000000000E+00 0. -1.
        -11    1    3    3    0    0 -0.21276011129E+03  0.74590737924E+03  0.26802401605E+03  0.82065922071E+03  0.00000000000E+00 0.  1.
          4    1    6    6  502    0  0.47625123751E+03 -0.10391115686E+04 -0.88539403944E+03  0.14458529310E+04  0.00000000000E+00 0. -1.
          3    1    5    5  503    0 -0.16474327715E+03 -0.32842311941E+01  0.50780534263E+02  0.17242330527E+03  0.00000000000E+00 0. -1.
         -4    1    5    5    0  503  0.83493835931E+01 -0.28050034235E+01 -0.36209990924E+01  0.95232287077E+01  0.00000000000E+00 0.  1.
         -3    1    6    6    0  502  0.28361904027E+02 -0.67293374997E+02 -0.82790717327E+02  0.11039519371E+03  0.00000000000E+00 0.  1.
<mgrwt>
<rscale>  0 0.29620346E+04</rscale>
<asrwt>0</asrwt>
<pdfrwt beam="1">  1        2 0.26554858E+00 0.29620346E+04</pdfrwt>
<pdfrwt beam="2">  1       -2 0.19550126E+00 0.29620346E+04</pdfrwt>
<totfact> 0.11600880E+00</totfact>
</mgrwt>
</event>
<event>
12    1  0.1549527E-007  0.1376806E+04  0.7818608E-02  0.8970781E-01
          2   -1    0    0  501    0  0.00000000000E+00  0.00000000000E+00  0.36274233035E+03  0.36274233035E+03  0.00000000000E+00 0. -1.
         -2   -1    0    0    0  501 -0.00000000000E+00 -0.00000000000E+00 -0.13064340004E+04  0.13064340004E+04  0.00000000000E+00 0.  1.
         23    2    1    2    0    0 -0.19604483430E+03 -0.11329489570E+03 -0.59512306133E+03  0.64361558362E+03  0.93809652547E+02 0.  0.
        254    2    1    2    0    0  0.19604483430E+03  0.11329489570E+03 -0.34856860874E+03  0.10255607471E+04  0.93755291084E+03 0.  0.
        -24    2    4    4    0    0 -0.20994384390E+02  0.50400261221E+03 -0.17432379862E+03  0.53938041173E+03  0.77993874752E+02 0.  0.
         24    2    4    4    0    0  0.21703921869E+03 -0.39070771651E+03 -0.17424481012E+03  0.48618033541E+03  0.79066570002E+02 0.  0.
         13    1    3    3    0    0 -0.18568778791E+03 -0.12791532144E+03 -0.56789426426E+03  0.61102060473E+03  0.00000000000E+00 0.  1.
        -13    1    3    3    0    0 -0.10357046391E+02  0.14620425738E+02 -0.27228797073E+02  0.32594978888E+02  0.00000000000E+00 0. -1.
          2    1    6    6  502    0  0.11767343474E+03 -0.19925799930E+03 -0.13190546094E+03  0.26636410824E+03  0.00000000000E+00 0. -1.
          1    1    5    5  503    0 -0.49960908572E+02  0.36536268860E+03 -0.12885817652E+03  0.39062823280E+03  0.00000000000E+00 0. -1.
         -2    1    5    5    0  503  0.28966524182E+02  0.13863992361E+03 -0.45465622102E+02  0.14875217892E+03  0.00000000000E+00 0.  1.
         -1    1    6    6    0  502  0.99365783945E+02 -0.19144971721E+03 -0.42339349175E+02  0.21981622717E+03  0.00000000000E+00 0.  1.
<mgrwt>
<rscale>  0 0.13768063E+04</rscale>
<asrwt>0</asrwt>
<pdfrwt beam="1">  1        2 0.55806512E-01 0.13768063E+04</pdfrwt>
<pdfrwt beam="2">  1       -2 0.20098985E+00 0.13768063E+04</pdfrwt>
<totfact> 0.11329560E+01</totfact>
</mgrwt>
</event>
<event>
12    1  0.1549527E-007  0.2228650E+04  0.7818608E-02  0.8506597E-01
          1   -1    0    0  501    0  0.00000000000E+00  0.00000000000E+00  0.94601260402E+03  0.94601260402E+03  0.00000000000E+00 0. -1.
         -1   -1    0    0    0  501 -0.00000000000E+00 -0.00000000000E+00 -0.13125825922E+04  0.13125825922E+04  0.00000000000E+00 0.  1.
         23    2    1    2    0    0 -0.29107484831E+03 -0.56647904572E+03 -0.74901764352E+03  0.98741726062E+03  0.91336409518E+02 0.  0.
        254    2    1    2    0    0  0.29107484831E+03  0.56647904572E+03  0.38244765530E+03  0.12711779356E+04  0.10315057239E+04 0.  0.
        -24    2    4    4    0    0  0.65227374987E+03  0.38710223321E+03  0.92037754135E+02  0.76839250150E+03  0.81528549878E+02 0.  0.
         24    2    4    4    0    0 -0.36119890156E+03  0.17937681250E+03  0.29040990117E+03  0.50278543414E+03  0.76253490008E+02 0.  0.
         11    1    3    3    0    0 -0.20694858522E+03 -0.32516335075E+03 -0.49162569637E+03  0.62470372732E+03  0.00000000000E+00 0.  1.
        -11    1    3    3    0    0 -0.84126263091E+02 -0.24131569497E+03 -0.25739194715E+03  0.36271353330E+03  0.00000000000E+00 0. -1.
          2    1    6    6  502    0 -0.21721592670E+03  0.14647549862E+03  0.17097118092E+03  0.31284017519E+03  0.00000000000E+00 0. -1.
          3    1    5    5  503    0  0.24990263588E+03  0.10707369764E+03  0.16406550800E+02  0.27236974695E+03  0.00000000000E+00 0. -1.
         -4    1    5    5    0  503  0.40237111399E+03  0.28002853558E+03  0.75631203335E+02  0.49602275455E+03  0.00000000000E+00 0.  1.
         -1    1    6    6    0  502 -0.14398297486E+03  0.32901313887E+02  0.11943872024E+03  0.18994525895E+03  0.00000000000E+00 0.  1.
<mgrwt>
<rscale>  0 0.22286495E+04</rscale>
<asrwt>0</asrwt>
<pdfrwt beam="1">  1        1 0.14554040E+00 0.22286495E+04</pdfrwt>
<pdfrwt beam="2">  1       -1 0.20193578E+00 0.22286495E+04</pdfrwt>
<totfact> 0.22162080E+00</totfact>
</mgrwt>
</event>
<event>
12    1  0.1549527E-007  0.1898538E+04  0.7818608E-02  0.8655585E-01
         -2   -1    0    0    0  501 -0.00000000000E+00  0.00000000000E+00  0.26357993744E+03  0.26357993744E+03  0.00000000000E+00 0.  1.
          2   -1    0    0  501    0  0.00000000000E+00 -0.00000000000E+00 -0.34187401935E+04  0.34187401935E+04  0.00000000000E+00 0. -1.
         23    2    1    2    0    0  0.35935908192E+03 -0.26755811511E+03 -0.23486401300E+04  0.23927907123E+04  0.92793522864E+02 0.  0.
        254    2    1    2    0    0 -0.35935908192E+03  0.26755811511E+03 -0.80652012607E+03  0.12895294186E+04  0.90093568754E+03 0.  0.
        -24    2    4    4    0    0 -0.49368629002E+03  0.44358973005E+03 -0.30325930484E+03  0.73377613345E+03  0.77221800622E+02 0.  0.
         24    2    4    4    0    0  0.13432720810E+03 -0.17603161494E+03 -0.50326082122E+03  0.55575328519E+03  0.80989700145E+02 0.  0.
         11    1    3    3    0    0  0.49536616337E+02 -0.31293672869E+02 -0.50773068693E+03  0.51110040185E+03  0.00000000000E+00 0.  1.
        -11    1    3    3    0    0  0.30982246558E+03 -0.23626444224E+03 -0.18409094431E+04  0.18816903105E+04  0.00000000000E+00 0. -1.
          2    1    6    6  502    0  0.16123539239E+02  0.69194257878E+01 -0.29566739972E+02  0.34380795270E+02  0.00000000000E+00 0. -1.
          3    1    5    5  503    0 -0.11288122400E+03  0.14720696168E+03 -0.90510020318E+02  0.20640766477E+03  0.00000000000E+00 0. -1.
         -2    1    5    5    0  503 -0.38080506602E+03  0.29638276837E+03 -0.21274928453E+03  0.52736846868E+03  0.00000000000E+00 0.  1.
         -1    1    6    6    0  502  0.11820366886E+03 -0.18295104073E+03 -0.47369408125E+03  0.52137248992E+03  0.00000000000E+00 0.  1.
<mgrwt>
<rscale>  0 0.18985377E+04</rscale>
<asrwt>0</asrwt>
<pdfrwt beam="1">  1        2 0.52596000E+00 0.18985377E+04</pdfrwt>
<pdfrwt beam="2">  1       -2 0.40550762E-01 0.18985377E+04</pdfrwt>
<totfact> 0.50226267E+00</totfact>
</mgrwt>
</event>
<event>
12    1  0.1549527E-007  0.2702547E+04  0.7818608E-02  0.8334179E-01
         -2   -1    0    0    0  501 -0.00000000000E+00  0.00000000000E+00  0.72998291332E+03  0.72998291332E+03  0.00000000000E+00 0.  1.
          2   -1    0    0  501    0  0.00000000000E+00 -0.00000000000E+00 -0.25013468501E+04  0.25013468501E+04  0.00000000000E+00 0. -1.
         23    2    1    2    0    0  0.10951748439E+04 -0.44813821616E+03 -0.10436362861E+04  0.15802763355E+04  0.88661148805E+02 0.  0.
        254    2    1    2    0    0 -0.10951748439E+04  0.44813821616E+03 -0.72772765059E+03  0.16510534279E+04  0.89227467115E+03 0.  0.
        -24    2    4    4    0    0 -0.91018182452E+03 -0.77737440231E+02 -0.40995346410E+03  0.10043950537E+04  0.79205541511E+02 0.  0.
         24    2    4    4    0    0 -0.18499301937E+03  0.52587565639E+03 -0.31777418649E+03  0.64665837420E+03  0.80118637808E+02 0.  0.
         13    1    3    3    0    0  0.32919089089E+03 -0.10983913149E+03 -0.35076143355E+03  0.49342158518E+03  0.00000000000E+00 0.  1.
        -13    1    3    3    0    0  0.76598395300E+03 -0.33829908467E+03 -0.69287485259E+03  0.10868547503E+04  0.00000000000E+00 0. -1.
          2    1    6    6  502    0 -0.46453473653E+02  0.72423579293E+02 -0.25795491091E+02  0.89824870792E+02  0.00000000000E+00 0. -1.
          1    1    5    5  503    0 -0.41569073322E+03 -0.66748021739E+02 -0.21513375046E+03  0.47279658912E+03  0.00000000000E+00 0. -1.
         -2    1    5    5    0  503 -0.49449109130E+03 -0.10989418492E+02 -0.19481971364E+03  0.53159846455E+03  0.00000000000E+00 0.  1.
         -1    1    6    6    0  502 -0.13853954571E+03  0.45345207710E+03 -0.29197869540E+03  0.55683350341E+03  0.00000000000E+00 0.  1.
<mgrwt>
<rscale>  0 0.27025473E+04</rscale>
<asrwt>0</asrwt>
<pdfrwt beam="1">  1        2 0.38482259E+00 0.27025473E+04</pdfrwt>
<pdfrwt beam="2">  1       -2 0.11230506E+00 0.27025473E+04</pdfrwt>
<totfact> 0.19036820E+00</totfact>
</mgrwt>
</event>
<event>
12    1  0.1549527E-007  0.1148757E+04  0.7818608E-02  0.9158931E-01
          2   -1    0    0  501    0  0.00000000000E+00  0.00000000000E+00  0.58253935892E+03  0.58253935892E+03  0.00000000000E+00 0. -1.
         -2   -1    0    0    0  501 -0.00000000000E+00 -0.00000000000E+00 -0.56633161145E+03  0.56633161145E+03  0.00000000000E+00 0.  1.
         23    2    1    2    0    0  0.16591221260E+03 -0.29771302668E+02  0.57880671348E+02  0.19974718441E+03  0.90197410233E+02 0.  0.
        254    2    1    2    0    0 -0.16591221260E+03  0.29771302668E+02 -0.41672923877E+02  0.94912378596E+03  0.93310564019E+03 0.  0.
        -24    2    4    4    0    0  0.17918856426E+03  0.90167224708E+02  0.35381195408E+03  0.41456707373E+03  0.80276333986E+02 0.  0.
         24    2    4    4    0    0 -0.34510077686E+03 -0.60395922041E+02 -0.39548487795E+03  0.53455671224E+03  0.81242700134E+02 0.  0.
         11    1    3    3    0    0  0.12826234862E+03 -0.39633775644E+02  0.53283082095E+01  0.13435198962E+03  0.00000000000E+00 0.  1.
        -11    1    3    3    0    0  0.37649863977E+02  0.98624729768E+01  0.52552363138E+02  0.65395194794E+02  0.00000000000E+00 0. -1.
          4    1    6    6  502    0 -0.27590817179E+03 -0.48538308384E+02 -0.35921337190E+03  0.45553872854E+03  0.00000000000E+00 0. -1.
          1    1    5    5  503    0  0.58048696122E+02  0.26254845634E+02  0.48925524831E+02  0.80328544246E+02  0.00000000000E+00 0. -1.
         -2    1    5    5    0  503  0.12113986814E+03  0.63912379075E+02  0.30488642924E+03  0.33423852948E+03  0.00000000000E+00 0.  1.
         -3    1    6    6    0  502 -0.69192605067E+02 -0.11857613657E+02 -0.36271506047E+02  0.79017983703E+02  0.00000000000E+00 0.  1.
<mgrwt>
<rscale>  0 0.11487566E+04</rscale>
<asrwt>0</asrwt>
<pdfrwt beam="1">  1        2 0.89621440E-01 0.11487566E+04</pdfrwt>
<pdfrwt beam="2">  1       -2 0.87127940E-01 0.11487566E+04</pdfrwt>
<totfact> 0.57966251E+01</totfact>
</mgrwt>
</event>
<event>
12    1  0.1549527E-007  0.2499441E+04  0.7818608E-02  0.8403185E-01
          1   -1    0    0  501    0  0.00000000000E+00  0.00000000000E+00  0.18749290847E+04  0.18749290847E+04  0.00000000000E+00 0. -1.
         -1   -1    0    0    0  501 -0.00000000000E+00 -0.00000000000E+00 -0.83299204040E+03  0.83299204040E+03  0.00000000000E+00 0.  1.
         23    2    1    2    0    0 -0.58878287185E+03  0.14063983742E+03  0.14321455027E+04  0.15574237713E+04  0.89906775876E+02 0.  0.
        254    2    1    2    0    0  0.58878287185E+03 -0.14063983742E+03 -0.39020845844E+03  0.11504973538E+04  0.89718263803E+03 0.  0.
        -24    2    4    4    0    0  0.44308404851E+03  0.24878873619E+02 -0.65589037843E+03  0.79597639581E+03  0.80273294209E+02 0.  0.
         24    2    4    4    0    0  0.14569882334E+03 -0.16551871104E+03  0.26568191999E+03  0.35452095798E+03  0.80458910066E+02 0.  0.
         11    1    3    3    0    0 -0.46043311405E+03  0.76839923746E+02  0.11448269946E+04  0.12363380905E+04  0.00000000000E+00 0. -1.
        -11    1    3    3    0    0 -0.12834975780E+03  0.63799913677E+02  0.28731850811E+03  0.32108568080E+03  0.00000000000E+00 0.  1.
          2    1    6    6  502    0  0.12655811655E+03 -0.11157038283E+03  0.15132315336E+03  0.22663539867E+03  0.00000000000E+00 0. -1.
          3    1    5    5  503    0  0.44128687824E+03  0.32890233745E+02 -0.64723227056E+03  0.78404431535E+03  0.00000000000E+00 0. -1.
         -4    1    5    5    0  503  0.17971702745E+01 -0.80113601266E+01 -0.86581078753E+01  0.11932080458E+02  0.00000000000E+00 0.  1.
         -1    1    6    6    0  502  0.19140706786E+02 -0.53948328214E+02  0.11435876663E+03  0.12788555930E+03  0.00000000000E+00 0.  1.
<mgrwt>
<rscale>  0 0.24994407E+04</rscale>
<asrwt>0</asrwt>
<pdfrwt beam="1">  1        1 0.28845063E+00 0.24994407E+04</pdfrwt>
<pdfrwt beam="2">  1       -1 0.12815262E+00 0.24994407E+04</pdfrwt>
<totfact> 0.16924138E+00</totfact>
</mgrwt>
</event>
<event>
12    1  0.1549527E-007  0.3074812E+04  0.7818608E-02  0.8222685E-01
          1   -1    0    0  501    0  0.00000000000E+00  0.00000000000E+00  0.10389238166E+04  0.10389238166E+04  0.00000000000E+00 0. -1.
         -1   -1    0    0    0  501 -0.00000000000E+00 -0.00000000000E+00 -0.22750627897E+04  0.22750627897E+04  0.00000000000E+00 0.  1.
         23    2    1    2    0    0  0.56445808065E+03  0.12265816720E+04 -0.16185681459E+03  0.13629367278E+04  0.91013035453E+02 0.  0.
        254    2    1    2    0    0 -0.56445808065E+03 -0.12265816720E+04 -0.10742821585E+04  0.19510498785E+04  0.91071287975E+03 0.  0.
        -24    2    4    4    0    0 -0.97505557367E+00 -0.61696233929E+03 -0.41347052935E+02  0.62350316765E+03  0.80019637854E+02 0.  0.
         24    2    4    4    0    0 -0.56348302508E+03 -0.60961933274E+03 -0.10329351056E+04  0.13275467109E+04  0.79224281400E+02 0.  0.
         11    1    3    3    0    0  0.31197442351E+03  0.76353271513E+03 -0.72246782429E+02  0.82796729740E+03  0.00000000000E+00 0.  1.
        -11    1    3    3    0    0  0.25248365714E+03  0.46304895690E+03 -0.89610032165E+02  0.53496943041E+03  0.00000000000E+00 0. -1.
          4    1    6    6  502    0 -0.13489118404E+03 -0.18459627455E+03 -0.24698134751E+03  0.33655787337E+03  0.00000000000E+00 0. -1.
          3    1    5    5  503    0  0.27081163092E+01  0.13396606169E+01  0.20783140734E+01  0.36671479245E+01  0.00000000000E+00 0. -1.
         -4    1    5    5    0  503 -0.36831718828E+01 -0.61830199991E+03 -0.43425367008E+02  0.61983601972E+03  0.00000000000E+00 0.  1.
         -3    1    6    6    0  502 -0.42859184104E+03 -0.42502305819E+03 -0.78595375808E+03  0.99098883750E+03  0.00000000000E+00 0.  1.
<mgrwt>
<rscale>  0 0.30748118E+04</rscale>
<asrwt>0</asrwt>
<pdfrwt beam="1">  1        1 0.15983443E+00 0.30748118E+04</pdfrwt>
<pdfrwt beam="2">  1       -1 0.35000966E+00 0.30748118E+04</pdfrwt>
<totfact> 0.18535025E-01</totfact>
</mgrwt>
</event>
<event>
12    1  0.1549527E-007  0.1686648E+04  0.7818608E-02  0.8769016E-01
         -1   -1    0    0    0  501 -0.00000000000E+00  0.00000000000E+00  0.87889066328E+03  0.87889066328E+03  0.00000000000E+00 0.  1.
          1   -1    0    0  501    0  0.00000000000E+00 -0.00000000000E+00 -0.80919708030E+03  0.80919708030E+03  0.00000000000E+00 0. -1.
         23    2    1    2    0    0 -0.31345952840E+03 -0.46631635351E+03  0.23140924250E+03  0.61410023588E+03  0.88662532673E+02 0.  0.
        254    2    1    2    0    0  0.31345952840E+03  0.46631635351E+03 -0.16171565952E+03  0.10739875077E+04  0.90088256430E+03 0.  0.
        -24    2    4    4    0    0  0.21469658359E+03 -0.13656969845E+03 -0.34103964902E+03  0.43293433880E+03  0.79863595991E+02 0.  0.
         24    2    4    4    0    0  0.98762944802E+02  0.60288605195E+03  0.17932398950E+03  0.64105316890E+03  0.74608050796E+02 0.  0.
         11    1    3    3    0    0 -0.21679812233E+03 -0.38113392008E+03  0.15975010932E+03  0.46667396361E+03  0.00000000000E+00 0.  1.
        -11    1    3    3    0    0 -0.96661406063E+02 -0.85182433422E+02  0.71659133179E+02  0.14742627226E+03  0.00000000000E+00 0. -1.
          4    1    6    6  502    0  0.10569293354E+03  0.57470553914E+03  0.18168549366E+03  0.61193714671E+03  0.00000000000E+00 0. -1.
          3    1    5    5  503    0  0.17025415257E+03 -0.14220565467E+03 -0.28717179826E+03  0.36287265867E+03  0.00000000000E+00 0. -1.
         -4    1    5    5    0  503  0.44442431021E+02  0.56359562253E+01 -0.53867850754E+02  0.70061680129E+02  0.00000000000E+00 0.  1.
         -3    1    6    6    0  502 -0.69299887335E+01  0.28180512817E+02 -0.23615041649E+01  0.29116022194E+02  0.00000000000E+00 0.  1.
<mgrwt>
<rscale>  0 0.16866485E+04</rscale>
<asrwt>0</asrwt>
<pdfrwt beam="1">  1        1 0.12449186E+00 0.16866485E+04</pdfrwt>
<pdfrwt beam="2">  1       -1 0.13521395E+00 0.16866485E+04</pdfrwt>
<totfact> 0.94882362E+00</totfact>
</mgrwt>
</event>
<event>
12    1  0.1549527E-007  0.2299612E+04  0.7818608E-02  0.8478074E-01
         -3   -1    0    0    0  501 -0.00000000000E+00  0.00000000000E+00  0.54162938876E+03  0.54162938876E+03  0.00000000000E+00 0.  1.
          3   -1    0    0  501    0  0.00000000000E+00 -0.00000000000E+00 -0.24408823440E+04  0.24408823440E+04  0.00000000000E+00 0. -1.
         23    2    1    2    0    0  0.15263251215E+03  0.54323720413E+03 -0.18145694849E+04  0.19028161268E+04  0.98201085172E+02 0.  0.
        254    2    1    2    0    0 -0.15263251215E+03 -0.54323720413E+03 -0.84683470342E+02  0.10796956060E+04  0.91660676829E+03 0.  0.
        -24    2    4    4    0    0 -0.18702014954E+03 -0.70165623590E+03  0.18616853688E+03  0.75397564929E+03  0.80762280062E+02 0.  0.
         24    2    4    4    0    0  0.34387637395E+02  0.15841903177E+03 -0.27085200722E+03  0.32571995667E+03  0.80334184028E+02 0.  0.
         13    1    3    3    0    0  0.35147487996E+02  0.30589979525E+03 -0.98290581264E+03  0.10300067316E+04  0.00000000000E+00 0. -1.
        -13    1    3    3    0    0  0.11748502415E+03  0.23733740889E+03 -0.83166367222E+03  0.87280939514E+03  0.00000000000E+00 0.  1.
          4    1    6    6  502    0 -0.16973644821E+02  0.20090875671E+02 -0.14759512412E+02  0.30159428217E+02  0.00000000000E+00 0. -1.
          1    1    5    5  503    0 -0.36614605631E+02 -0.15660482898E+03  0.75287947083E+01  0.16100429980E+03  0.00000000000E+00 0. -1.
         -2    1    5    5    0  503 -0.15040554391E+03 -0.54505140692E+03  0.17863974217E+03  0.59297134949E+03  0.00000000000E+00 0.  1.
         -3    1    6    6    0  502  0.51361282216E+02  0.13832815610E+03 -0.25609249481E+03  0.29556052845E+03  0.00000000000E+00 0.  1.
<mgrwt>
<rscale>  0 0.22996118E+04</rscale>
<asrwt>0</asrwt>
<pdfrwt beam="1">  1        3 0.37552037E+00 0.22996118E+04</pdfrwt>
<pdfrwt beam="2">  1       -3 0.83327597E-01 0.22996118E+04</pdfrwt>
<totfact> 0.47232390E-02</totfact>
</mgrwt>
</event>
<event>
12    1  0.1549527E-007  0.1393404E+04  0.7818608E-02  0.8958607E-01
          1   -1    0    0  501    0  0.00000000000E+00  0.00000000000E+00  0.13294692029E+04  0.13294692029E+04  0.00000000000E+00 0. -1.
         -1   -1    0    0    0  501 -0.00000000000E+00 -0.00000000000E+00 -0.36510351279E+03  0.36510351279E+03  0.00000000000E+00 0.  1.
         23    2    1    2    0    0 -0.21668387761E+03 -0.11061581771E+03  0.65849727735E+03  0.70806609663E+03  0.92472541783E+02 0.  0.
        254    2    1    2    0    0  0.21668387761E+03  0.11061581771E+03  0.30586841275E+03  0.98650661904E+03  0.90578808866E+03 0.  0.
        -24    2    4    4    0    0 -0.28169357102E+02 -0.37770778238E+03  0.13480144582E+03  0.40985075423E+03  0.79683934375E+02 0.  0.
         24    2    4    4    0    0  0.24485323472E+03  0.48832360009E+03  0.17106696693E+03  0.57665586482E+03  0.69678076161E+02 0.  0.
         13    1    3    3    0    0 -0.13033440033E+03 -0.20763122527E+02  0.27920067336E+03  0.30882224527E+03  0.00000000000E+00 0. -1.
        -13    1    3    3    0    0 -0.86349477282E+02 -0.89852695182E+02  0.37929660399E+03  0.39924385137E+03  0.00000000000E+00 0.  1.
          2    1    6    6  502    0  0.24359480671E+03  0.45541095107E+03  0.15100106259E+03  0.53808817597E+03  0.00000000000E+00 0. -1.
          3    1    5    5  503    0 -0.32682545523E+02 -0.13518480689E+03  0.82512431298E+02  0.16171388968E+03  0.00000000000E+00 0. -1.
         -4    1    5    5    0  503  0.45131884213E+01 -0.24252297549E+03  0.52289014518E+02  0.24813686455E+03  0.00000000000E+00 0.  1.
         -1    1    6    6    0  502  0.12584280106E+01  0.32912649014E+02  0.20065904338E+02  0.38567688848E+02  0.00000000000E+00 0.  1.
<mgrwt>
<rscale>  0 0.13934043E+04</rscale>
<asrwt>0</asrwt>
<pdfrwt beam="1">  1        1 0.20453372E+00 0.13934043E+04</pdfrwt>
<pdfrwt beam="2">  1       -1 0.56169772E-01 0.13934043E+04</pdfrwt>
<totfact> 0.26959058E+01</totfact>
</mgrwt>
</event>
<event>
12    1  0.1549527E-007  0.2187912E+04  0.7818608E-02  0.8523476E-01
         -2   -1    0    0    0  501 -0.00000000000E+00  0.00000000000E+00  0.62289557261E+03  0.62289557261E+03  0.00000000000E+00 0. -1.
          2   -1    0    0  501    0  0.00000000000E+00 -0.00000000000E+00 -0.19212526733E+04  0.19212526733E+04  0.00000000000E+00 0.  1.
         23    2    1    2    0    0 -0.84767949813E+03  0.31604960745E+03 -0.67379099355E+03  0.11317144433E+04  0.91298369467E+02 0.  0.
        254    2    1    2    0    0  0.84767949813E+03 -0.31604960745E+03 -0.62456610713E+03  0.14124338026E+04  0.88681370006E+03 0.  0.
        -24    2    4    4    0    0  0.50203765609E+03  0.25029070178E+03 -0.44473581762E+03  0.72034158073E+03  0.80092458571E+02 0.  0.
         24    2    4    4    0    0  0.34564184204E+03 -0.56634030923E+03 -0.17983028951E+03  0.69209222186E+03  0.80268809087E+02 0.  0.
         13    1    3    3    0    0 -0.58422900327E+03  0.17574709431E+03 -0.43133798722E+03  0.74717001321E+03  0.00000000000E+00 0.  1.
        -13    1    3    3    0    0 -0.26345049486E+03  0.14030251314E+03 -0.24245300633E+03  0.38454443009E+03  0.00000000000E+00 0. -1.
          2    1    6    6  502    0  0.97974045055E+02 -0.18689265605E+03 -0.21518217545E+02  0.21211037711E+03  0.00000000000E+00 0. -1.
          3    1    5    5  503    0  0.44768007981E+03  0.22505702608E+03 -0.42562845195E+03  0.65744026189E+03  0.00000000000E+00 0. -1.
         -4    1    5    5    0  503  0.54357576282E+02  0.25233675705E+02 -0.19107365672E+02  0.62901318839E+02  0.00000000000E+00 0.  1.
         -1    1    6    6    0  502  0.24766779698E+03 -0.37944765318E+03 -0.15831207196E+03  0.47998184475E+03  0.00000000000E+00 0.  1.
<mgrwt>
<rscale>  0 0.21879120E+04</rscale>
<asrwt>0</asrwt>
<pdfrwt beam="1">  1        2 0.29557733E+00 0.21879120E+04</pdfrwt>
<pdfrwt beam="2">  1       -2 0.95830089E-01 0.21879120E+04</pdfrwt>
<totfact> 0.61742275E+00</totfact>
</mgrwt>
</event>
<event>
12    1  0.1549527E-007  0.2310021E+04  0.7818608E-02  0.8473980E-01
          1   -1    0    0  501    0  0.00000000000E+00  0.00000000000E+00  0.95710625987E+03  0.95710625987E+03  0.00000000000E+00 0. -1.
         -1   -1    0    0    0  501 -0.00000000000E+00 -0.00000000000E+00 -0.13938360247E+04  0.13938360247E+04  0.00000000000E+00 0.  1.
         23    2    1    2    0    0 -0.32303388048E+03 -0.30511504256E+03  0.70371590907E+03  0.83684072819E+03  0.87408503905E+02 0.  0.
        254    2    1    2    0    0  0.32303388048E+03  0.30511504256E+03 -0.11404456739E+04  0.15141015564E+04  0.89131426038E+03 0.  0.
        -24    2    4    4    0    0  0.46171578935E+03  0.45548281451E+03 -0.11156186719E+04  0.12929438319E+04  0.80328493112E+02 0.  0.
         24    2    4    4    0    0 -0.13868190887E+03 -0.15036777195E+03 -0.24827001984E+02  0.22115772450E+03  0.80319489470E+02 0.  0.
         11    1    3    3    0    0 -0.26287647659E+03 -0.27454305293E+03  0.54581914209E+03  0.66512890910E+03  0.00000000000E+00 0. -1.
        -11    1    3    3    0    0 -0.60157403893E+02 -0.30571989632E+02  0.15789676698E+03  0.17171181909E+03  0.00000000000E+00 0.  1.
          2    1    6    6  502    0 -0.28068018092E+02 -0.60636819148E+02  0.23376835250E+02  0.70789221653E+02  0.00000000000E+00 0. -1.
          1    1    5    5  503    0  0.44524274425E+03  0.45514928152E+03 -0.10934938680E+04  0.12653579766E+04  0.00000000000E+00 0. -1.
         -2    1    5    5    0  503  0.16473045102E+02  0.33353299356E+00 -0.22124803969E+02  0.27585855249E+02  0.00000000000E+00 0.  1.
         -1    1    6    6    0  502 -0.11061389078E+03 -0.89730952804E+02 -0.48203837234E+02  0.15036850285E+03  0.00000000000E+00 0.  1.
<mgrwt>
<rscale>  0 0.23100209E+04</rscale>
<asrwt>0</asrwt>
<pdfrwt beam="1">  1        1 0.14724712E+00 0.23100209E+04</pdfrwt>
<pdfrwt beam="2">  1       -1 0.21443631E+00 0.23100209E+04</pdfrwt>
<totfact> 0.17722298E+00</totfact>
</mgrwt>
</event>
<event>
12    1  0.1549527E-007  0.1354550E+04  0.7818608E-02  0.8987391E-01
         -3   -1    0    0    0  501 -0.00000000000E+00  0.00000000000E+00  0.77847033123E+03  0.77847033123E+03  0.00000000000E+00 0.  1.
          3   -1    0    0  501    0  0.00000000000E+00 -0.00000000000E+00 -0.58923470628E+03  0.58923470628E+03  0.00000000000E+00 0. -1.
         23    2    1    2    0    0 -0.27147331974E+03 -0.25398943628E+03  0.14462062643E+03  0.40931468878E+03  0.91733264359E+02 0.  0.
        254    2    1    2    0    0  0.27147331974E+03  0.25398943628E+03  0.44614998518E+02  0.95839034873E+03  0.88222058771E+03 0.  0.
        -24    2    4    4    0    0  0.36837814955E+03  0.23498612032E+03  0.38969926475E+03  0.59104390226E+03  0.80910071330E+02 0.  0.
         24    2    4    4    0    0 -0.96904829818E+02  0.19003315959E+02 -0.34508426624E+03  0.36734644647E+03  0.78157462017E+02 0.  0.
         13    1    3    3    0    0 -0.17584921035E+03 -0.19617212823E+03  0.13792118879E+03  0.29736964033E+03  0.00000000000E+00 0.  1.
        -13    1    3    3    0    0 -0.95624109387E+02 -0.57817308045E+02  0.66994376374E+01  0.11194504844E+03  0.00000000000E+00 0. -1.
          2    1    6    6  502    0 -0.34316972204E+02  0.28669502768E+02 -0.24398989479E+03  0.24805375169E+03  0.00000000000E+00 0. -1.
          1    1    5    5  503    0  0.26149785903E+03  0.15315146165E+03  0.31495367662E+03  0.43707244125E+03  0.00000000000E+00 0. -1.
         -2    1    5    5    0  503  0.10688029052E+03  0.81834658666E+02  0.74745588134E+02  0.15397146101E+03  0.00000000000E+00 0.  1.
         -1    1    6    6    0  502 -0.62587857614E+02 -0.96661868088E+01 -0.10109437145E+03  0.11929269478E+03  0.00000000000E+00 0.  1.
<mgrwt>
<rscale>  0 0.13545505E+04</rscale>
<asrwt>0</asrwt>
<pdfrwt beam="1">  1        3 0.90651493E-01 0.13545505E+04</pdfrwt>
<pdfrwt beam="2">  1       -3 0.11976467E+00 0.13545505E+04</pdfrwt>
<totfact> 0.15954494E+00</totfact>
</mgrwt>
</event>
<event>
12    1  0.1549527E-007  0.1352096E+04  0.7818608E-02  0.8989243E-01
         -1   -1    0    0    0  501 -0.00000000000E+00  0.00000000000E+00  0.42957855543E+03  0.42957855543E+03  0.00000000000E+00 0.  1.
          1   -1    0    0  501    0  0.00000000000E+00 -0.00000000000E+00 -0.10639289391E+04  0.10639289391E+04  0.00000000000E+00 0. -1.
         23    2    1    2    0    0  0.17554478072E+03  0.53793172287E+02 -0.51503311634E+03  0.55412548509E+03  0.89923672542E+02 0.  0.
        254    2    1    2    0    0 -0.17554478072E+03 -0.53793172287E+02 -0.11931726729E+03  0.93938200940E+03  0.91350548651E+03 0.  0.
        -24    2    4    4    0    0 -0.71700465241E+02 -0.39144344707E+03  0.20392933734E+03  0.45415248608E+03  0.79362314805E+02 0.  0.
         24    2    4    4    0    0 -0.10384431548E+03  0.33765027479E+03 -0.32324660463E+03  0.48522952332E+03  0.78536443598E+02 0.  0.
         13    1    3    3    0    0  0.63770024365E+02 -0.22449193576E+02 -0.20484115185E+03  0.21570924828E+03  0.00000000000E+00 0.  1.
        -13    1    3    3    0    0  0.11177475635E+03  0.76242365863E+02 -0.31019196449E+03  0.33841623682E+03  0.00000000000E+00 0. -1.
          4    1    6    6  502    0 -0.19504074413E+02  0.17886040929E+03 -0.13518580400E+03  0.22504812048E+03  0.00000000000E+00 0. -1.
          3    1    5    5  503    0 -0.58397210550E+02 -0.11871397442E+03  0.76535266717E+02  0.15284269356E+03  0.00000000000E+00 0. -1.
         -4    1    5    5    0  503 -0.13303254691E+02 -0.27272947265E+03  0.12739407063E+03  0.30130979252E+03  0.00000000000E+00 0.  1.
         -3    1    6    6    0  502 -0.84340241062E+02  0.15878986550E+03 -0.18806080063E+03  0.26018140284E+03  0.00000000000E+00 0.  1.
<mgrwt>
<rscale>  0 0.13520962E+04</rscale>
<asrwt>0</asrwt>
<pdfrwt beam="1">  1        1 0.16368137E+00 0.13520962E+04</pdfrwt>
<pdfrwt beam="2">  1       -1 0.66089009E-01 0.13520962E+04</pdfrwt>
<totfact> 0.30666977E+01</totfact>
</mgrwt>
</event>
<event>
12    1  0.1549527E-007  0.2955669E+04  0.7818608E-02  0.8256504E-01
         -1   -1    0    0    0  501 -0.00000000000E+00  0.00000000000E+00  0.14580932964E+04  0.14580932964E+04  0.00000000000E+00 0.  1.
          1   -1    0    0  501    0  0.00000000000E+00 -0.00000000000E+00 -0.14978426240E+04  0.14978426240E+04  0.00000000000E+00 0. -1.
         23    2    1    2    0    0  0.96619195526E+03  0.13680168712E+03 -0.93597524774E+03  0.13552068212E+04  0.91072871392E+02 0.  0.
        254    2    1    2    0    0 -0.96619195526E+03 -0.13680168712E+03  0.89622592008E+03  0.16007290992E+04  0.89826006992E+03 0.  0.
        -24    2    4    4    0    0 -0.72192026979E+03 -0.45463001901E+03  0.81878245530E+03  0.11846697184E+04  0.71974318001E+02 0.  0.
         24    2    4    4    0    0 -0.24427168546E+03  0.31782833190E+03  0.77443464779E+02  0.41605938081E+03  0.80152437551E+02 0.  0.
         13    1    3    3    0    0  0.95460437381E+03  0.12373727561E+03 -0.92030761469E+03  0.13317456700E+04  0.00000000000E+00 0. -1.
        -13    1    3    3    0    0  0.11587581446E+02  0.13064411510E+02 -0.15667633049E+02  0.23461151235E+02  0.00000000000E+00 0.  1.
          4    1    6    6  502    0  0.12459083092E+01  0.23220509002E+02  0.14563799672E+02  0.27438086426E+02  0.00000000000E+00 0. -1.
          1    1    5    5  503    0 -0.18364178639E+03 -0.93541953079E+02  0.16461318514E+03  0.26376486388E+03  0.00000000000E+00 0. -1.
         -2    1    5    5    0  503 -0.53827848340E+03 -0.36108806593E+03  0.65416927016E+03  0.92090485452E+03  0.00000000000E+00 0.  1.
         -3    1    6    6    0  502 -0.24551759377E+03  0.29460782289E+03  0.62879665107E+02  0.38862129438E+03  0.00000000000E+00 0.  1.
<mgrwt>
<rscale>  0 0.29556686E+04</rscale>
<asrwt>0</asrwt>
<pdfrwt beam="1">  1        1 0.23043733E+00 0.29556686E+04</pdfrwt>
<pdfrwt beam="2">  1       -1 0.22432205E+00 0.29556686E+04</pdfrwt>
<totfact> 0.57742647E-01</totfact>
</mgrwt>
</event>
<event>
12    1  0.1549527E-007  0.1468955E+04  0.7818608E-02  0.8905364E-01
         -1   -1    0    0    0  501 -0.00000000000E+00  0.00000000000E+00  0.95185028130E+03  0.95185028130E+03  0.00000000000E+00 0.  1.
          1   -1    0    0  501    0  0.00000000000E+00 -0.00000000000E+00 -0.56674585444E+03  0.56674585444E+03  0.00000000000E+00 0. -1.
         23    2    1    2    0    0 -0.43033694159E+03  0.11730887956E+03  0.60657217177E+02  0.45974755275E+03  0.93473299599E+02 0.  0.
        254    2    1    2    0    0  0.43033694159E+03 -0.11730887956E+03  0.32444720969E+03  0.10588485830E+04  0.90384903236E+03 0.  0.
        -24    2    4    4    0    0 -0.22083603684E+03 -0.10833952596E+03  0.30856321458E+03  0.40283863828E+03  0.81004339668E+02 0.  0.
         24    2    4    4    0    0  0.65117297844E+03 -0.89693536074E+01  0.15883995110E+02  0.65600994471E+03  0.77395407574E+02 0.  0.
         13    1    3    3    0    0 -0.42702002586E+03  0.11645554478E+03  0.46348939696E+02  0.44503507795E+03  0.00000000000E+00 0.  1.
        -13    1    3    3    0    0 -0.33169157337E+01  0.85333478756E+00  0.14308277481E+02  0.14712474799E+02  0.00000000000E+00 0. -1.
          2    1    6    6  502    0  0.37515466380E+03  0.25035557878E+02  0.32621805857E+02  0.37740162049E+03  0.00000000000E+00 0. -1.
          1    1    5    5  503    0 -0.20203088665E+03 -0.11828313812E+03  0.26027225313E+03  0.35007002967E+03  0.00000000000E+00 0. -1.
         -2    1    5    5    0  503 -0.18805150190E+02  0.99436121639E+01  0.48290961445E+02  0.52768608603E+02  0.00000000000E+00 0.  1.
         -1    1    6    6    0  502  0.27601831463E+03 -0.34004911486E+02 -0.16737810747E+02  0.27860832422E+03  0.00000000000E+00 0.  1.
<mgrwt>
<rscale>  0 0.14689550E+04</rscale>
<asrwt>0</asrwt>
<pdfrwt beam="1">  1        1 0.87191670E-01 0.14689550E+04</pdfrwt>
<pdfrwt beam="2">  1       -1 0.14643850E+00 0.14689550E+04</pdfrwt>
<totfact> 0.13417355E+01</totfact>
</mgrwt>
</event>
<event>
12    1  0.1549527E-007  0.1663383E+04  0.7818608E-02  0.8782528E-01
         -2   -1    0    0    0  501 -0.00000000000E+00  0.00000000000E+00  0.87220756747E+03  0.87220756747E+03  0.00000000000E+00 0. -1.
          2   -1    0    0  501    0  0.00000000000E+00 -0.00000000000E+00 -0.79305796016E+03  0.79305796016E+03  0.00000000000E+00 0.  1.
         23    2    1    2    0    0 -0.10274311620E+03  0.55128889020E+03 -0.13499731337E+03  0.58115736482E+03  0.71021262211E+02 0.  0.
        254    2    1    2    0    0  0.10274311620E+03 -0.55128889020E+03  0.21414692068E+03  0.10841081628E+04  0.90274914380E+03 0.  0.
        -24    2    4    4    0    0 -0.18006013890E+03 -0.45904334235E+02  0.41852608639E+03  0.46481668144E+03  0.79759644136E+02 0.  0.
         24    2    4    4    0    0  0.28280325510E+03 -0.50538455596E+03 -0.20437916571E+03  0.61929148137E+03  0.79748761877E+02 0.  0.
         13    1    3    3    0    0 -0.40062124225E+02  0.29056565635E+03 -0.36905427865E+02  0.29562710473E+03  0.00000000000E+00 0.  1.
        -13    1    3    3    0    0 -0.62680991979E+02  0.26072323385E+03 -0.98091885507E+02  0.28553026009E+03  0.00000000000E+00 0. -1.
          2    1    6    6  502    0  0.44782962042E+01 -0.40392817521E+01 -0.13749167713E+02  0.15013678656E+02  0.00000000000E+00 0. -1.
          3    1    5    5  503    0 -0.15568763922E+02  0.34773925253E+00  0.11871575209E+03  0.11973277382E+03  0.00000000000E+00 0. -1.
         -4    1    5    5    0  503 -0.16449137497E+03 -0.46252073487E+02  0.29981033430E+03  0.34508390762E+03  0.00000000000E+00 0.  1.
         -1    1    6    6    0  502  0.27832495890E+03 -0.50134527421E+03 -0.19062999799E+03  0.60427780271E+03  0.00000000000E+00 0.  1.
<mgrwt>
<rscale>  0 0.16633835E+04</rscale>
<asrwt>0</asrwt>
<pdfrwt beam="1">  1        2 0.12200892E+00 0.16633835E+04</pdfrwt>
<pdfrwt beam="2">  1       -2 0.13418578E+00 0.16633835E+04</pdfrwt>
<totfact> 0.13320403E+01</totfact>
</mgrwt>
</event>
<event>
12    1  0.2192103E-007  0.2017512E+04  0.7818608E-02  0.8598477E-01
         -2   -1    0    0    0  501 -0.00000000000E+00  0.00000000000E+00  0.59074194049E+03  0.59074194049E+03  0.00000000000E+00 0.  1.
          2   -1    0    0  501    0  0.00000000000E+00 -0.00000000000E+00 -0.17225603508E+04  0.17225603508E+04  0.00000000000E+00 0. -1.
         23    2    1    2    0    0 -0.13246481307E+03  0.65644941187E+03 -0.96798480672E+03  0.11821481591E+04  0.10957612400E+03 0.  0.
        254    2    1    2    0    0  0.13246481307E+03 -0.65644941187E+03 -0.16383360356E+03  0.11311541322E+04  0.89676945979E+03 0.  0.
        -24    2    4    4    0    0 -0.10411995654E+03 -0.43558164401E+03  0.31118388153E+03  0.55123361924E+03  0.80316629119E+02 0.  0.
         24    2    4    4    0    0  0.23658476961E+03 -0.22086776785E+03 -0.47501748509E+03  0.57992051292E+03  0.76884758446E+02 0.  0.
         11    1    3    3    0    0 -0.11362782933E+03  0.64797151245E+03 -0.93548594259E+03  0.11436399404E+04  0.00000000000E+00 0. -1.
        -11    1    3    3    0    0 -0.18836983743E+02  0.84778994176E+01 -0.32498864125E+02  0.38508218661E+02  0.00000000000E+00 0.  1.
          2    1    6    6  502    0  0.65886803187E+02 -0.30797285284E+02 -0.69220288049E+02  0.10040414281E+03  0.00000000000E+00 0. -1.
          3    1    5    5  503    0 -0.23095038631E+02 -0.50456711709E+02  0.11761719850E+02  0.56723880506E+02  0.00000000000E+00 0. -1.
         -4    1    5    5    0  503 -0.81024917911E+02 -0.38512493230E+03  0.29942216168E+03  0.49450973874E+03  0.00000000000E+00 0.  1.
         -1    1    6    6    0  502  0.17069796642E+03 -0.19007048257E+03 -0.40579719704E+03  0.47951637012E+03  0.00000000000E+00 0.  1.
<mgrwt>
<rscale>  0 0.20175120E+04</rscale>
<asrwt>0</asrwt>
<pdfrwt beam="1">  1        2 0.26500928E+00 0.20175120E+04</pdfrwt>
<pdfrwt beam="2">  1       -2 0.90883376E-01 0.20175120E+04</pdfrwt>
<totfact> 0.91325314E+00</totfact>
</mgrwt>
</event>
<event>
12    1  0.1549527E-007  0.2339843E+04  0.7818608E-02  0.8462375E-01
         -3   -1    0    0    0  501 -0.00000000000E+00  0.00000000000E+00  0.15974816319E+04  0.15974816319E+04  0.00000000000E+00 0.  1.
          3   -1    0    0  501    0  0.00000000000E+00 -0.00000000000E+00 -0.85679626652E+03  0.85679626652E+03  0.00000000000E+00 0. -1.
         23    2    1    2    0    0 -0.90562010109E+03 -0.27244983226E+03  0.64906211659E+03  0.11506496036E+04  0.91302795100E+02 0.  0.
        254    2    1    2    0    0  0.90562010109E+03  0.27244983226E+03  0.91623248811E+02  0.13036282949E+04  0.89256665460E+03 0.  0.
        -24    2    4    4    0    0  0.31508847233E+03  0.55324647568E+03  0.47798889793E+02  0.64340534032E+03  0.79519116182E+02 0.  0.
         24    2    4    4    0    0  0.59053162876E+03 -0.28079664342E+03  0.43824359018E+02  0.66022295457E+03  0.79996348518E+02 0.  0.
         11    1    3    3    0    0 -0.84381776922E+03 -0.27675304200E+03  0.60220730317E+03  0.10729745150E+04  0.00000000000E+00 0. -1.
        -11    1    3    3    0    0 -0.61802331871E+02  0.43032097365E+01  0.46854813427E+02  0.77675088542E+02  0.00000000000E+00 0.  1.
          4    1    6    6  502    0  0.41353869674E+03 -0.15712113413E+03  0.41070713032E+02  0.44428381466E+03  0.00000000000E+00 0. -1.
          1    1    5    5  503    0  0.12664050484E+03  0.22920560064E+03 -0.19376325262E+02  0.26258040067E+03  0.00000000000E+00 0. -1.
         -2    1    5    5    0  503  0.18844796748E+03  0.32404087503E+03  0.67175215054E+02  0.38082493965E+03  0.00000000000E+00 0.  1.
         -3    1    6    6    0  502  0.17699293201E+03 -0.12367550928E+03  0.27536459859E+01  0.21593913991E+03  0.00000000000E+00 0.  1.
<mgrwt>
<rscale>  0 0.23398430E+04</rscale>
<asrwt>0</asrwt>
<pdfrwt beam="1">  1        3 0.13181481E+00 0.23398430E+04</pdfrwt>
<pdfrwt beam="2">  1       -3 0.24576640E+00 0.23398430E+04</pdfrwt>
<totfact> 0.81934190E-02</totfact>
</mgrwt>
</event>
<event>
12    1  0.1549527E-007  0.1884232E+04  0.7818608E-02  0.8662745E-01
         -1   -1    0    0    0  501 -0.00000000000E+00  0.00000000000E+00  0.34814537400E+03  0.34814537400E+03  0.00000000000E+00 0.  1.
          1   -1    0    0  501    0  0.00000000000E+00 -0.00000000000E+00 -0.25494607433E+04  0.25494607433E+04  0.00000000000E+00 0. -1.
         23    2    1    2    0    0  0.15575000112E+03  0.19873682410E+03 -0.18969914861E+04  0.19159100982E+04  0.91544622710E+02 0.  0.
        254    2    1    2    0    0 -0.15575000112E+03 -0.19873682410E+03 -0.30432388323E+03  0.98169601912E+03  0.89853194710E+03 0.  0.
        -24    2    4    4    0    0  0.33416119718E+03 -0.37491324493E+02 -0.30310069949E+03  0.45979929909E+03  0.80473947944E+02 0.  0.
         24    2    4    4    0    0 -0.48991119830E+03 -0.16124549961E+03 -0.12231837438E+01  0.52189672004E+03  0.79759619121E+02 0.  0.
         13    1    3    3    0    0  0.71018774376E+02  0.68950176093E+02 -0.45675746417E+03  0.46735979093E+03  0.00000000000E+00 0. -1.
        -13    1    3    3    0    0  0.84731226744E+02  0.12978664801E+03 -0.14402340219E+04  0.14485503073E+04  0.00000000000E+00 0.  1.
          4    1    6    6  502    0  0.12933587562E+01  0.34528781410E+01 -0.98359907893E+00  0.38160989868E+01  0.00000000000E+00 0. -1.
          1    1    5    5  503    0  0.15708993398E+03 -0.27449996157E+02 -0.19574881012E+03  0.25248434864E+03  0.00000000000E+00 0. -1.
         -2    1    5    5    0  503  0.17707126320E+03 -0.10041328336E+02 -0.10735188937E+03  0.20731495045E+03  0.00000000000E+00 0.  1.
         -3    1    6    6    0  502 -0.49120455706E+03 -0.16469837775E+03 -0.23958466490E+00  0.51808062105E+03  0.00000000000E+00 0.  1.
<mgrwt>
<rscale>  0 0.18842324E+04</rscale>
<asrwt>0</asrwt>
<pdfrwt beam="1">  1        1 0.39222474E+00 0.18842324E+04</pdfrwt>
<pdfrwt beam="2">  1       -1 0.53560825E-01 0.18842324E+04</pdfrwt>
<totfact> 0.41279852E+00</totfact>
</mgrwt>
</event>
<event>
12    1  0.1549527E-007  0.1779637E+04  0.7818608E-02  0.8717204E-01
         -1   -1    0    0    0  501 -0.00000000000E+00  0.00000000000E+00  0.38908999695E+03  0.38908999695E+03  0.00000000000E+00 0.  1.
          1   -1    0    0  501    0  0.00000000000E+00 -0.00000000000E+00 -0.20349462332E+04  0.20349462332E+04  0.00000000000E+00 0. -1.
         23    2    1    2    0    0  0.39101394828E+03 -0.53597073690E+03 -0.67834947780E+03  0.95320584015E+03  0.91031978429E+02 0.  0.
        254    2    1    2    0    0 -0.39101394828E+03  0.53597073690E+03 -0.96750675842E+03  0.14708303900E+04  0.88719567737E+03 0.  0.
        -24    2    4    4    0    0 -0.48228293064E+03  0.21633620977E+03 -0.10728419317E+03  0.54526426480E+03  0.80031490759E+02 0.  0.
         24    2    4    4    0    0  0.91268982358E+02  0.31963452713E+03 -0.86022256526E+03  0.92556612519E+03  0.78698997771E+02 0.  0.
         13    1    3    3    0    0  0.29029670212E+03 -0.45811514585E+03 -0.54732437502E+03  0.77052296111E+03  0.00000000000E+00 0. -1.
        -13    1    3    3    0    0  0.10071724616E+03 -0.77855591050E+02 -0.13102510278E+03  0.18268287903E+03  0.00000000000E+00 0.  1.
          2    1    6    6  502    0  0.33916568798E+02  0.23629649108E+03 -0.56004330419E+03  0.60879788757E+03  0.00000000000E+00 0. -1.
          3    1    5    5  503    0 -0.46510697308E+03  0.19111762021E+03 -0.92192780857E+02  0.51122397245E+03  0.00000000000E+00 0. -1.
         -4    1    5    5    0  503 -0.17175957560E+02  0.25218589561E+02 -0.15091412309E+02  0.34040292346E+02  0.00000000000E+00 0.  1.
         -1    1    6    6    0  502  0.57352413560E+02  0.83338036045E+02 -0.30017926106E+03  0.31676823762E+03  0.00000000000E+00 0.  1.
<mgrwt>
<rscale>  0 0.17796373E+04</rscale>
<asrwt>0</asrwt>
<pdfrwt beam="1">  1        1 0.31306865E+00 0.17796373E+04</pdfrwt>
<pdfrwt beam="2">  1       -1 0.59859999E-01 0.17796373E+04</pdfrwt>
<totfact> 0.75480834E+00</totfact>
</mgrwt>
</event>
<event>
12    1  0.1549527E-007  0.2121770E+04  0.7818608E-02  0.8551714E-01
          2   -1    0    0  501    0  0.00000000000E+00  0.00000000000E+00  0.12583520761E+04  0.12583520761E+04  0.00000000000E+00 0. -1.
         -2   -1    0    0    0  501 -0.00000000000E+00 -0.00000000000E+00 -0.89440537709E+03  0.89440537709E+03  0.00000000000E+00 0.  1.
         23    2    1    2    0    0 -0.81138848728E+03  0.27276479213E+02  0.45187932725E+03  0.93352091777E+03  0.90394103261E+02 0.  0.
        254    2    1    2    0    0  0.81138848728E+03 -0.27276479213E+02 -0.87932628277E+02  0.12192365354E+04  0.90537853878E+03 0.  0.
        -24    2    4    4    0    0  0.42389973304E+03 -0.34505806801E+03  0.25342924032E+03  0.60793002451E+03  0.81218722523E+02 0.  0.
         24    2    4    4    0    0  0.38748875425E+03  0.31778158880E+03 -0.34136186859E+03  0.61130651087E+03  0.77685597509E+02 0.  0.
         11    1    3    3    0    0 -0.28802549636E+03  0.57677551175E+01  0.11188602919E+03  0.30904762915E+03  0.00000000000E+00 0.  1.
        -11    1    3    3    0    0 -0.52336299092E+03  0.21508724096E+02  0.33999329806E+03  0.62447328862E+03  0.00000000000E+00 0. -1.
          2    1    6    6  502    0  0.18992219519E+03  0.19378023888E+03 -0.21382546415E+03  0.34545991131E+03  0.00000000000E+00 0. -1.
          3    1    5    5  503    0  0.40688405352E+03 -0.31390614565E+03  0.21945515112E+03  0.55879536920E+03  0.00000000000E+00 0. -1.
         -4    1    5    5    0  503  0.17015679522E+02 -0.31151922360E+02  0.33974089196E+02  0.49134655315E+02  0.00000000000E+00 0.  1.
         -1    1    6    6    0  502  0.19756655906E+03  0.12400134992E+03 -0.12753640444E+03  0.26584659956E+03  0.00000000000E+00 0.  1.
<mgrwt>
<rscale>  0 0.21217699E+04</rscale>
<asrwt>0</asrwt>
<pdfrwt beam="1">  1        2 0.19359263E+00 0.21217699E+04</pdfrwt>
<pdfrwt beam="2">  1       -2 0.13760083E+00 0.21217699E+04</pdfrwt>
<totfact> 0.60439160E+00</totfact>
</mgrwt>
</event>
<event>
12    1  0.1549527E-007  0.2532221E+04  0.7818608E-02  0.8391596E-01
          2   -1    0    0  501    0  0.00000000000E+00  0.00000000000E+00  0.36754541465E+04  0.36754541465E+04  0.00000000000E+00 0.  1.
         -2   -1    0    0    0  501 -0.00000000000E+00 -0.00000000000E+00 -0.43614644306E+03  0.43614644306E+03  0.00000000000E+00 0. -1.
         23    2    1    2    0    0 -0.51332401044E+03  0.44754755582E+03  0.29023594299E+04  0.29826978785E+04  0.94847350444E+02 0.  0.
        254    2    1    2    0    0  0.51332401044E+03 -0.44754755582E+03  0.33694827358E+03  0.11289027111E+04  0.83491726389E+03 0.  0.
        -24    2    4    4    0    0  0.54061482581E+02 -0.28715742157E+03  0.52069582501E+03  0.60240611006E+03  0.79918399618E+02 0.  0.
         24    2    4    4    0    0  0.45926252786E+03 -0.16039013426E+03 -0.18374755143E+03  0.52649660099E+03  0.82392011366E+02 0.  0.
         11    1    3    3    0    0 -0.20663165516E+02  0.70225707932E+01  0.46518036962E+02  0.51382980377E+02  0.00000000000E+00 0. -1.
        -11    1    3    3    0    0 -0.49266084492E+03  0.44052498503E+03  0.28558413929E+04  0.29313148981E+04  0.00000000000E+00 0.  1.
          4    1    6    6  502    0  0.11336325080E+03 -0.65044714528E+02 -0.20465209680E+02  0.13229083993E+03  0.00000000000E+00 0. -1.
          3    1    5    5  503    0 -0.91466293667E+01 -0.13821766198E+03  0.20112796191E+03  0.24421351308E+03  0.00000000000E+00 0. -1.
         -4    1    5    5    0  503  0.63208111948E+02 -0.14893975959E+03  0.31956786310E+03  0.35819259698E+03  0.00000000000E+00 0.  1.
         -3    1    6    6    0  502  0.34589927705E+03 -0.95345419727E+02 -0.16328234175E+03  0.39420576107E+03  0.00000000000E+00 0.  1.
<mgrwt>
<rscale>  0 0.25322214E+04</rscale>
<asrwt>0</asrwt>
<pdfrwt beam="1">  1        2 0.56545446E+00 0.25322214E+04</pdfrwt>
<pdfrwt beam="2">  1       -2 0.67099455E-01 0.25322214E+04</pdfrwt>
<totfact> 0.11051732E+00</totfact>
</mgrwt>
</event>
<event>
12    1  0.1549527E-007  0.2943879E+04  0.7818608E-02  0.8259941E-01
          2   -1    0    0  501    0  0.00000000000E+00  0.00000000000E+00  0.13006024032E+04  0.13006024032E+04  0.00000000000E+00 0. -1.
         -2   -1    0    0    0  501 -0.00000000000E+00 -0.00000000000E+00 -0.16658476482E+04  0.16658476482E+04  0.00000000000E+00 0.  1.
         23    2    1    2    0    0  0.66818017704E+02  0.14051737803E+03  0.11677289267E+04  0.11818657018E+04  0.94899471268E+02 0.  0.
        254    2    1    2    0    0 -0.66818017704E+02 -0.14051737803E+03 -0.15329741717E+04  0.17845843496E+04  0.90028979160E+03 0.  0.
        -24    2    4    4    0    0 -0.41058248584E+02 -0.44164491224E+03 -0.37623217457E+03  0.58637877373E+03  0.74521197084E+02 0.  0.
         24    2    4    4    0    0 -0.25759769121E+02  0.30112753421E+03 -0.11567419971E+04  0.11982055759E+04  0.79392673802E+02 0.  0.
         11    1    3    3    0    0  0.50854013919E+02  0.14187560546E+03  0.11393614573E+04  0.11492864519E+04  0.00000000000E+00 0. -1.
        -11    1    3    3    0    0  0.15964003785E+02 -0.13582274298E+01  0.28367469397E+02  0.32579249817E+02  0.00000000000E+00 0.  1.
          2    1    6    6  502    0  0.26569719658E+02  0.59459574721E+02 -0.22987122172E+03  0.23891875105E+03  0.00000000000E+00 0. -1.
          1    1    5    5  503    0  0.12390363793E+01 -0.31011268627E+03 -0.23780004252E+03  0.39079441350E+03  0.00000000000E+00 0. -1.
         -2    1    5    5    0  503 -0.42297284963E+02 -0.13153222597E+03 -0.13843213206E+03  0.19558436024E+03  0.00000000000E+00 0.  1.
         -1    1    6    6    0  502 -0.52329488779E+02  0.24166795949E+03 -0.92687077540E+03  0.95928682485E+03  0.00000000000E+00 0.  1.
<mgrwt>
<rscale>  0 0.29438787E+04</rscale>
<asrwt>0</asrwt>
<pdfrwt beam="1">  1        2 0.20009268E+00 0.29438787E+04</pdfrwt>
<pdfrwt beam="2">  1       -2 0.25628425E+00 0.29438787E+04</pdfrwt>
<totfact> 0.83518345E-01</totfact>
</mgrwt>
</event>
<event>
12    1  0.1549527E-007  0.2256077E+04  0.7818608E-02  0.8495443E-01
         -1   -1    0    0    0  501 -0.00000000000E+00  0.00000000000E+00  0.19636747877E+04  0.19636747877E+04  0.00000000000E+00 0.  1.
          1   -1    0    0  501    0  0.00000000000E+00 -0.00000000000E+00 -0.64800490723E+03  0.64800490723E+03  0.00000000000E+00 0. -1.
         23    2    1    2    0    0 -0.34180539437E+03 -0.44391629835E+03  0.14299393423E+04  0.15384687455E+04  0.90922772217E+02 0.  0.
        254    2    1    2    0    0  0.34180539437E+03  0.44391629835E+03 -0.11426946186E+03  0.10732109495E+04  0.90820241387E+03 0.  0.
        -24    2    4    4    0    0  0.41504973479E+03 -0.15418973518E+03 -0.11428855235E+03  0.46476584964E+03  0.83094313913E+02 0.  0.
         24    2    4    4    0    0 -0.73244340424E+02  0.59810603354E+03  0.19090486281E-01  0.60844509982E+03  0.84320094709E+02 0.  0.
         13    1    3    3    0    0  0.59113192274E+01 -0.79108044036E+01  0.27198926111E+02  0.28936242032E+02  0.00000000000E+00 0. -1.
        -13    1    3    3    0    0 -0.34771671359E+03 -0.43600549395E+03  0.14027404162E+04  0.15095325035E+04  0.00000000000E+00 0.  1.
          4    1    6    6  502    0 -0.52040919486E+02  0.16003739389E+03 -0.19608353992E+02  0.16942465077E+03  0.00000000000E+00 0. -1.
          3    1    5    5  503    0  0.96731032982E+02 -0.10049879955E+02 -0.50418438216E+02  0.10954410866E+03  0.00000000000E+00 0. -1.
         -4    1    5    5    0  503  0.31831870181E+03 -0.14413985523E+03 -0.63870114131E+02  0.35522174098E+03  0.00000000000E+00 0.  1.
         -1    1    6    6    0  502 -0.21203420938E+02  0.43806863965E+03  0.19627444478E+02  0.43902044905E+03  0.00000000000E+00 0.  1.
<mgrwt>
<rscale>  0 0.22560770E+04</rscale>
<asrwt>0</asrwt>
<pdfrwt beam="1">  1        1 0.99693064E-01 0.22560770E+04</pdfrwt>
<pdfrwt beam="2">  1       -1 0.30210381E+00 0.22560770E+04</pdfrwt>
<totfact> 0.88870229E-01</totfact>
</mgrwt>
</event>
<event>
12    1  0.1549527E-007  0.1219531E+04  0.7818608E-02  0.9095931E-01
         -1   -1    0    0    0  501 -0.00000000000E+00  0.00000000000E+00  0.43494214717E+03  0.43494214717E+03  0.00000000000E+00 0.  1.
          1   -1    0    0  501    0  0.00000000000E+00 -0.00000000000E+00 -0.85485844819E+03  0.85485844819E+03  0.00000000000E+00 0. -1.
         23    2    1    2    0    0  0.15832171653E+03 -0.19012527495E+03 -0.12323451418E+03  0.29043299223E+03  0.89169453240E+02 0.  0.
        254    2    1    2    0    0 -0.15832171653E+03  0.19012527495E+03 -0.29668178684E+03  0.99936760313E+03  0.92168440230E+03 0.  0.
        -24    2    4    4    0    0  0.22840958118E+03  0.38371275650E+03 -0.32605647624E+03  0.55842680655E+03  0.78238457938E+02 0.  0.
         24    2    4    4    0    0 -0.38673129771E+03 -0.19358748155E+03  0.29374689399E+02  0.44094079658E+03  0.80800396487E+02 0.  0.
         11    1    3    3    0    0  0.11322543812E+03 -0.82135579369E+02 -0.35908583821E+02  0.14441495639E+03  0.00000000000E+00 0. -1.
        -11    1    3    3    0    0  0.45096278402E+02 -0.10798969559E+03 -0.87325930358E+02  0.14601803584E+03  0.00000000000E+00 0.  1.
          2    1    6    6  502    0 -0.22819787116E+03 -0.10504808238E+03 -0.22148910057E+02  0.25219028972E+03  0.00000000000E+00 0. -1.
          3    1    5    5  503    0  0.17937475589E+03  0.22801361036E+03 -0.20818437657E+03  0.35708016496E+03  0.00000000000E+00 0. -1.
         -4    1    5    5    0  503  0.49034825297E+02  0.15569914614E+03 -0.11787209967E+03  0.20134664159E+03  0.00000000000E+00 0.  1.
         -1    1    6    6    0  502 -0.15853342655E+03 -0.88539399169E+02  0.51523599456E+02  0.18875050686E+03  0.00000000000E+00 0.  1.
<mgrwt>
<rscale>  0 0.12195310E+04</rscale>
<asrwt>0</asrwt>
<pdfrwt beam="1">  1        1 0.13151668E+00 0.12195310E+04</pdfrwt>
<pdfrwt beam="2">  1       -1 0.66914177E-01 0.12195310E+04</pdfrwt>
<totfact> 0.44375085E+01</totfact>
</mgrwt>
</event>
<event>
12    1  0.1549527E-007  0.1457434E+04  0.7818608E-02  0.8913263E-01
          1   -1    0    0  501    0  0.00000000000E+00  0.00000000000E+00  0.28475363368E+04  0.28475363368E+04  0.00000000000E+00 0. -1.
         -1   -1    0    0    0  501 -0.00000000000E+00 -0.00000000000E+00 -0.18648696564E+03  0.18648696564E+03  0.00000000000E+00 0.  1.
         23    2    1    2    0    0 -0.69624179763E+02 -0.21065750599E+03  0.23593397412E+02  0.24071014898E+03  0.90336128886E+02 0.  0.
        254    2    1    2    0    0  0.69624179763E+02  0.21065750599E+03  0.26374559738E+04  0.27933131535E+04  0.89286071066E+03 0.  0.
        -24    2    4    4    0    0  0.57325319314E+02  0.21719684209E+03  0.10619441117E+03  0.26070749423E+03  0.78933415838E+02 0.  0.
         24    2    4    4    0    0  0.12298860449E+02 -0.65393361014E+01  0.25312615626E+04  0.25326056592E+04  0.81316063197E+02 0.  0.
         13    1    3    3    0    0  0.26541711559E+01 -0.32636898551E+02  0.35389396129E+02  0.48214324945E+02  0.00000000000E+00 0. -1.
        -13    1    3    3    0    0 -0.72278350919E+02 -0.17802060744E+03 -0.11795998717E+02  0.19249582403E+03  0.00000000000E+00 0.  1.
          4    1    6    6  502    0  0.20250470871E+01 -0.39347120093E+02  0.19001515660E+04  0.19005599886E+04  0.00000000000E+00 0. -1.
          1    1    5    5  503    0  0.29387165179E+02  0.20565686061E+03  0.89843743498E+02  0.22634099947E+03  0.00000000000E+00 0. -1.
         -2    1    5    5    0  503  0.27938154134E+02  0.11539981478E+02  0.16350667675E+02  0.34366494764E+02  0.00000000000E+00 0.  1.
         -3    1    6    6    0  502  0.10273813362E+02  0.32807783991E+02  0.63110999659E+03  0.63204567060E+03  0.00000000000E+00 0.  1.
<mgrwt>
<rscale>  0 0.14574339E+04</rscale>
<asrwt>0</asrwt>
<pdfrwt beam="1">  1        1 0.43808248E+00 0.14574339E+04</pdfrwt>
<pdfrwt beam="2">  1       -1 0.28690304E-01 0.14574339E+04</pdfrwt>
<totfact> 0.82995523E+00</totfact>
</mgrwt>
</event>
<event>
12    1  0.1549527E-007  0.1555266E+04  0.7818608E-02  0.8848511E-01
          1   -1    0    0  501    0  0.00000000000E+00  0.00000000000E+00  0.35130384238E+03  0.35130384238E+03  0.00000000000E+00 0. -1.
         -1   -1    0    0    0  501 -0.00000000000E+00 -0.00000000000E+00 -0.17213397321E+04  0.17213397321E+04  0.00000000000E+00 0.  1.
         23    2    1    2    0    0 -0.30178802724E+03 -0.10711247109E+03 -0.98949006008E+03  0.10438850781E+04  0.89757353046E+02 0.  0.
        254    2    1    2    0    0  0.30178802724E+03  0.10711247109E+03 -0.38054582968E+03  0.10287584964E+04  0.90054418027E+03 0.  0.
        -24    2    4    4    0    0  0.57607324308E+03  0.87817522148E+02 -0.44174808031E+03  0.73596037631E+03  0.83210639071E+02 0.  0.
         24    2    4    4    0    0 -0.27428521584E+03  0.19294948940E+02  0.61202250633E+02  0.29279812011E+03  0.79877086668E+02 0.  0.
         13    1    3    3    0    0  0.68114930554E-01 -0.79011953826E+01 -0.81941089582E+02  0.82321174007E+02  0.00000000000E+00 0. -1.
        -13    1    3    3    0    0 -0.30185614217E+03 -0.99211275705E+02 -0.90754897050E+03  0.96156390409E+03  0.00000000000E+00 0.  1.
          2    1    6    6  502    0 -0.21069623925E+03 -0.19615663550E+02  0.49715777742E+02  0.21736912855E+03  0.00000000000E+00 0. -1.
          3    1    5    5  503    0  0.18686827161E+03 -0.21946573935E+01 -0.17158433835E+03  0.25370406505E+03  0.00000000000E+00 0. -1.
         -4    1    5    5    0  503  0.38920497147E+03  0.90012179541E+02 -0.27016374196E+03  0.48225631126E+03  0.00000000000E+00 0.  1.
         -1    1    6    6    0  502 -0.63588976588E+02  0.38910612490E+02  0.11486472891E+02  0.75428991557E+02  0.00000000000E+00 0.  1.
<mgrwt>
<rscale>  0 0.15552662E+04</rscale>
<asrwt>0</asrwt>
<pdfrwt beam="1">  1        1 0.54046746E-01 0.15552662E+04</pdfrwt>
<pdfrwt beam="2">  1       -1 0.26482149E+00 0.15552662E+04</pdfrwt>
<totfact> 0.38351297E+00</totfact>
</mgrwt>
</event>
<event>
12    1  0.1549527E-007  0.1902136E+04  0.7818608E-02  0.8653794E-01
         -1   -1    0    0    0  501 -0.00000000000E+00  0.00000000000E+00  0.43725173129E+03  0.43725173129E+03  0.00000000000E+00 0.  1.
          1   -1    0    0  501    0  0.00000000000E+00 -0.00000000000E+00 -0.20686718129E+04  0.20686718129E+04  0.00000000000E+00 0. -1.
         23    2    1    2    0    0  0.18865343650E+03  0.50753176091E+03 -0.12117222886E+04  0.13302648171E+04  0.90304881905E+02 0.  0.
        254    2    1    2    0    0 -0.18865343650E+03 -0.50753176091E+03 -0.41969779302E+03  0.11756587270E+04  0.95543110558E+03 0.  0.
        -24    2    4    4    0    0 -0.18222116249E+02 -0.40353244637E+03  0.24281990453E+03  0.47830859613E+03  0.81529910459E+02 0.  0.
         24    2    4    4    0    0 -0.17043132025E+03 -0.10399931454E+03 -0.66251769754E+03  0.69735013089E+03  0.86630324646E+02 0.  0.
         11    1    3    3    0    0  0.18276652357E+03  0.39427244524E+03 -0.99147554048E+03  0.10825331914E+04  0.00000000000E+00 0. -1.
        -11    1    3    3    0    0  0.58869129357E+01  0.11325931567E+03 -0.22024674807E+03  0.24773162569E+03  0.00000000000E+00 0.  1.
          2    1    6    6  502    0 -0.66042756757E+02 -0.66467897678E+02 -0.42497536429E+03  0.43518236108E+03  0.00000000000E+00 0. -1.
          1    1    5    5  503    0 -0.13580920555E+02 -0.39879627008E+03  0.22235949936E+03  0.45680045248E+03  0.00000000000E+00 0. -1.
         -2    1    5    5    0  503 -0.46411956943E+01 -0.47361762897E+01  0.20460405169E+02  0.21508143644E+02  0.00000000000E+00 0.  1.
         -1    1    6    6    0  502 -0.10438856350E+03 -0.37531416860E+02 -0.23754233325E+03  0.26216776981E+03  0.00000000000E+00 0.  1.
<mgrwt>
<rscale>  0 0.19021360E+04</rscale>
<asrwt>0</asrwt>
<pdfrwt beam="1">  1        1 0.31825720E+00 0.19021360E+04</pdfrwt>
<pdfrwt beam="2">  1       -1 0.67269497E-01 0.19021360E+04</pdfrwt>
<totfact> 0.56045484E+00</totfact>
</mgrwt>
</event>
<event>
12    1  0.1549527E-007  0.2542712E+04  0.7818608E-02  0.8387925E-01
          2   -1    0    0  501    0  0.00000000000E+00  0.00000000000E+00  0.19089849920E+04  0.19089849920E+04  0.00000000000E+00 0. -1.
         -2   -1    0    0    0  501 -0.00000000000E+00 -0.00000000000E+00 -0.84670425368E+03  0.84670425368E+03  0.00000000000E+00 0.  1.
         23    2    1    2    0    0  0.10447157440E+04 -0.41029727384E+03  0.51847402514E+03  0.12397223324E+04  0.91221203068E+02 0.  0.
        254    2    1    2    0    0 -0.10447157440E+04  0.41029727384E+03  0.54380671320E+03  0.15159669133E+04  0.86177439171E+03 0.  0.
        -24    2    4    4    0    0 -0.11229488906E+04  0.16064730202E+03  0.48760082613E+03  0.12372317569E+04  0.78524442714E+02 0.  0.
         24    2    4    4    0    0  0.78233146527E+02  0.24964997182E+03  0.56205887064E+02  0.27873515645E+03  0.78029815155E+02 0.  0.
         13    1    3    3    0    0  0.10255359326E+04 -0.39101379994E+03  0.49591645524E+03  0.12043873427E+04  0.00000000000E+00 0. -1.
        -13    1    3    3    0    0  0.19179811445E+02 -0.19283473902E+02  0.22557569893E+02  0.35334989632E+02  0.00000000000E+00 0.  1.
          4    1    6    6  502    0  0.34785636255E+02  0.20779410405E+03  0.57503738950E+02  0.21839210187E+03  0.00000000000E+00 0. -1.
          3    1    5    5  503    0 -0.31555123255E+03  0.75801697288E+02  0.11943150024E+03  0.34580682602E+03  0.00000000000E+00 0. -1.
         -4    1    5    5    0  503 -0.80739765802E+03  0.84845604732E+02  0.36816932590E+03  0.89142493086E+03  0.00000000000E+00 0.  1.
         -3    1    6    6    0  502  0.43447510272E+02  0.41855867772E+02 -0.12978518863E+01  0.60343054574E+02  0.00000000000E+00 0.  1.
<mgrwt>
<rscale>  0 0.25427117E+04</rscale>
<asrwt>0</asrwt>
<pdfrwt beam="1">  1        2 0.29369000E+00 0.25427117E+04</pdfrwt>
<pdfrwt beam="2">  1       -2 0.13026219E+00 0.25427117E+04</pdfrwt>
<totfact> 0.28829137E+00</totfact>
</mgrwt>
</event>
<event>
12    1  0.1549527E-007  0.2716324E+04  0.7818608E-02  0.8329728E-01
         -2   -1    0    0    0  501 -0.00000000000E+00  0.00000000000E+00  0.18507062427E+04  0.18507062427E+04  0.00000000000E+00 0.  1.
          2   -1    0    0  501    0  0.00000000000E+00 -0.00000000000E+00 -0.99670240106E+03  0.99670240106E+03  0.00000000000E+00 0. -1.
         23    2    1    2    0    0 -0.12381537886E+03  0.13470835256E+03  0.16399180525E+04  0.16522727944E+04  0.84838551409E+02 0.  0.
        254    2    1    2    0    0  0.12381537886E+03 -0.13470835256E+03 -0.78591421090E+03  0.11951358494E+04  0.88159625863E+03 0.  0.
        -24    2    4    4    0    0 -0.34384808619E+03 -0.21992673955E+03 -0.31958713456E+03  0.52451360708E+03  0.79870584625E+02 0.  0.
         24    2    4    4    0    0  0.46766346505E+03  0.85218386983E+02 -0.46632707634E+03  0.67062224228E+03  0.79384883198E+02 0.  0.
         13    1    3    3    0    0 -0.11383340373E+03  0.10703859746E+03  0.15455009178E+04  0.15533796677E+04  0.00000000000E+00 0.  1.
        -13    1    3    3    0    0 -0.99819751322E+01  0.27669755106E+02  0.94417134787E+02  0.98893126741E+02  0.00000000000E+00 0. -1.
          4    1    6    6  502    0  0.41539388747E+03  0.99984005576E+02 -0.42182553993E+03  0.60040458798E+03  0.00000000000E+00 0. -1.
          3    1    5    5  503    0 -0.18033975166E+03 -0.15822633109E+03 -0.16482833185E+03  0.29107795667E+03  0.00000000000E+00 0. -1.
         -4    1    5    5    0  503 -0.16350833453E+03 -0.61700408456E+02 -0.15475880271E+03  0.23343565040E+03  0.00000000000E+00 0.  1.
         -3    1    6    6    0  502  0.52269577579E+02 -0.14765618594E+02 -0.44501536409E+02  0.70217654301E+02  0.00000000000E+00 0.  1.
<mgrwt>
<rscale>  0 0.27163235E+04</rscale>
<asrwt>0</asrwt>
<pdfrwt beam="1">  1        2 0.15333883E+00 0.27163235E+04</pdfrwt>
<pdfrwt beam="2">  1       -2 0.28472404E+00 0.27163235E+04</pdfrwt>
<totfact> 0.87392504E-01</totfact>
</mgrwt>
</event>
<event>
12    1  0.1549527E-007  0.1557205E+04  0.7818608E-02  0.8847279E-01
          2   -1    0    0  501    0  0.00000000000E+00  0.00000000000E+00  0.18196847230E+04  0.18196847230E+04  0.00000000000E+00 0. -1.
         -2   -1    0    0    0  501 -0.00000000000E+00 -0.00000000000E+00 -0.33314664865E+03  0.33314664865E+03  0.00000000000E+00 0.  1.
         23    2    1    2    0    0  0.28688952913E+03  0.41173314697E+03  0.34249079248E+03  0.61395189300E+03  0.88358348530E+02 0.  0.
        254    2    1    2    0    0 -0.28688952913E+03 -0.41173314697E+03  0.11440472819E+04  0.15388794787E+04  0.89859672847E+03 0.  0.
        -24    2    4    4    0    0 -0.44492566576E+02 -0.64418168806E+02 -0.14299423501E+03  0.18145703436E+03  0.79686982126E+02 0.  0.
         24    2    4    4    0    0 -0.24239696255E+03 -0.34731497817E+03  0.12870415169E+04  0.13574224443E+04  0.82072191033E+02 0.  0.
         11    1    3    3    0    0  0.27761294728E+03  0.40403571107E+03  0.34750747963E+03  0.60089537585E+03  0.00000000000E+00 0. -1.
        -11    1    3    3    0    0  0.92765818507E+01  0.76974358973E+01 -0.50166871533E+01  0.13056517155E+02  0.00000000000E+00 0.  1.
          4    1    6    6  502    0 -0.21156303367E+03 -0.24100626817E+03  0.96426734193E+03  0.10161960663E+04  0.00000000000E+00 0. -1.
          1    1    5    5  503    0 -0.64682112879E+02 -0.36883755017E+02 -0.11640322855E+03  0.13818067422E+03  0.00000000000E+00 0. -1.
         -2    1    5    5    0  503  0.20189546303E+02 -0.27534413789E+02 -0.26591006460E+02  0.43276360142E+02  0.00000000000E+00 0.  1.
         -3    1    6    6    0  502 -0.30833928878E+02 -0.10630871000E+03  0.32277417497E+03  0.34122637796E+03  0.00000000000E+00 0.  1.
<mgrwt>
<rscale>  0 0.15572050E+04</rscale>
<asrwt>0</asrwt>
<pdfrwt beam="1">  1        2 0.27995149E+00 0.15572050E+04</pdfrwt>
<pdfrwt beam="2">  1       -2 0.51253332E-01 0.15572050E+04</pdfrwt>
<totfact> 0.29118361E+01</totfact>
</mgrwt>
</event>
<event>
12    1  0.1549527E-007  0.1311462E+04  0.7818608E-02  0.9020525E-01
         -2   -1    0    0    0  501 -0.00000000000E+00  0.00000000000E+00  0.10466453813E+04  0.10466453813E+04  0.00000000000E+00 0.  1.
          2   -1    0    0  501    0  0.00000000000E+00 -0.00000000000E+00 -0.41082035237E+03  0.41082035237E+03  0.00000000000E+00 0. -1.
         23    2    1    2    0    0  0.97992879124E+02  0.22868513944E+02  0.50444495666E+03  0.52274351823E+03  0.93115510270E+02 0.  0.
        254    2    1    2    0    0 -0.97992879124E+02 -0.22868513944E+02  0.13138007225E+03  0.93472221543E+03  0.91995615295E+03 0.  0.
        -24    2    4    4    0    0 -0.67478531621E+02  0.66879271730E+02 -0.38449724173E+03  0.40393660283E+03  0.79375443281E+02 0.  0.
         24    2    4    4    0    0 -0.30514347503E+02 -0.89747785674E+02  0.51587731397E+03  0.53078561260E+03  0.81352154432E+02 0.  0.
         11    1    3    3    0    0 -0.12181553255E+02 -0.13840259134E+02  0.40735303836E+02  0.44713621987E+02  0.00000000000E+00 0. -1.
        -11    1    3    3    0    0  0.11017443238E+03  0.36708773078E+02  0.46370965283E+03  0.47802989624E+03  0.00000000000E+00 0.  1.
          4    1    6    6  502    0 -0.52355597288E+02 -0.34895202811E+02  0.32312144578E+03  0.32919029827E+03  0.00000000000E+00 0. -1.
          1    1    5    5  503    0 -0.28265365336E+02  0.23632149351E+02 -0.29363202131E+03  0.29593440709E+03  0.00000000000E+00 0. -1.
         -4    1    5    5    0  503 -0.39213166286E+02  0.43247122380E+02 -0.90865220419E+02  0.10800219575E+03  0.00000000000E+00 0.  1.
         -3    1    6    6    0  502  0.21841249786E+02 -0.54852582863E+02  0.19275586819E+03  0.20159531433E+03  0.00000000000E+00 0.  1.
<mgrwt>
<rscale>  0 0.13114621E+04</rscale>
<asrwt>0</asrwt>
<pdfrwt beam="1">  1        2 0.63203132E-01 0.13114621E+04</pdfrwt>
<pdfrwt beam="2">  1       -2 0.16102236E+00 0.13114621E+04</pdfrwt>
<totfact> 0.18684615E+01</totfact>
</mgrwt>
</event>
<event>
12    1  0.1549527E-007  0.1106338E+04  0.7818608E-02  0.9199036E-01
          2   -1    0    0  501    0  0.00000000000E+00  0.00000000000E+00  0.26408837938E+04  0.26408837938E+04  0.00000000000E+00 0.  1.
         -2   -1    0    0    0  501 -0.00000000000E+00 -0.00000000000E+00 -0.11586879653E+03  0.11586879653E+03  0.00000000000E+00 0. -1.
         23    2    1    2    0    0  0.10418535140E+03  0.38642722628E+01  0.73100005851E+03  0.74538836353E+03  0.10184894160E+03 0.  0.
        254    2    1    2    0    0 -0.10418535140E+03 -0.38642722628E+01  0.17940149388E+04  0.20113642268E+04  0.90345278366E+03 0.  0.
        -24    2    4    4    0    0  0.35218144158E+03 -0.98673853864E+02  0.11695643099E+04  0.12279883111E+04  0.79412341172E+02 0.  0.
         24    2    4    4    0    0 -0.45636679297E+03  0.94809581601E+02  0.62445062889E+03  0.78337591574E+03  0.80496776083E+02 0.  0.
         11    1    3    3    0    0  0.12045000625E+02  0.37615084903E+02  0.11433305807E+03  0.12096290679E+03  0.00000000000E+00 0. -1.
        -11    1    3    3    0    0  0.92140350771E+02 -0.33750812640E+02  0.61666700044E+03  0.62442545674E+03  0.00000000000E+00 0.  1.
          4    1    6    6  502    0 -0.60337428529E+02  0.78440069824E+01  0.13296826267E+03  0.14622822096E+03  0.00000000000E+00 0. -1.
          3    1    5    5  503    0  0.30741712412E+02  0.90817687806E+01  0.63478409950E+02  0.71112867583E+02  0.00000000000E+00 0. -1.
         -4    1    5    5    0  503  0.32143972916E+03 -0.10775562264E+03  0.11060858999E+04  0.11568754435E+04  0.00000000000E+00 0.  1.
         -3    1    6    6    0  502 -0.39602936444E+03  0.86965574619E+02  0.49148236622E+03  0.63714769479E+03  0.00000000000E+00 0.  1.
<mgrwt>
<rscale>  0 0.11063382E+04</rscale>
<asrwt>0</asrwt>
<pdfrwt beam="1">  1        2 0.40628977E+00 0.11063382E+04</pdfrwt>
<pdfrwt beam="2">  1       -2 0.17825971E-01 0.11063382E+04</pdfrwt>
<totfact> 0.75490964E+01</totfact>
</mgrwt>
</event>
<event>
12    1  0.1549527E-007  0.2036997E+04  0.7818608E-02  0.8589516E-01
          2   -1    0    0  501    0  0.00000000000E+00  0.00000000000E+00  0.12991745670E+04  0.12991745670E+04  0.00000000000E+00 0.  1.
         -2   -1    0    0    0  501 -0.00000000000E+00 -0.00000000000E+00 -0.79846059721E+03  0.79846059721E+03  0.00000000000E+00 0. -1.
         23    2    1    2    0    0  0.50451764552E+03  0.17362991179E+03 -0.43225516361E+03  0.69273625697E+03  0.91397999702E+02 0.  0.
        254    2    1    2    0    0 -0.50451764552E+03 -0.17362991179E+03  0.93296913343E+03  0.14048989073E+04  0.90477850042E+03 0.  0.
        -24    2    4    4    0    0 -0.41018322994E+03 -0.15035002189E+03 -0.19878405463E+02  0.44379383399E+03  0.75514269385E+02 0.  0.
         24    2    4    4    0    0 -0.94334415587E+02 -0.23279889895E+02  0.95284753889E+03  0.96110507328E+03  0.79772139742E+02 0.  0.
         11    1    3    3    0    0  0.10496891901E+03  0.40109166216E+01 -0.60403859802E+02  0.12117420390E+03  0.00000000000E+00 0. -1.
        -11    1    3    3    0    0  0.39954872651E+03  0.16961899516E+03 -0.37185130380E+03  0.57156205308E+03  0.00000000000E+00 0.  1.
          4    1    6    6  502    0 -0.86304702658E+02 -0.20897441113E+02  0.94634372573E+03  0.95050073749E+03  0.00000000000E+00 0. -1.
          3    1    5    5  503    0 -0.35819694529E+03 -0.12692243819E+03 -0.42627213489E+02  0.38240219176E+03  0.00000000000E+00 0. -1.
         -4    1    5    5    0  503 -0.51986284642E+02 -0.23427583701E+02  0.22748808027E+02  0.61391642229E+02  0.00000000000E+00 0.  1.
         -3    1    6    6    0  502 -0.80297129286E+01 -0.23824487826E+01  0.65038131651E+01  0.10604335793E+02  0.00000000000E+00 0.  1.
<mgrwt>
<rscale>  0 0.20369975E+04</rscale>
<asrwt>0</asrwt>
<pdfrwt beam="1">  1        2 0.19987301E+00 0.20369975E+04</pdfrwt>
<pdfrwt beam="2">  1       -2 0.12284009E+00 0.20369975E+04</pdfrwt>
<totfact> 0.76800056E+00</totfact>
</mgrwt>
</event>
<event>
12    1  0.1549527E-007  0.1528334E+04  0.7818608E-02  0.8865827E-01
          2   -1    0    0  501    0  0.00000000000E+00  0.00000000000E+00  0.10344154840E+04  0.10344154840E+04  0.00000000000E+00 0. -1.
         -2   -1    0    0    0  501 -0.00000000000E+00 -0.00000000000E+00 -0.56452301858E+03  0.56452301858E+03  0.00000000000E+00 0.  1.
         23    2    1    2    0    0 -0.25186396448E+03  0.42651902293E+03  0.19414215498E+03  0.53982890333E+03  0.91488441883E+02 0.  0.
        254    2    1    2    0    0  0.25186396448E+03 -0.42651902293E+03  0.27575031038E+03  0.10591095992E+04  0.89460660401E+03 0.  0.
        -24    2    4    4    0    0  0.47487627759E+03 -0.37827608935E+03 -0.92119789616E+02  0.61927961972E+03  0.80130599435E+02 0.  0.
         24    2    4    4    0    0 -0.22301231312E+03 -0.48242933582E+02  0.36787010000E+03  0.43982997949E+03  0.77846823561E+02 0.  0.
         11    1    3    3    0    0 -0.14473291880E+03  0.30299133982E+03  0.16348233951E+03  0.37346732805E+03  0.00000000000E+00 0. -1.
        -11    1    3    3    0    0 -0.10713104567E+03  0.12352768312E+03  0.30659815470E+02  0.16636157527E+03  0.00000000000E+00 0.  1.
          2    1    6    6  502    0 -0.14242823379E+03 -0.48170674086E+02  0.29535436904E+03  0.33142181421E+03  0.00000000000E+00 0. -1.
          1    1    5    5  503    0  0.10847507192E+03 -0.13029358840E+03 -0.35818140471E+02  0.17328069597E+03  0.00000000000E+00 0. -1.
         -2    1    5    5    0  503  0.36640120567E+03 -0.24798250095E+03 -0.56301649146E+02  0.44599892375E+03  0.00000000000E+00 0.  1.
         -1    1    6    6    0  502 -0.80584079325E+02 -0.72259495760E-01  0.72515730961E+02  0.10840816528E+03  0.00000000000E+00 0.  1.
<mgrwt>
<rscale>  0 0.15283342E+04</rscale>
<asrwt>0</asrwt>
<pdfrwt beam="1">  1        2 0.15914084E+00 0.15283342E+04</pdfrwt>
<pdfrwt beam="2">  1       -2 0.86849695E-01 0.15283342E+04</pdfrwt>
<totfact> 0.26487991E+01</totfact>
</mgrwt>
</event>
<event>
12    1  0.1549527E-007  0.3537258E+04  0.7818608E-02  0.8105017E-01
          1   -1    0    0  501    0  0.00000000000E+00  0.00000000000E+00  0.21558500380E+04  0.21558500380E+04  0.00000000000E+00 0. -1.
         -1   -1    0    0    0  501 -0.00000000000E+00 -0.00000000000E+00 -0.14509580651E+04  0.14509580651E+04  0.00000000000E+00 0.  1.
         23    2    1    2    0    0 -0.53504822601E+03  0.95853228640E+03 -0.92567483240E+03  0.14388446020E+04  0.91318919764E+02 0.  0.
        254    2    1    2    0    0  0.53504822601E+03 -0.95853228640E+03  0.16305668053E+04  0.21679635012E+04  0.91447082391E+03 0.  0.
        -24    2    4    4    0    0 -0.22461423426E+03 -0.10250111840E+03  0.46423166410E+03  0.53194767733E+03  0.80617987814E+02 0.  0.
         24    2    4    4    0    0  0.75966246027E+03 -0.85603116800E+03  0.11663351412E+04  0.16360158239E+04  0.79584547763E+02 0.  0.
         11    1    3    3    0    0 -0.21459082458E+03  0.40804708743E+03 -0.33222939245E+03  0.56826755737E+03  0.00000000000E+00 0.  1.
        -11    1    3    3    0    0 -0.32045740143E+03  0.55048519897E+03 -0.59344543995E+03  0.87057704461E+03  0.00000000000E+00 0. -1.
          4    1    6    6  502    0  0.12695319682E+03 -0.18113324359E+03  0.19911037536E+03  0.29760932057E+03  0.00000000000E+00 0. -1.
          1    1    5    5  503    0 -0.44830732270E+02  0.91084394661E+01  0.57656594965E+02  0.73600551413E+02  0.00000000000E+00 0. -1.
         -2    1    5    5    0  503 -0.17978350199E+03 -0.11160955787E+03  0.40657506913E+03  0.45834712592E+03  0.00000000000E+00 0.  1.
         -3    1    6    6    0  502  0.63270926345E+03 -0.67489792441E+03  0.96722476584E+03  0.13384065033E+04  0.00000000000E+00 0.  1.
<mgrwt>
<rscale>  0 0.35372577E+04</rscale>
<asrwt>0</asrwt>
<pdfrwt beam="1">  1        1 0.33166924E+00 0.35372577E+04</pdfrwt>
<pdfrwt beam="2">  1       -1 0.22322432E+00 0.35372577E+04</pdfrwt>
<totfact> 0.19886665E-01</totfact>
</mgrwt>
</event>
<event>
12    1  0.1549527E-007  0.1905556E+04  0.7818608E-02  0.8652096E-01
         -2   -1    0    0    0  501 -0.00000000000E+00  0.00000000000E+00  0.83066533946E+03  0.83066533946E+03  0.00000000000E+00 0.  1.
          2   -1    0    0  501    0  0.00000000000E+00 -0.00000000000E+00 -0.10928414299E+04  0.10928414299E+04  0.00000000000E+00 0. -1.
         23    2    1    2    0    0 -0.85952577471E+02 -0.71205468427E+03 -0.61775548812E+02  0.72568959502E+03  0.91648518443E+02 0.  0.
        254    2    1    2    0    0  0.85952577471E+02  0.71205468427E+03 -0.20040054167E+03  0.11978171744E+04  0.93818755436E+03 0.  0.
        -24    2    4    4    0    0  0.17191881688E+03 -0.73979168736E+02  0.21985996934E+03  0.29912530271E+03  0.78157172382E+02 0.  0.
         24    2    4    4    0    0 -0.85966239411E+02  0.78603385300E+03 -0.42026051101E+03  0.89869187167E+03  0.76083971345E+02 0.  0.
         13    1    3    3    0    0  0.11609681187E+02 -0.36059391587E+02  0.92852454421E+01  0.39003592165E+02  0.00000000000E+00 0.  1.
        -13    1    3    3    0    0 -0.97562258659E+02 -0.67599529268E+03 -0.71060794254E+02  0.68668600286E+03  0.00000000000E+00 0. -1.
          2    1    6    6  502    0 -0.86136836722E+02  0.78081712188E+03 -0.40761445240E+03  0.88501100234E+03  0.00000000000E+00 0. -1.
          3    1    5    5  503    0  0.11745902029E+03 -0.80929608321E+02  0.18681948000E+03  0.23504838025E+03  0.00000000000E+00 0. -1.
         -2    1    5    5    0  503  0.54459796593E+02  0.69504395853E+01  0.33040489338E+02  0.64076922453E+02  0.00000000000E+00 0.  1.
         -1    1    6    6    0  502  0.17059731057E+00  0.52167311231E+01 -0.12646058609E+02  0.13680869322E+02  0.00000000000E+00 0.  1.
<mgrwt>
<rscale>  0 0.19055556E+04</rscale>
<asrwt>0</asrwt>
<pdfrwt beam="1">  1        2 0.16812945E+00 0.19055556E+04</pdfrwt>
<pdfrwt beam="2">  1       -2 0.12779467E+00 0.19055556E+04</pdfrwt>
<totfact> 0.93450359E+00</totfact>
</mgrwt>
</event>
<event>
12    1  0.1549527E-007  0.2345948E+04  0.7818608E-02  0.8460022E-01
          1   -1    0    0  501    0  0.00000000000E+00  0.00000000000E+00  0.21243824402E+04  0.21243824402E+04  0.00000000000E+00 0. -1.
         -1   -1    0    0    0  501 -0.00000000000E+00 -0.00000000000E+00 -0.64765561017E+03  0.64765561017E+03  0.00000000000E+00 0.  1.
         23    2    1    2    0    0  0.59546610234E+03 -0.12671844141E+03  0.15772033203E+04  0.16930660861E+04  0.90912132702E+02 0.  0.
        254    2    1    2    0    0 -0.59546610234E+03  0.12671844141E+03 -0.10047649031E+03  0.10789719642E+04  0.88512571542E+03 0.  0.
        -24    2    4    4    0    0 -0.20477448142E+02 -0.28437190595E+03  0.14140136490E+03  0.32738192060E+03  0.76797585663E+02 0.  0.
         24    2    4    4    0    0 -0.57498865420E+03  0.41109034736E+03 -0.24187785522E+03  0.75159004365E+03  0.82313247457E+02 0.  0.
         13    1    3    3    0    0  0.30533335365E+03 -0.63370249458E+02  0.93236132392E+03  0.98312862012E+03  0.00000000000E+00 0. -1.
        -13    1    3    3    0    0  0.29013274869E+03 -0.63348191956E+02  0.64484199641E+03  0.70993746600E+03  0.00000000000E+00 0.  1.
          2    1    6    6  502    0 -0.37037971169E+02  0.49963823141E+01 -0.16869864080E+02  0.41004480958E+02  0.00000000000E+00 0. -1.
          3    1    5    5  503    0 -0.35442816615E+02 -0.11987685155E+03  0.91228007452E+02  0.15475529758E+03  0.00000000000E+00 0. -1.
         -2    1    5    5    0  503  0.14965368473E+02 -0.16449505440E+03  0.50173357451E+02  0.17262662302E+03  0.00000000000E+00 0.  1.
         -1    1    6    6    0  502 -0.53795068303E+03  0.40609396505E+03 -0.22500799114E+03  0.71058556269E+03  0.00000000000E+00 0.  1.
<mgrwt>
<rscale>  0 0.23459482E+04</rscale>
<asrwt>0</asrwt>
<pdfrwt beam="1">  1        1 0.32682807E+00 0.23459482E+04</pdfrwt>
<pdfrwt beam="2">  1       -1 0.99639325E-01 0.23459482E+04</pdfrwt>
<totfact> 0.21219220E+00</totfact>
</mgrwt>
</event>
<event>
12    1  0.1549527E-007  0.1914310E+04  0.7818608E-02  0.8647766E-01
          2   -1    0    0  501    0  0.00000000000E+00  0.00000000000E+00  0.72912884672E+03  0.72912884672E+03  0.00000000000E+00 0. -1.
         -2   -1    0    0    0  501 -0.00000000000E+00 -0.00000000000E+00 -0.12564939036E+04  0.12564939036E+04  0.00000000000E+00 0.  1.
         23    2    1    2    0    0  0.96862970478E+02 -0.73127565173E+03 -0.27641732519E+03  0.79275393447E+03  0.88914279392E+02 0.  0.
        254    2    1    2    0    0 -0.96862970478E+02  0.73127565173E+03 -0.25094773170E+03  0.11928688159E+04  0.90322463095E+03 0.  0.
        -24    2    4    4    0    0 -0.48800418772E+03  0.30262659512E+03 -0.13612714672E+03  0.59557193814E+03  0.80276958849E+02 0.  0.
         24    2    4    4    0    0  0.39114121724E+03  0.42864905661E+03 -0.11482058498E+03  0.59729687772E+03  0.82754624315E+02 0.  0.
         11    1    3    3    0    0  0.17634762906E+02 -0.17548807521E+02 -0.10096792989E+02  0.26849408501E+02  0.00000000000E+00 0. -1.
        -11    1    3    3    0    0  0.79228207572E+02 -0.71372684421E+03 -0.26632053220E+03  0.76590452597E+03  0.00000000000E+00 0.  1.
          2    1    6    6  502    0  0.25003723833E+03  0.30781787585E+03 -0.10965786005E+03  0.41145511483E+03  0.00000000000E+00 0. -1.
          3    1    5    5  503    0 -0.41414337438E+03  0.25197686903E+03 -0.84155932218E+02  0.49202570867E+03  0.00000000000E+00 0. -1.
         -4    1    5    5    0  503 -0.73860813339E+02  0.50649726098E+02 -0.51971214501E+02  0.10354622947E+03  0.00000000000E+00 0.  1.
         -1    1    6    6    0  502  0.14110397891E+03  0.12083118075E+03 -0.51627249285E+01  0.18584176289E+03  0.00000000000E+00 0.  1.
<mgrwt>
<rscale>  0 0.19143103E+04</rscale>
<asrwt>0</asrwt>
<pdfrwt beam="1">  1        2 0.11217367E+00 0.19143103E+04</pdfrwt>
<pdfrwt beam="2">  1       -2 0.19330675E+00 0.19143103E+04</pdfrwt>
<totfact> 0.53558504E+00</totfact>
</mgrwt>
</event>
<event>
12    1  0.1549527E-007  0.1659473E+04  0.7818608E-02  0.8784822E-01
          1   -1    0    0  501    0  0.00000000000E+00  0.00000000000E+00  0.58581930663E+03  0.58581930663E+03  0.00000000000E+00 0. -1.
         -1   -1    0    0    0  501 -0.00000000000E+00 -0.00000000000E+00 -0.11752126422E+04  0.11752126422E+04  0.00000000000E+00 0.  1.
         23    2    1    2    0    0  0.24544541867E+03 -0.12507806674E+03 -0.74364024805E+03  0.79832339300E+03  0.91822900018E+02 0.  0.
        254    2    1    2    0    0 -0.24544541867E+03  0.12507806674E+03  0.15424691245E+03  0.96270855585E+03  0.90946559978E+03 0.  0.
        -24    2    4    4    0    0  0.20271681694E+03 -0.54902913557E+01 -0.25603045044E+03  0.33607035421E+03  0.79167166556E+02 0.  0.
         24    2    4    4    0    0 -0.44816223560E+03  0.13056835810E+03  0.41027736289E+03  0.62663820164E+03  0.80314604522E+02 0.  0.
         11    1    3    3    0    0  0.24346976683E+03 -0.13457591559E+03 -0.69279351870E+03  0.74655948455E+03  0.00000000000E+00 0.  1.
        -11    1    3    3    0    0  0.19756518406E+01  0.94978488433E+01 -0.50846729345E+02  0.51763908449E+02  0.00000000000E+00 0. -1.
          2    1    6    6  502    0 -0.24042113948E+03  0.84556691173E+02  0.27273504143E+03  0.37327812842E+03  0.00000000000E+00 0. -1.
          1    1    5    5  503    0  0.16999297382E+03 -0.11481416379E+02 -0.24956688451E+03  0.30218051544E+03  0.00000000000E+00 0. -1.
         -2    1    5    5    0  503  0.32723843116E+02  0.59911250236E+01 -0.64635659328E+01  0.33889838771E+02  0.00000000000E+00 0.  1.
         -1    1    6    6    0  502 -0.20774109612E+03  0.46011666925E+02  0.13754232146E+03  0.25336007322E+03  0.00000000000E+00 0.  1.
<mgrwt>
<rscale>  0 0.16594725E+04</rscale>
<asrwt>0</asrwt>
<pdfrwt beam="1">  1        1 0.90126047E-01 0.16594725E+04</pdfrwt>
<pdfrwt beam="2">  1       -1 0.18080194E+00 0.16594725E+04</pdfrwt>
<totfact> 0.69508574E+00</totfact>
</mgrwt>
</event>
<event>
12    1  0.1549527E-007  0.1114693E+04  0.7818608E-02  0.9190988E-01
         -1   -1    0    0    0  501 -0.00000000000E+00  0.00000000000E+00  0.15937177340E+03  0.15937177340E+03  0.00000000000E+00 0.  1.
          1   -1    0    0  501    0  0.00000000000E+00 -0.00000000000E+00 -0.19491220766E+04  0.19491220766E+04  0.00000000000E+00 0. -1.
         23    2    1    2    0    0 -0.13523330080E+03 -0.79334003427E+01 -0.89996363720E+02  0.18496765144E+03  0.88106197893E+02 0.  0.
        254    2    1    2    0    0  0.13523330080E+03  0.79334003427E+01 -0.16997539394E+04  0.19235261985E+04  0.89019020286E+03 0.  0.
        -24    2    4    4    0    0  0.14791677573E+03  0.39128640835E+03 -0.12818232815E+04  0.13506415828E+04  0.78596018529E+02 0.  0.
         24    2    4    4    0    0 -0.12683474929E+02 -0.38335300801E+03 -0.41793065792E+03  0.57288461576E+03  0.80064654220E+02 0.  0.
         13    1    3    3    0    0 -0.13723581510E+02  0.74997145505E+01  0.16445359598E+02  0.22694322200E+02  0.00000000000E+00 0. -1.
        -13    1    3    3    0    0 -0.12150971929E+03 -0.15433114893E+02 -0.10644172332E+03  0.16227332924E+03  0.00000000000E+00 0.  1.
          2    1    6    6  502    0 -0.25844883573E+02 -0.29862730846E+03 -0.36425056932E+03  0.47172524272E+03  0.00000000000E+00 0. -1.
          1    1    5    5  503    0  0.10507589001E+03  0.31047733461E+03 -0.10883831688E+04  0.11366683950E+04  0.00000000000E+00 0. -1.
         -2    1    5    5    0  503  0.42840885726E+02  0.80809073749E+02 -0.19344011271E+03  0.21397318780E+03  0.00000000000E+00 0.  1.
         -1    1    6    6    0  502  0.13161408644E+02 -0.84725699553E+02 -0.53680088593E+02  0.10115937304E+03  0.00000000000E+00 0.  1.
<mgrwt>
<rscale>  0 0.11146929E+04</rscale>
<asrwt>0</asrwt>
<pdfrwt beam="1">  1        1 0.29986493E+00 0.11146929E+04</pdfrwt>
<pdfrwt beam="2">  1       -1 0.24518735E-01 0.11146929E+04</pdfrwt>
<totfact> 0.46627683E+01</totfact>
</mgrwt>
</event>
<event>
12    1  0.1549527E-007  0.2308842E+04  0.7818608E-02  0.8474443E-01
         -1   -1    0    0    0  501 -0.00000000000E+00  0.00000000000E+00  0.14113350163E+04  0.14113350163E+04  0.00000000000E+00 0.  1.
          1   -1    0    0  501    0  0.00000000000E+00 -0.00000000000E+00 -0.94427441943E+03  0.94427441943E+03  0.00000000000E+00 0. -1.
         23    2    1    2    0    0  0.27774913077E+03 -0.50679552557E+03  0.95942068910E+03  0.11236923004E+04  0.90609287399E+02 0.  0.
        254    2    1    2    0    0 -0.27774913077E+03  0.50679552557E+03 -0.49236009219E+03  0.12319171354E+04  0.97016240064E+03 0.  0.
        -24    2    4    4    0    0  0.51200230982E+02 -0.12559500405E+03  0.18558746426E+03  0.24485716817E+03  0.84360874941E+02 0.  0.
         24    2    4    4    0    0 -0.32894936175E+03  0.63239052961E+03 -0.67794755645E+03  0.98705996718E+03  0.80926046244E+02 0.  0.
         13    1    3    3    0    0  0.26888794346E+03 -0.50876557957E+03  0.93831269623E+03  0.11007151571E+04  0.00000000000E+00 0.  1.
        -13    1    3    3    0    0  0.88611873128E+01  0.19700540057E+01  0.21107992877E+02  0.22977143353E+02  0.00000000000E+00 0. -1.
          4    1    6    6  502    0 -0.33372101088E+03  0.62191571054E+03 -0.66906282498E+03  0.97251937147E+03  0.00000000000E+00 0. -1.
          3    1    5    5  503    0  0.99891358066E+00 -0.10039640927E+03  0.14124442043E+03  0.17329288250E+03  0.00000000000E+00 0. -1.
         -4    1    5    5    0  503  0.50201317401E+02 -0.25198594773E+02  0.44343043831E+02  0.71564285671E+02  0.00000000000E+00 0.  1.
         -3    1    6    6    0  502  0.47716491310E+01  0.10474819073E+02 -0.88847314703E+01  0.14540595701E+02  0.00000000000E+00 0.  1.
<mgrwt>
<rscale>  0 0.23088417E+04</rscale>
<asrwt>0</asrwt>
<pdfrwt beam="1">  1        1 0.14527299E+00 0.23088417E+04</pdfrwt>
<pdfrwt beam="2">  1       -1 0.21712846E+00 0.23088417E+04</pdfrwt>
<totfact> 0.17405189E+00</totfact>
</mgrwt>
</event>
<event>
12    1  0.1549527E-007  0.3325313E+04  0.7818608E-02  0.8156484E-01
          1   -1    0    0  501    0  0.00000000000E+00  0.00000000000E+00  0.31316100837E+04  0.31316100837E+04  0.00000000000E+00 0. -1.
         -1   -1    0    0    0  501 -0.00000000000E+00 -0.00000000000E+00 -0.88274914150E+03  0.88274914150E+03  0.00000000000E+00 0.  1.
         23    2    1    2    0    0 -0.10432855839E+04 -0.29613789801E+03  0.23608033531E+04  0.25994676022E+04  0.87731856657E+02 0.  0.
        254    2    1    2    0    0  0.10432855839E+04  0.29613789801E+03 -0.11194241090E+03  0.14148916230E+04  0.90180083011E+03 0.  0.
        -24    2    4    4    0    0 -0.73371502774E+02 -0.44774116416E+02  0.17448455033E+03  0.20995946987E+03  0.79057079138E+02 0.  0.
         24    2    4    4    0    0  0.11166570867E+04  0.34091201442E+03 -0.28642696124E+03  0.12049321531E+04  0.81713148591E+02 0.  0.
         13    1    3    3    0    0 -0.22873315776E+03 -0.72834188149E+02  0.61178114468E+03  0.65719087441E+03  0.00000000000E+00 0. -1.
        -13    1    3    3    0    0 -0.81455242617E+03 -0.22330370986E+03  0.17490222084E+04  0.19422767278E+04  0.00000000000E+00 0.  1.
          2    1    6    6  502    0  0.18757508781E+03  0.32283608039E+02 -0.27867850032E+02  0.19236231954E+03  0.00000000000E+00 0. -1.
          1    1    5    5  503    0 -0.34391830283E+02  0.20385945592E+02  0.72779460791E+02  0.83037549825E+02  0.00000000000E+00 0. -1.
         -2    1    5    5    0  503 -0.38979672491E+02 -0.65160062008E+02  0.10170508954E+03  0.12692192004E+03  0.00000000000E+00 0.  1.
         -1    1    6    6    0  502  0.92908199889E+03  0.30862840639E+03 -0.25855911120E+03  0.10125698336E+04  0.00000000000E+00 0.  1.
<mgrwt>
<rscale>  0 0.33253127E+04</rscale>
<asrwt>0</asrwt>
<pdfrwt beam="1">  1        1 0.48178616E+00 0.33253127E+04</pdfrwt>
<pdfrwt beam="2">  1       -1 0.13580756E+00 0.33253127E+04</pdfrwt>
<totfact> 0.17938814E-01</totfact>
</mgrwt>
</event>
<event>
12    1  0.1549527E-007  0.1506234E+04  0.7818608E-02  0.8880318E-01
          2   -1    0    0  501    0  0.00000000000E+00  0.00000000000E+00  0.10778369171E+04  0.10778369171E+04  0.00000000000E+00 0. -1.
         -2   -1    0    0    0  501 -0.00000000000E+00 -0.00000000000E+00 -0.52622565198E+03  0.52622565198E+03  0.00000000000E+00 0.  1.
         23    2    1    2    0    0  0.25325861760E+03 -0.35166512218E+03 -0.40958406724E+02  0.44444432061E+03  0.89693241098E+02 0.  0.
        254    2    1    2    0    0 -0.25325861760E+03  0.35166512218E+03  0.59256967184E+03  0.11596182485E+04  0.89764546489E+03 0.  0.
        -24    2    4    4    0    0 -0.28332298099E+03 -0.96392130025E+02 -0.10432678218E+03  0.32684396858E+03  0.79872072890E+02 0.  0.
         24    2    4    4    0    0  0.30064363391E+02  0.44805725220E+03  0.69689645402E+03  0.83277427988E+03  0.78671255234E+02 0.  0.
         11    1    3    3    0    0  0.11158207909E+03 -0.13326321528E+03 -0.58845937185E+02  0.18350065189E+03  0.00000000000E+00 0. -1.
        -11    1    3    3    0    0  0.14167653851E+03 -0.21840190689E+03  0.17887530461E+02  0.26094366872E+03  0.00000000000E+00 0.  1.
          4    1    6    6  502    0 -0.17134749130E+02  0.28365402679E+03  0.41262242852E+03  0.50100945605E+03  0.00000000000E+00 0. -1.
          3    1    5    5  503    0  0.37229469543E+01  0.90127357805E+00  0.34600819227E+01  0.51618596454E+01  0.00000000000E+00 0. -1.
         -4    1    5    5    0  503 -0.28704592794E+03 -0.97293403603E+02 -0.10778686411E+03  0.32168210893E+03  0.00000000000E+00 0.  1.
         -3    1    6    6    0  502  0.47199112522E+02  0.16440322541E+03  0.28427402551E+03  0.33176482382E+03  0.00000000000E+00 0.  1.
<mgrwt>
<rscale>  0 0.15062343E+04</rscale>
<asrwt>0</asrwt>
<pdfrwt beam="1">  1        2 0.16582106E+00 0.15062343E+04</pdfrwt>
<pdfrwt beam="2">  1       -2 0.80957793E-01 0.15062343E+04</pdfrwt>
<totfact> 0.29230383E+01</totfact>
</mgrwt>
</event>
<event>
12    1  0.1549527E-007  0.1397089E+04  0.7818608E-02  0.8955929E-01
          2   -1    0    0  501    0  0.00000000000E+00  0.00000000000E+00  0.55913004176E+03  0.55913004176E+03  0.00000000000E+00 0. -1.
         -2   -1    0    0    0  501 -0.00000000000E+00 -0.00000000000E+00 -0.87272057102E+03  0.87272057102E+03  0.00000000000E+00 0.  1.
         23    2    1    2    0    0  0.22053427096E+03  0.24776156333E+03  0.13426534094E+03  0.36881188957E+03  0.89296535072E+02 0.  0.
        254    2    1    2    0    0 -0.22053427096E+03 -0.24776156333E+03 -0.44785587019E+03  0.10630387232E+04  0.90523769787E+03 0.  0.
        -24    2    4    4    0    0 -0.25743380569E+03 -0.74056174263E+02  0.22753629167E+03  0.35993796367E+03  0.77627909924E+02 0.  0.
         24    2    4    4    0    0  0.36899534730E+02 -0.17370538907E+03 -0.67539216186E+03  0.70310075955E+03  0.81614753047E+02 0.  0.
         13    1    3    3    0    0  0.15203103857E+03  0.19644106819E+03  0.13601192468E+03  0.28319917658E+03  0.00000000000E+00 0. -1.
        -13    1    3    3    0    0  0.68503232398E+02  0.51320495144E+02 -0.17465837468E+01  0.85612712991E+02  0.00000000000E+00 0.  1.
          2    1    6    6  502    0  0.16169939694E+02 -0.77268713084E+02 -0.16071442940E+03  0.17905599345E+03  0.00000000000E+00 0. -1.
          3    1    5    5  503    0 -0.34662545269E+02 -0.35260813492E+02  0.21114391487E+02  0.53764621644E+02  0.00000000000E+00 0. -1.
         -4    1    5    5    0  503 -0.22277126042E+03 -0.38795360771E+02  0.20642190019E+03  0.30617334202E+03  0.00000000000E+00 0.  1.
         -1    1    6    6    0  502  0.20729595036E+02 -0.96436675984E+02 -0.51467773246E+03  0.52404476610E+03  0.00000000000E+00 0.  1.
<mgrwt>
<rscale>  0 0.13970888E+04</rscale>
<asrwt>0</asrwt>
<pdfrwt beam="1">  1        2 0.86020007E-01 0.13970888E+04</pdfrwt>
<pdfrwt beam="2">  1       -2 0.13426470E+00 0.13970888E+04</pdfrwt>
<totfact> 0.21013306E+01</totfact>
</mgrwt>
</event>
<event>
12    1  0.1549527E-007  0.2201137E+04  0.7818608E-02  0.8517955E-01
         -2   -1    0    0    0  501 -0.00000000000E+00  0.00000000000E+00  0.60186314542E+03  0.60186314542E+03  0.00000000000E+00 0.  1.
          2   -1    0    0  501    0  0.00000000000E+00 -0.00000000000E+00 -0.20125028551E+04  0.20125028551E+04  0.00000000000E+00 0. -1.
         23    2    1    2    0    0  0.19829179615E+03  0.88446251448E+02 -0.15908588158E+04  0.16086160203E+04  0.98343038421E+02 0.  0.
        254    2    1    2    0    0 -0.19829179615E+03 -0.88446251448E+02  0.18021910616E+03  0.10057499802E+04  0.96535574818E+03 0.  0.
        -24    2    4    4    0    0  0.21517079986E+03 -0.12243907516E+03  0.43869711070E+03  0.51015410826E+03  0.80698568787E+02 0.  0.
         24    2    4    4    0    0 -0.41346259601E+03  0.33992823714E+02 -0.25847800453E+03  0.49559587189E+03  0.81838615868E+02 0.  0.
         11    1    3    3    0    0  0.19342472634E+03  0.72693800581E+02 -0.15600307230E+04  0.15736560520E+04  0.00000000000E+00 0. -1.
        -11    1    3    3    0    0  0.48670698028E+01  0.15752450867E+02 -0.30828092805E+02  0.34959968289E+02  0.00000000000E+00 0.  1.
          2    1    6    6  502    0 -0.74096497447E+02 -0.15095708045E+02 -0.75814593475E+02  0.10707952147E+03  0.00000000000E+00 0. -1.
          3    1    5    5  503    0  0.10558913057E+03 -0.16669758627E+02  0.20527586002E+03  0.23144140523E+03  0.00000000000E+00 0. -1.
         -4    1    5    5    0  503  0.10958166929E+03 -0.10576931653E+03  0.23342125068E+03  0.27871270303E+03  0.00000000000E+00 0.  1.
         -1    1    6    6    0  502 -0.33936609856E+03  0.49088531759E+02 -0.18266341106E+03  0.38851635042E+03  0.00000000000E+00 0.  1.
<mgrwt>
<rscale>  0 0.22011373E+04</rscale>
<asrwt>0</asrwt>
<pdfrwt beam="1">  1        2 0.30961582E+00 0.22011373E+04</pdfrwt>
<pdfrwt beam="2">  1       -2 0.92594330E-01 0.22011373E+04</pdfrwt>
<totfact> 0.59453495E+00</totfact>
</mgrwt>
</event>
<event>
12    1  0.1696237E-007  0.2851639E+04  0.7818608E-02  0.8287414E-01
         -2   -1    0    0    0  501 -0.00000000000E+00  0.00000000000E+00  0.11143488343E+04  0.11143488343E+04  0.00000000000E+00 0.  1.
          2   -1    0    0  501    0  0.00000000000E+00 -0.00000000000E+00 -0.18243484295E+04  0.18243484295E+04  0.00000000000E+00 0. -1.
         23    2    1    2    0    0  0.12024880568E+04 -0.41287637566E+03 -0.14375684291E+03  0.12826898159E+04  0.90458308140E+02 0.  0.
        254    2    1    2    0    0 -0.12024880568E+04  0.41287637566E+03 -0.56624275235E+03  0.16560074479E+04  0.89737694677E+03 0.  0.
        -24    2    4    4    0    0 -0.23130260265E+03 -0.12145914257E+03  0.17050743864E+03  0.32262516383E+03  0.82225254005E+02 0.  0.
         24    2    4    4    0    0 -0.97118545415E+03  0.53433551824E+03 -0.73675019098E+03  0.13333822841E+04  0.79948978573E+02 0.  0.
         13    1    3    3    0    0  0.23790306974E+02 -0.13345195670E+02 -0.15891267097E+02  0.31569056421E+02  0.00000000000E+00 0.  1.
        -13    1    3    3    0    0  0.11786977498E+04 -0.39953117999E+03 -0.12786557582E+03  0.12511207594E+04  0.00000000000E+00 0. -1.
          4    1    6    6  502    0 -0.76549828557E+03  0.39366750985E+03 -0.54317324315E+03  0.10178403144E+04  0.00000000000E+00 0. -1.
          3    1    5    5  503    0 -0.16751374316E+03 -0.12491073344E+03  0.14219051680E+03  0.25274827110E+03  0.00000000000E+00 0. -1.
         -4    1    5    5    0  503 -0.63788859496E+02  0.34515908668E+01  0.28316921833E+02  0.69876892728E+02  0.00000000000E+00 0.  1.
         -3    1    6    6    0  502 -0.20568716858E+03  0.14066800839E+03 -0.19357694784E+03  0.31554196969E+03  0.00000000000E+00 0.  1.
<mgrwt>
<rscale>  0 0.28516385E+04</rscale>
<asrwt>0</asrwt>
<pdfrwt beam="1">  1        2 0.28066899E+00 0.28516385E+04</pdfrwt>
<pdfrwt beam="2">  1       -2 0.17143828E+00 0.28516385E+04</pdfrwt>
<totfact> 0.15090034E+00</totfact>
</mgrwt>
</event>
<event>
12    1  0.1549527E-007  0.2767783E+04  0.7818608E-02  0.8313341E-01
          2   -1    0    0  501    0  0.00000000000E+00  0.00000000000E+00  0.10700094290E+04  0.10700094290E+04  0.00000000000E+00 0. -1.
         -2   -1    0    0    0  501 -0.00000000000E+00 -0.00000000000E+00 -0.17898490317E+04  0.17898490317E+04  0.00000000000E+00 0.  1.
         23    2    1    2    0    0  0.93268747936E+03  0.66508120605E+03  0.15393087768E+03  0.11594553597E+04  0.91668267090E+02 0.  0.
        254    2    1    2    0    0 -0.93268747936E+03 -0.66508120605E+03 -0.87377048037E+03  0.17004031010E+04  0.90313725904E+03 0.  0.
        -24    2    4    4    0    0 -0.21232097806E+03 -0.74565799954E+02  0.17441902355E+03  0.29580650739E+03  0.80244861479E+02 0.  0.
         24    2    4    4    0    0 -0.72036650131E+03 -0.59051540610E+03 -0.10481895039E+04  0.14045965936E+04  0.80956862251E+02 0.  0.
         13    1    3    3    0    0  0.65580531602E+03  0.45668561339E+03  0.65644984892E+02  0.80184264419E+03  0.00000000000E+00 0. -1.
        -13    1    3    3    0    0  0.27688216334E+03  0.20839559266E+03  0.88285892786E+02  0.35761271549E+03  0.00000000000E+00 0.  1.
          4    1    6    6  502    0 -0.44473506487E+03 -0.38727966548E+03 -0.60991302243E+03  0.84839183880E+03  0.00000000000E+00 0. -1.
          1    1    5    5  503    0 -0.16457362174E+03 -0.19083215028E+02  0.11854161171E+03  0.20371735266E+03  0.00000000000E+00 0. -1.
         -2    1    5    5    0  503 -0.47747356319E+02 -0.55482584926E+02  0.55877411844E+02  0.92089154735E+02  0.00000000000E+00 0.  1.
         -3    1    6    6    0  502 -0.27563143644E+03 -0.20323574062E+03 -0.43827648149E+03  0.55620475479E+03  0.00000000000E+00 0.  1.
<mgrwt>
<rscale>  0 0.27677828E+04</rscale>
<asrwt>0</asrwt>
<pdfrwt beam="1">  1        2 0.16461684E+00 0.27677828E+04</pdfrwt>
<pdfrwt beam="2">  1       -2 0.27536139E+00 0.27677828E+04</pdfrwt>
<totfact> 0.89177918E-01</totfact>
</mgrwt>
</event>
<event>
12    1  0.1549527E-007  0.1849126E+04  0.7818608E-02  0.8680602E-01
         -2   -1    0    0    0  501 -0.00000000000E+00  0.00000000000E+00  0.69327258088E+03  0.69327258088E+03  0.00000000000E+00 0.  1.
          2   -1    0    0  501    0  0.00000000000E+00 -0.00000000000E+00 -0.12330166293E+04  0.12330166293E+04  0.00000000000E+00 0. -1.
         23    2    1    2    0    0 -0.41903425835E+03  0.58264470542E+02 -0.79103927714E+03  0.90502595726E+03  0.11976805557E+03 0.  0.
        254    2    1    2    0    0  0.41903425835E+03 -0.58264470542E+02  0.25129522869E+03  0.10212632530E+04  0.89489936957E+03 0.  0.
        -24    2    4    4    0    0 -0.11682817350E+03  0.21149894322E+03 -0.14968378955E+03  0.29514684106E+03  0.79534871761E+02 0.  0.
         24    2    4    4    0    0  0.53586243185E+03 -0.26976341376E+03  0.40097901825E+03  0.72611641189E+03  0.80870422732E+02 0.  0.
         13    1    3    3    0    0 -0.39351670983E+03  0.21211288551E+02 -0.72364217489E+03  0.82399230394E+03  0.00000000000E+00 0. -1.
        -13    1    3    3    0    0 -0.25517548524E+02  0.37053181991E+02 -0.67397102246E+02  0.81033653315E+02  0.00000000000E+00 0.  1.
          2    1    6    6  502    0  0.37142817290E+03 -0.17018237733E+03  0.31315155847E+03  0.51476677024E+03  0.00000000000E+00 0. -1.
          3    1    5    5  503    0 -0.50812549821E+02  0.47491585072E+02 -0.77638676355E+02  0.10423593401E+03  0.00000000000E+00 0. -1.
         -4    1    5    5    0  503 -0.66015623676E+02  0.16400735815E+03 -0.72045113199E+02  0.19091090705E+03  0.00000000000E+00 0.  1.
         -1    1    6    6    0  502  0.16443425895E+03 -0.99581036435E+02  0.87827459782E+02  0.21134964165E+03  0.00000000000E+00 0.  1.
<mgrwt>
<rscale>  0 0.18491259E+04</rscale>
<asrwt>0</asrwt>
<pdfrwt beam="1">  1        2 0.18969487E+00 0.18491259E+04</pdfrwt>
<pdfrwt beam="2">  1       -2 0.10665732E+00 0.18491259E+04</pdfrwt>
<totfact> 0.12052363E+01</totfact>
</mgrwt>
</event>
<event>
12    1  0.1549527E-007  0.2995466E+04  0.7818608E-02  0.8245027E-01
          2   -1    0    0  501    0  0.00000000000E+00  0.00000000000E+00  0.86946374030E+03  0.86946374030E+03  0.00000000000E+00 0. -1.
         -2   -1    0    0    0  501 -0.00000000000E+00 -0.00000000000E+00 -0.25799854667E+04  0.25799854667E+04  0.00000000000E+00 0.  1.
         23    2    1    2    0    0 -0.10716945018E+02  0.96499093717E+03 -0.18884380810E+04  0.21225728773E+04  0.88288572036E+02 0.  0.
        254    2    1    2    0    0  0.10716945018E+02 -0.96499093717E+03  0.17791635458E+03  0.13268763297E+04  0.89309809282E+03 0.  0.
        -24    2    4    4    0    0  0.10852672772E+03 -0.10932224285E+04  0.24909074996E+03  0.11295226243E+04  0.82836153920E+02 0.  0.
         24    2    4    4    0    0 -0.97809782703E+02  0.12823149131E+03 -0.71174395377E+02  0.19735370538E+03  0.88727794492E+02 0.  0.
         11    1    3    3    0    0  0.36555924495E+01  0.69925576993E+03 -0.14474302945E+04  0.16074907317E+04  0.00000000000E+00 0.  1.
        -11    1    3    3    0    0 -0.14372537468E+02  0.26573516724E+03 -0.44100778651E+03  0.51508214559E+03  0.00000000000E+00 0. -1.
          4    1    6    6  502    0 -0.72440244638E+02  0.23315455302E+02 -0.31268420977E+02  0.82273407912E+02  0.00000000000E+00 0. -1.
          3    1    5    5  503    0  0.45136378469E+02 -0.15777434568E+03  0.34841391887E+02  0.16776161481E+03  0.00000000000E+00 0. -1.
         -4    1    5    5    0  503  0.63390349253E+02 -0.93544808280E+03  0.21424935807E+03  0.96176100952E+03  0.00000000000E+00 0.  1.
         -3    1    6    6    0  502 -0.25369538066E+02  0.10491603601E+03 -0.39905974400E+02  0.11508029747E+03  0.00000000000E+00 0.  1.
<mgrwt>
<rscale>  0 0.29954658E+04</rscale>
<asrwt>0</asrwt>
<pdfrwt beam="1">  1        2 0.13376365E+00 0.29954658E+04</pdfrwt>
<pdfrwt beam="2">  1       -2 0.39692084E+00 0.29954658E+04</pdfrwt>
<totfact> 0.20468944E-01</totfact>
</mgrwt>
</event>
<event>
12    1  0.1549527E-007  0.1761430E+04  0.7818608E-02  0.8727084E-01
          1   -1    0    0  501    0  0.00000000000E+00  0.00000000000E+00  0.61432665621E+03  0.61432665621E+03  0.00000000000E+00 0. -1.
         -1   -1    0    0    0  501 -0.00000000000E+00 -0.00000000000E+00 -0.12626161331E+04  0.12626161331E+04  0.00000000000E+00 0.  1.
         23    2    1    2    0    0 -0.13112124198E+02  0.60600915761E+03 -0.48773107102E+03  0.78324923115E+03  0.90436350751E+02 0.  0.
        254    2    1    2    0    0  0.13112124198E+02 -0.60600915761E+03 -0.16055840591E+03  0.10936935582E+04  0.89608457784E+03 0.  0.
        -24    2    4    4    0    0 -0.83856454161E+02 -0.44904656694E+03  0.32612744610E+03  0.56696527393E+03  0.80098605225E+02 0.  0.
         24    2    4    4    0    0  0.96968578359E+02 -0.15696259068E+03 -0.48668585202E+03  0.52672828428E+03  0.80866599067E+02 0.  0.
         11    1    3    3    0    0 -0.38519875750E+02  0.20946981292E+03 -0.20467690223E+03  0.29538791048E+03  0.00000000000E+00 0. -1.
        -11    1    3    3    0    0  0.25407751552E+02  0.39653934469E+03 -0.28305416879E+03  0.48786132066E+03  0.00000000000E+00 0.  1.
          2    1    6    6  502    0  0.60031779326E+02 -0.15248359576E+03 -0.38382486632E+03  0.41734468908E+03  0.00000000000E+00 0. -1.
          1    1    5    5  503    0 -0.96051370552E+02 -0.40486656043E+03  0.30793244527E+03  0.51765354089E+03  0.00000000000E+00 0. -1.
         -2    1    5    5    0  503  0.12194916391E+02 -0.44180006503E+02  0.18195000829E+02  0.49311733042E+02  0.00000000000E+00 0.  1.
         -1    1    6    6    0  502  0.36936799033E+02 -0.44789949191E+01 -0.10286098570E+03  0.10938359519E+03  0.00000000000E+00 0.  1.
<mgrwt>
<rscale>  0 0.17614298E+04</rscale>
<asrwt>0</asrwt>
<pdfrwt beam="1">  1        1 0.94511794E-01 0.17614298E+04</pdfrwt>
<pdfrwt beam="2">  1       -1 0.19424863E+00 0.17614298E+04</pdfrwt>
<totfact> 0.51684818E+00</totfact>
</mgrwt>
</event>
<event>
12    1  0.1549527E-007  0.1607691E+04  0.7818608E-02  0.8815837E-01
          1   -1    0    0  501    0  0.00000000000E+00  0.00000000000E+00  0.22564167934E+04  0.22564167934E+04  0.00000000000E+00 0. -1.
         -1   -1    0    0    0  501 -0.00000000000E+00 -0.00000000000E+00 -0.28636894632E+03  0.28636894632E+03  0.00000000000E+00 0.  1.
         23    2    1    2    0    0  0.22115179185E+03  0.38957682173E+03  0.11855093660E+04  0.12706249393E+04  0.91526303724E+02 0.  0.
        254    2    1    2    0    0 -0.22115179185E+03 -0.38957682173E+03  0.78453848107E+03  0.12721608005E+04  0.89566414404E+03 0.  0.
        -24    2    4    4    0    0 -0.53568776693E+03 -0.73113309460E+02  0.46038917828E+03  0.71477836484E+03  0.81504452057E+02 0.  0.
         24    2    4    4    0    0  0.31453597508E+03 -0.31646351227E+03  0.32414930279E+03  0.55738243564E+03  0.80748838024E+02 0.  0.
         11    1    3    3    0    0  0.60659181811E+02  0.14205639466E+03  0.52457807932E+03  0.54684706903E+03  0.00000000000E+00 0.  1.
        -11    1    3    3    0    0  0.16049261004E+03  0.24752042707E+03  0.66093128670E+03  0.72377787023E+03  0.00000000000E+00 0. -1.
          4    1    6    6  502    0  0.87932784632E+02 -0.14371229831E+03  0.11846621390E+03  0.20596029504E+03  0.00000000000E+00 0. -1.
          3    1    5    5  503    0 -0.10606425629E+03  0.16804517207E+02  0.10216793379E+03  0.14822383397E+03  0.00000000000E+00 0. -1.
         -2    1    5    5    0  503 -0.42962351064E+03 -0.89917826667E+02  0.35822124449E+03  0.56655453087E+03  0.00000000000E+00 0.  1.
         -3    1    6    6    0  502  0.22660319045E+03 -0.17275121396E+03  0.20568308889E+03  0.35142214060E+03  0.00000000000E+00 0.  1.
<mgrwt>
<rscale>  0 0.16076911E+04</rscale>
<asrwt>0</asrwt>
<pdfrwt beam="1">  1        1 0.34714103E+00 0.16076911E+04</pdfrwt>
<pdfrwt beam="2">  1       -1 0.44056762E-01 0.16076911E+04</pdfrwt>
<totfact> 0.97503088E+00</totfact>
</mgrwt>
</event>
<event>
12    1  0.1549527E-007  0.1318512E+04  0.7818608E-02  0.9015012E-01
         -1   -1    0    0    0  501 -0.00000000000E+00  0.00000000000E+00  0.72175689953E+03  0.72175689953E+03  0.00000000000E+00 0.  1.
          1   -1    0    0  501    0  0.00000000000E+00 -0.00000000000E+00 -0.60216775920E+03  0.60216775920E+03  0.00000000000E+00 0. -1.
         23    2    1    2    0    0 -0.63758503527E+02 -0.14532724978E+03 -0.27300175344E+03  0.32868280318E+03  0.91199075783E+02 0.  0.
        254    2    1    2    0    0  0.63758503527E+02  0.14532724978E+03  0.39259089377E+03  0.99524185555E+03  0.90066285860E+03 0.  0.
        -24    2    4    4    0    0  0.25290822802E+03 -0.46821423565E+02  0.59210839201E+03  0.65037934307E+03  0.79032426839E+02 0.  0.
         24    2    4    4    0    0 -0.18914972450E+03  0.19214867335E+03 -0.19951749824E+03  0.34486251248E+03  0.80151041589E+02 0.  0.
         11    1    3    3    0    0 -0.40004561402E+01  0.37027419232E+01 -0.68321788235E+02  0.68538899135E+02  0.00000000000E+00 0.  1.
        -11    1    3    3    0    0 -0.59758047387E+02 -0.14902999171E+03 -0.20467996521E+03  0.26014390405E+03  0.00000000000E+00 0. -1.
          2    1    6    6  502    0 -0.41578670757E+01  0.25158068877E+02  0.19358793479E+00  0.25500073814E+02  0.00000000000E+00 0. -1.
          3    1    5    5  503    0  0.11875278432E+03 -0.59996768813E+02  0.32513029513E+03  0.35129979343E+03  0.00000000000E+00 0. -1.
         -4    1    5    5    0  503  0.13415544370E+03  0.13175345247E+02  0.26697809687E+03  0.29907954963E+03  0.00000000000E+00 0.  1.
         -1    1    6    6    0  502 -0.18499185742E+03  0.16699060447E+03 -0.19971108617E+03  0.31936243867E+03  0.00000000000E+00 0.  1.
<mgrwt>
<rscale>  0 0.13185124E+04</rscale>
<asrwt>0</asrwt>
<pdfrwt beam="1">  1        1 0.92641193E-01 0.13185124E+04</pdfrwt>
<pdfrwt beam="2">  1       -1 0.11103952E+00 0.13185124E+04</pdfrwt>
<totfact> 0.24960488E+01</totfact>
</mgrwt>
</event>
<event>
12    1  0.1549527E-007  0.1838064E+04  0.7818608E-02  0.8686316E-01
          2   -1    0    0  501    0  0.00000000000E+00  0.00000000000E+00  0.18218583000E+04  0.18218583000E+04  0.00000000000E+00 0. -1.
         -2   -1    0    0    0  501 -0.00000000000E+00 -0.00000000000E+00 -0.46360328413E+03  0.46360328413E+03  0.00000000000E+00 0.  1.
         23    2    1    2    0    0  0.90628573259E+02 -0.51822708007E+02  0.13562541325E+04  0.13640912266E+04  0.10208070902E+03 0.  0.
        254    2    1    2    0    0 -0.90628573259E+02  0.51822708007E+02  0.20008833219E+01  0.92137035751E+03  0.91543443283E+03 0.  0.
        -24    2    4    4    0    0  0.40425284840E+02 -0.20554978227E+03 -0.37678124919E+03  0.43833999685E+03  0.79327967668E+02 0.  0.
         24    2    4    4    0    0 -0.13105385810E+03  0.25737249028E+03  0.37878213251E+03  0.48303036066E+03  0.80166781955E+02 0.  0.
         11    1    3    3    0    0  0.41196849909E+02  0.28726058997E+02  0.38832856601E+03  0.39156282010E+03  0.00000000000E+00 0.  1.
        -11    1    3    3    0    0  0.49431723350E+02 -0.80548767004E+02  0.96792556649E+03  0.97252840647E+03  0.00000000000E+00 0. -1.
          4    1    6    6  502    0 -0.10198208048E+03  0.14291511773E+03  0.27245317536E+03  0.32412313768E+03  0.00000000000E+00 0. -1.
          1    1    5    5  503    0  0.32683409419E+02 -0.94346419536E+02 -0.25177462601E+03  0.27085035431E+03  0.00000000000E+00 0. -1.
         -2    1    5    5    0  503  0.77418754210E+01 -0.11120336274E+03 -0.12500662318E+03  0.16748964254E+03  0.00000000000E+00 0.  1.
         -3    1    6    6    0  502 -0.29071777623E+02  0.11445737255E+03  0.10632895715E+03  0.15890722298E+03  0.00000000000E+00 0.  1.
<mgrwt>
<rscale>  0 0.18380636E+04</rscale>
<asrwt>0</asrwt>
<pdfrwt beam="1">  1        2 0.28028589E+00 0.18380636E+04</pdfrwt>
<pdfrwt beam="2">  1       -2 0.71323583E-01 0.18380636E+04</pdfrwt>
<totfact> 0.14089235E+01</totfact>
</mgrwt>
</event>
<event>
12    1  0.1549527E-007  0.1773625E+04  0.7818608E-02  0.8720452E-01
          1   -1    0    0  501    0  0.00000000000E+00  0.00000000000E+00  0.25749929177E+04  0.25749929177E+04  0.00000000000E+00 0. -1.
         -1   -1    0    0    0  501 -0.00000000000E+00 -0.00000000000E+00 -0.30541318725E+03  0.30541318725E+03  0.00000000000E+00 0.  1.
         23    2    1    2    0    0 -0.12744515779E+03 -0.85517629887E+02  0.18682204413E+04  0.18767669474E+04  0.91929452943E+02 0.  0.
        254    2    1    2    0    0  0.12744515779E+03  0.85517629887E+02  0.40135928920E+03  0.10036391576E+04  0.90699875763E+03 0.  0.
        -24    2    4    4    0    0  0.42756439331E+03 -0.17928029065E+03  0.36191492217E+03  0.59362524722E+03  0.80347932208E+02 0.  0.
         24    2    4    4    0    0 -0.30011923552E+03  0.26479792053E+03  0.39444367023E+02  0.41001391036E+03  0.79787557621E+02 0.  0.
         11    1    3    3    0    0  0.13101599602E+02  0.13767395784E+01  0.10571805208E+03  0.10653569289E+03  0.00000000000E+00 0.  1.
        -11    1    3    3    0    0 -0.14054675739E+03 -0.86894369465E+02  0.17625023892E+04  0.17702312545E+04  0.00000000000E+00 0. -1.
          2    1    6    6  502    0 -0.68015906506E+02  0.25857402408E+02 -0.92851863296E+01  0.73355187154E+02  0.00000000000E+00 0. -1.
          1    1    5    5  503    0  0.22276762365E+03 -0.50336999319E+02  0.16827189902E+03  0.28368055917E+03  0.00000000000E+00 0. -1.
         -2    1    5    5    0  503  0.20479676965E+03 -0.12894329133E+03  0.19364302315E+03  0.30994468806E+03  0.00000000000E+00 0.  1.
         -1    1    6    6    0  502 -0.23210332901E+03  0.23894051812E+03  0.48729553353E+02  0.33665872321E+03  0.00000000000E+00 0.  1.
<mgrwt>
<rscale>  0 0.17736254E+04</rscale>
<asrwt>0</asrwt>
<pdfrwt beam="1">  1        1 0.39615274E+00 0.17736254E+04</pdfrwt>
<pdfrwt beam="2">  1       -1 0.46986646E-01 0.17736254E+04</pdfrwt>
<totfact> 0.51377396E+00</totfact>
</mgrwt>
</event>
<event>
12    1  0.1549527E-007  0.1983533E+04  0.7818608E-02  0.8614359E-01
          1   -1    0    0  501    0  0.00000000000E+00  0.00000000000E+00  0.86612140188E+03  0.86612140188E+03  0.00000000000E+00 0. -1.
         -1   -1    0    0    0  501 -0.00000000000E+00 -0.00000000000E+00 -0.11356381645E+04  0.11356381645E+04  0.00000000000E+00 0.  1.
         23    2    1    2    0    0  0.68729431455E+03  0.16852281818E+03  0.23389505987E+03  0.75072446675E+03  0.90038385582E+02 0.  0.
        254    2    1    2    0    0 -0.68729431455E+03 -0.16852281818E+03 -0.50341182253E+03  0.12510350997E+04  0.90049538727E+03 0.  0.
        -24    2    4    4    0    0  0.13981561545E+03 -0.25739101543E+03 -0.68516464295E+02  0.30879007915E+03  0.69701262191E+02 0.  0.
         24    2    4    4    0    0 -0.82710993000E+03  0.88868197250E+02 -0.43489535823E+03  0.94224502053E+03  0.81751533943E+02 0.  0.
         11    1    3    3    0    0  0.10278628902E+03  0.20174178045E+02  0.23909213406E+01  0.10477468766E+03  0.00000000000E+00 0.  1.
        -11    1    3    3    0    0  0.58450802554E+03  0.14834864014E+03  0.23150413853E+03  0.64594977909E+03  0.00000000000E+00 0. -1.
          2    1    6    6  502    0 -0.78402846864E+03  0.66072882623E+02 -0.41558499649E+03  0.88981860778E+03  0.00000000000E+00 0. -1.
          3    1    5    5  503    0  0.10272944894E+03 -0.20894050107E+03 -0.80989400263E+02  0.24651319563E+03  0.00000000000E+00 0. -1.
         -4    1    5    5    0  503  0.37086166510E+02 -0.48450514364E+02  0.12472935968E+02  0.62276883514E+02  0.00000000000E+00 0.  1.
         -1    1    6    6    0  502 -0.43081461364E+02  0.22795314627E+02 -0.19310361745E+02  0.52426412741E+02  0.00000000000E+00 0.  1.
<mgrwt>
<rscale>  0 0.19835327E+04</rscale>
<asrwt>0</asrwt>
<pdfrwt beam="1">  1        1 0.13324945E+00 0.19835327E+04</pdfrwt>
<pdfrwt beam="2">  1       -1 0.17471356E+00 0.19835327E+04</pdfrwt>
<totfact> 0.40984539E+00</totfact>
</mgrwt>
</event>
<event>
12    1  0.1549527E-007  0.1519379E+04  0.7818608E-02  0.8871667E-01
          1   -1    0    0  501    0  0.00000000000E+00  0.00000000000E+00  0.10258001345E+04  0.10258001345E+04  0.00000000000E+00 0. -1.
         -1   -1    0    0    0  501 -0.00000000000E+00 -0.00000000000E+00 -0.56261297734E+03  0.56261297734E+03  0.00000000000E+00 0.  1.
         23    2    1    2    0    0  0.15911036851E+03 -0.18269328380E+03 -0.28988170292E+03  0.38678733832E+03  0.82946356648E+02 0.  0.
        254    2    1    2    0    0 -0.15911036851E+03  0.18269328380E+03  0.75306886005E+03  0.12016257735E+04  0.90448816810E+03 0.  0.
        -24    2    4    4    0    0 -0.38041725005E+03 -0.56992507256E+02  0.18071959551E+02  0.39319263711E+03  0.79425588699E+02 0.  0.
         24    2    4    4    0    0  0.22130688154E+03  0.23968579106E+03  0.73499690049E+03  0.80843313638E+03  0.83172579617E+02 0.  0.
         13    1    3    3    0    0 -0.24687131672E+01 -0.80807209579E+01 -0.43429716164E+02  0.44244014758E+02  0.00000000000E+00 0. -1.
        -13    1    3    3    0    0  0.16157908168E+03 -0.17461256285E+03 -0.24645198676E+03  0.34254332356E+03  0.00000000000E+00 0.  1.
          2    1    6    6  502    0  0.21229620178E+03  0.23752645490E+03  0.65996956677E+03  0.73283580912E+03  0.00000000000E+00 0. -1.
          1    1    5    5  503    0 -0.23610405398E+03 -0.61786014769E+02  0.39461184525E+02  0.24722423225E+03  0.00000000000E+00 0. -1.
         -2    1    5    5    0  503 -0.14431319607E+03  0.47935075125E+01 -0.21389224974E+02  0.14596840486E+03  0.00000000000E+00 0.  1.
         -1    1    6    6    0  502  0.90106797581E+01  0.21593361649E+01  0.75027333722E+02  0.75597327253E+02  0.00000000000E+00 0.  1.
<mgrwt>
<rscale>  0 0.15193794E+04</rscale>
<asrwt>0</asrwt>
<pdfrwt beam="1">  1        1 0.15781541E+00 0.15193794E+04</pdfrwt>
<pdfrwt beam="2">  1       -1 0.86555843E-01 0.15193794E+04</pdfrwt>
<totfact> 0.18367529E+01</totfact>
</mgrwt>
</event>
<event>
12    1  0.1549527E-007  0.1866414E+04  0.7818608E-02  0.8671757E-01
          1   -1    0    0  501    0  0.00000000000E+00  0.00000000000E+00  0.15456334228E+04  0.15456334228E+04  0.00000000000E+00 0. -1.
         -1   -1    0    0    0  501 -0.00000000000E+00 -0.00000000000E+00 -0.56344227816E+03  0.56344227816E+03  0.00000000000E+00 0.  1.
         23    2    1    2    0    0 -0.26018894319E+03  0.58102661626E+03  0.74973055471E+03  0.98762506729E+03  0.89538561056E+02 0.  0.
        254    2    1    2    0    0  0.26018894319E+03 -0.58102661626E+03  0.23246058993E+03  0.11214506337E+04  0.89348944196E+03 0.  0.
        -24    2    4    4    0    0 -0.10976464826E+03  0.18160115111E+03 -0.33485242992E+02  0.22923654692E+03  0.80005480126E+02 0.  0.
         24    2    4    4    0    0  0.36995359146E+03 -0.76262776737E+03  0.26594583292E+03  0.89221408674E+03  0.82776923928E+02 0.  0.
         13    1    3    3    0    0 -0.21003006929E+03  0.52420364269E+03  0.68646941635E+03  0.88889951547E+03  0.00000000000E+00 0. -1.
        -13    1    3    3    0    0 -0.50158873901E+02  0.56822973574E+02  0.63261138360E+02  0.98725551826E+02  0.00000000000E+00 0.  1.
          4    1    6    6  502    0  0.19107702072E+02 -0.21055105069E+02  0.23134960724E+02  0.36655806301E+02  0.00000000000E+00 0. -1.
          3    1    5    5  503    0 -0.22713678211E+02  0.77919714577E+02  0.20137558917E+02  0.83623647234E+02  0.00000000000E+00 0. -1.
         -4    1    5    5    0  503 -0.87050970054E+02  0.10368143653E+03 -0.53622801909E+02  0.14561289968E+03  0.00000000000E+00 0.  1.
         -3    1    6    6    0  502  0.35084588938E+03 -0.74157266231E+03  0.24281087220E+03  0.85555828044E+03  0.00000000000E+00 0.  1.
<mgrwt>
<rscale>  0 0.18664139E+04</rscale>
<asrwt>0</asrwt>
<pdfrwt beam="1">  1        1 0.23778975E+00 0.18664139E+04</pdfrwt>
<pdfrwt beam="2">  1       -1 0.86683428E-01 0.18664139E+04</pdfrwt>
<totfact> 0.74866566E+00</totfact>
</mgrwt>
</event>
<event>
12    1  0.1549527E-007  0.1784396E+04  0.7818608E-02  0.8714642E-01
         -2   -1    0    0    0  501 -0.00000000000E+00  0.00000000000E+00  0.71249514827E+03  0.71249514827E+03  0.00000000000E+00 0.  1.
          2   -1    0    0  501    0  0.00000000000E+00 -0.00000000000E+00 -0.11172248020E+04  0.11172248020E+04  0.00000000000E+00 0. -1.
         23    2    1    2    0    0 -0.53722151951E+02 -0.63649197903E+03  0.20597345523E+02  0.64541250725E+03  0.90138476194E+02 0.  0.
        254    2    1    2    0    0  0.53722151951E+02  0.63649197903E+03 -0.42532699923E+03  0.11843074430E+04  0.90203822219E+03 0.  0.
        -24    2    4    4    0    0  0.14538762183E+03 -0.10447843602E+02  0.21096004135E+03  0.26885912921E+03  0.80835476726E+02 0.  0.
         24    2    4    4    0    0 -0.91665469874E+02  0.64693982263E+03 -0.63628704059E+03  0.91544831379E+03  0.79061524899E+02 0.  0.
         13    1    3    3    0    0 -0.37447621831E+02 -0.18278313079E+03  0.40699160563E+02  0.19096706248E+03  0.00000000000E+00 0. -1.
        -13    1    3    3    0    0 -0.16274530120E+02 -0.45370884824E+03 -0.20101815041E+02  0.45444544477E+03  0.00000000000E+00 0.  1.
          4    1    6    6  502    0 -0.90433920160E+02  0.61698131192E+03 -0.57970062251E+03  0.85140885884E+03  0.00000000000E+00 0. -1.
          3    1    5    5  503    0  0.90250972657E+02  0.12013162417E+02  0.66904663949E+02  0.11298578758E+03  0.00000000000E+00 0. -1.
         -2    1    5    5    0  503  0.55136649168E+02 -0.22461006019E+02  0.14405537741E+03  0.15587334163E+03  0.00000000000E+00 0.  1.
         -3    1    6    6    0  502 -0.12315497139E+01  0.29958510710E+02 -0.56586418076E+02  0.64039454942E+02  0.00000000000E+00 0.  1.
<mgrwt>
<rscale>  0 0.17843960E+04</rscale>
<asrwt>0</asrwt>
<pdfrwt beam="1">  1        2 0.17188074E+00 0.17843960E+04</pdfrwt>
<pdfrwt beam="2">  1       -2 0.10961464E+00 0.17843960E+04</pdfrwt>
<totfact> 0.13318429E+01</totfact>
</mgrwt>
</event>
<event>
12    1  0.1549527E-007  0.1620437E+04  0.7818608E-02  0.8808090E-01
         -1   -1    0    0    0  501 -0.00000000000E+00  0.00000000000E+00  0.37174399061E+03  0.37174399061E+03  0.00000000000E+00 0.  1.
          1   -1    0    0  501    0  0.00000000000E+00 -0.00000000000E+00 -0.17658761019E+04  0.17658761019E+04  0.00000000000E+00 0. -1.
         23    2    1    2    0    0 -0.15549489841E+03 -0.10801112689E+03  0.19650658454E+03  0.29905196919E+03  0.12236084155E+03 0.  0.
        254    2    1    2    0    0  0.15549489841E+03  0.10801112689E+03 -0.15906386958E+04  0.18385681233E+04  0.90241687508E+03 0.  0.
        -24    2    4    4    0    0  0.23644239519E+03  0.29923406132E+03 -0.21487719557E+03  0.44495392895E+03  0.79785713092E+02 0.  0.
         24    2    4    4    0    0 -0.80947496781E+02 -0.19122293443E+03 -0.13757615002E+04  0.13936141943E+04  0.79511692510E+02 0.  0.
         13    1    3    3    0    0 -0.76724432497E+02 -0.38077352520E+02  0.17011375797E+03  0.19046053126E+03  0.00000000000E+00 0. -1.
        -13    1    3    3    0    0 -0.78770465914E+02 -0.69933774369E+02  0.26392826572E+02  0.10859143793E+03  0.00000000000E+00 0.  1.
          4    1    6    6  502    0 -0.32845125904E+02 -0.65797449070E+02 -0.74997523484E+03  0.75357213290E+03  0.00000000000E+00 0. -1.
          3    1    5    5  503    0  0.22283777506E+03  0.28163319130E+03 -0.17547737630E+03  0.39970769073E+03  0.00000000000E+00 0. -1.
         -2    1    5    5    0  503  0.13604620128E+02  0.17600870018E+02 -0.39399819270E+02  0.45246238216E+02  0.00000000000E+00 0.  1.
         -3    1    6    6    0  502 -0.48102370877E+02 -0.12542548536E+03 -0.62578626538E+03  0.64004206143E+03  0.00000000000E+00 0.  1.
<mgrwt>
<rscale>  0 0.16204368E+04</rscale>
<asrwt>0</asrwt>
<pdfrwt beam="1">  1        1 0.27167324E+00 0.16204368E+04</pdfrwt>
<pdfrwt beam="2">  1       -1 0.57191384E-01 0.16204368E+04</pdfrwt>
<totfact> 0.12745955E+01</totfact>
</mgrwt>
</event>
<event>
12    1  0.1549527E-007  0.3070693E+04  0.7818608E-02  0.8223827E-01
          1   -1    0    0  501    0  0.00000000000E+00  0.00000000000E+00  0.15398921507E+04  0.15398921507E+04  0.00000000000E+00 0. -1.
         -1   -1    0    0    0  501 -0.00000000000E+00 -0.00000000000E+00 -0.15308147128E+04  0.15308147128E+04  0.00000000000E+00 0.  1.
         23    2    1    2    0    0  0.12172901846E+04  0.67077155002E+03  0.19847449083E+03  0.14074191870E+04  0.98522983909E+02 0.  0.
        254    2    1    2    0    0 -0.12172901846E+04 -0.67077155002E+03 -0.18939705295E+03  0.16632876766E+04  0.89382592576E+03 0.  0.
        -24    2    4    4    0    0 -0.67500500875E+03 -0.79317749092E+03  0.64963153557E+02  0.10464768014E+04  0.78301920024E+02 0.  0.
         24    2    4    4    0    0 -0.54228517589E+03  0.12240594091E+03 -0.25436020651E+03  0.61681087517E+03  0.81854228465E+02 0.  0.
         11    1    3    3    0    0  0.71965952650E+03  0.42133600035E+03  0.16250437078E+03  0.84961257630E+03  0.00000000000E+00 0. -1.
        -11    1    3    3    0    0  0.49763065813E+03  0.24943554966E+03  0.35970120050E+02  0.55780661065E+03  0.00000000000E+00 0.  1.
          4    1    6    6  502    0 -0.33605690192E+03  0.40113636933E+02 -0.17503549185E+03  0.38102594216E+03  0.00000000000E+00 0. -1.
          1    1    5    5  503    0 -0.56310740251E+03 -0.64973622025E+03  0.24696237357E+02  0.86014940958E+03  0.00000000000E+00 0. -1.
         -2    1    5    5    0  503 -0.11189760624E+03 -0.14344127067E+03  0.40266916200E+02  0.18632739185E+03  0.00000000000E+00 0.  1.
         -3    1    6    6    0  502 -0.20622827397E+03  0.82292303973E+02 -0.79324714660E+02  0.23578493301E+03  0.00000000000E+00 0.  1.
<mgrwt>
<rscale>  0 0.30706934E+04</rscale>
<asrwt>0</asrwt>
<pdfrwt beam="1">  1        1 0.23690649E+00 0.30706934E+04</pdfrwt>
<pdfrwt beam="2">  1       -1 0.23550996E+00 0.30706934E+04</pdfrwt>
<totfact> 0.45068946E-01</totfact>
</mgrwt>
</event>
<event>
12    1  0.1549527E-007  0.1466118E+04  0.7818608E-02  0.8907302E-01
         -1   -1    0    0    0  501 -0.00000000000E+00  0.00000000000E+00  0.30890545862E+03  0.30890545862E+03  0.00000000000E+00 0.  1.
          1   -1    0    0  501    0  0.00000000000E+00 -0.00000000000E+00 -0.17396109086E+04  0.17396109086E+04  0.00000000000E+00 0. -1.
         23    2    1    2    0    0  0.13866499875E+03 -0.90136786957E+02  0.13742690917E+03  0.23370423923E+03  0.91536297863E+02 0.  0.
        254    2    1    2    0    0 -0.13866499875E+03  0.90136786957E+02 -0.15681323592E+04  0.18148121280E+04  0.89841601826E+03 0.  0.
        -24    2    4    4    0    0  0.23547111984E+03  0.34980874468E+03 -0.55517878466E+03  0.70173055893E+03  0.79934274669E+02 0.  0.
         24    2    4    4    0    0 -0.37413611859E+03 -0.25967195772E+03 -0.10129535745E+04  0.11130815691E+04  0.73947781969E+02 0.  0.
         13    1    3    3    0    0  0.79258410483E+02 -0.52114255862E+02  0.20338210446E+02  0.97012546099E+02  0.00000000000E+00 0. -1.
        -13    1    3    3    0    0  0.59406588264E+02 -0.38022531094E+02  0.11708869873E+03  0.13669169313E+03  0.00000000000E+00 0.  1.
          4    1    6    6  502    0 -0.82725745394E+02 -0.23819347601E+02 -0.17159205139E+03  0.19197589008E+03  0.00000000000E+00 0. -1.
          1    1    5    5  503    0  0.19579642811E+01  0.38403363789E+02 -0.68409258123E+02  0.78475974485E+02  0.00000000000E+00 0. -1.
         -2    1    5    5    0  503  0.23351315556E+03  0.31140538089E+03 -0.48676952654E+03  0.62325458445E+03  0.00000000000E+00 0.  1.
         -1    1    6    6    0  502 -0.29141037319E+03 -0.23585261012E+03 -0.84136152312E+03  0.92110567900E+03  0.00000000000E+00 0.  1.
<mgrwt>
<rscale>  0 0.14661177E+04</rscale>
<asrwt>0</asrwt>
<pdfrwt beam="1">  1        1 0.26763245E+00 0.14661177E+04</pdfrwt>
<pdfrwt beam="2">  1       -1 0.47523917E-01 0.14661177E+04</pdfrwt>
<totfact> 0.19203800E+01</totfact>
</mgrwt>
</event>
<event>
12    1  0.1549527E-007  0.2666161E+04  0.7818608E-02  0.8346069E-01
         -2   -1    0    0    0  501 -0.00000000000E+00  0.00000000000E+00  0.85899522049E+03  0.85899522049E+03  0.00000000000E+00 0.  1.
          2   -1    0    0  501    0  0.00000000000E+00 -0.00000000000E+00 -0.20688166884E+04  0.20688166884E+04  0.00000000000E+00 0. -1.
         23    2    1    2    0    0 -0.40353601776E+03  0.85469675984E+03  0.23570028410E+03  0.97852728501E+03  0.92807083146E+02 0.  0.
        254    2    1    2    0    0  0.40353601776E+03 -0.85469675984E+03 -0.14455217520E+04  0.19492846239E+04  0.90378622497E+03 0.  0.
        -24    2    4    4    0    0 -0.26572819264E+03 -0.10262738537E+03 -0.37701050543E+03  0.47918365823E+03  0.79600279647E+02 0.  0.
         24    2    4    4    0    0  0.66926421040E+03 -0.75206937447E+03 -0.10685112466E+04  0.14701009657E+04  0.77185735611E+02 0.  0.
         11    1    3    3    0    0 -0.28214448064E+02  0.13484101221E+03  0.28496405732E+02  0.14067764141E+03  0.00000000000E+00 0. -1.
        -11    1    3    3    0    0 -0.37532156970E+03  0.71985574763E+03  0.20720387837E+03  0.83784964360E+03  0.00000000000E+00 0.  1.
          4    1    6    6  502    0  0.28420015631E+02 -0.12693463170E+02 -0.29130708474E+02  0.42631203032E+02  0.00000000000E+00 0. -1.
          1    1    5    5  503    0 -0.44556511673E+02 -0.46709644544E+02 -0.56576405736E+02  0.85836841228E+02  0.00000000000E+00 0. -1.
         -2    1    5    5    0  503 -0.22117168097E+03 -0.55917740830E+02 -0.32043409969E+03  0.39334681700E+03  0.00000000000E+00 0.  1.
         -3    1    6    6    0  502  0.64084419477E+03 -0.73937591130E+03 -0.10393805381E+04  0.14274697626E+04  0.00000000000E+00 0.  1.
<mgrwt>
<rscale>  0 0.26661610E+04</rscale>
<asrwt>0</asrwt>
<pdfrwt beam="1">  1        2 0.31827949E+00 0.26661610E+04</pdfrwt>
<pdfrwt beam="2">  1       -2 0.13215311E+00 0.26661610E+04</pdfrwt>
<totfact> 0.22414368E+00</totfact>
</mgrwt>
</event>
<event>
12    1  0.1549527E-007  0.1879001E+04  0.7818608E-02  0.8665380E-01
          1   -1    0    0  501    0  0.00000000000E+00  0.00000000000E+00  0.17005018745E+04  0.17005018745E+04  0.00000000000E+00 0. -1.
         -1   -1    0    0    0  501 -0.00000000000E+00 -0.00000000000E+00 -0.51905918402E+03  0.51905918402E+03  0.00000000000E+00 0.  1.
         23    2    1    2    0    0  0.62950281895E+03 -0.31021789488E+03  0.28115692781E+03  0.76223309094E+03  0.97165454263E+02 0.  0.
        254    2    1    2    0    0 -0.62950281895E+03  0.31021789488E+03  0.90028576264E+03  0.14573279676E+04  0.90596987214E+03 0.  0.
        -24    2    4    4    0    0  0.21958781997E+03  0.50565300794E+01  0.11970366436E+03  0.26170140174E+03  0.76904338208E+02 0.  0.
         24    2    4    4    0    0 -0.84909063892E+03  0.30516136480E+03  0.78058209828E+03  0.11956265658E+04  0.78333269121E+02 0.  0.
         13    1    3    3    0    0  0.92443139758E+02 -0.28836057180E+02  0.72707468538E+02  0.12109346912E+03  0.00000000000E+00 0. -1.
        -13    1    3    3    0    0  0.53705967919E+03 -0.28138183770E+03  0.20844945927E+03  0.64113962182E+03  0.00000000000E+00 0.  1.
          4    1    6    6  502    0 -0.80663817787E+03  0.27653570840E+03  0.75224715504E+03  0.11371072642E+04  0.00000000000E+00 0. -1.
          1    1    5    5  503    0  0.89129920320E+02 -0.13494498692E+02  0.10872444020E+02  0.90798977033E+02  0.00000000000E+00 0. -1.
         -2    1    5    5    0  503  0.13045789965E+03  0.18551028772E+02  0.10883122034E+03  0.17090242471E+03  0.00000000000E+00 0.  1.
         -3    1    6    6    0  502 -0.42452461050E+02  0.28625656392E+02  0.28334943237E+02  0.58519301613E+02  0.00000000000E+00 0.  1.
<mgrwt>
<rscale>  0 0.18790009E+04</rscale>
<asrwt>0</asrwt>
<pdfrwt beam="1">  1        1 0.26161567E+00 0.18790009E+04</pdfrwt>
<pdfrwt beam="2">  1       -1 0.79855260E-01 0.18790009E+04</pdfrwt>
<totfact> 0.69890543E+00</totfact>
</mgrwt>
</event>
<event>
12    1  0.1549527E-007  0.1795646E+04  0.7818608E-02  0.8708618E-01
         -1   -1    0    0    0  501 -0.00000000000E+00  0.00000000000E+00  0.62641696421E+03  0.62641696421E+03  0.00000000000E+00 0.  1.
          1   -1    0    0  501    0  0.00000000000E+00 -0.00000000000E+00 -0.12868210564E+04  0.12868210564E+04  0.00000000000E+00 0. -1.
         23    2    1    2    0    0  0.44924503897E+02 -0.46787590990E+03 -0.74263018902E+03  0.88796669872E+03  0.12672482894E+03 0.  0.
        254    2    1    2    0    0 -0.44924503897E+02  0.46787590990E+03  0.82226096867E+02  0.10252713219E+04  0.90746574276E+03 0.  0.
        -24    2    4    4    0    0 -0.44587935495E+03  0.90171639309E+02 -0.73762557566E+01  0.46193379539E+03  0.79931836408E+02 0.  0.
         24    2    4    4    0    0  0.40095485105E+03  0.37770427059E+03  0.89602352624E+02  0.56333752646E+03  0.76780717133E+02 0.  0.
         11    1    3    3    0    0  0.34614676667E+02 -0.12480892534E+03 -0.11781248904E+03  0.17508633944E+03  0.00000000000E+00 0.  1.
        -11    1    3    3    0    0  0.10309827230E+02 -0.34306698457E+03 -0.62481769998E+03  0.71288035928E+03  0.00000000000E+00 0. -1.
          2    1    6    6  502    0  0.58406175004E+02  0.76411534047E+02 -0.90255814482E+01  0.96599507941E+02  0.00000000000E+00 0. -1.
          1    1    5    5  503    0 -0.38789818518E+02 -0.14534310649E+02 -0.35727874679E+01  0.41577169420E+02  0.00000000000E+00 0. -1.
         -2    1    5    5    0  503 -0.40708953643E+03  0.10470594996E+03 -0.38034682886E+01  0.42035662597E+03  0.00000000000E+00 0.  1.
         -1    1    6    6    0  502  0.34254867604E+03  0.30129273655E+03  0.98627934072E+02  0.46673801852E+03  0.00000000000E+00 0.  1.
<mgrwt>
<rscale>  0 0.17956464E+04</rscale>
<asrwt>0</asrwt>
<pdfrwt beam="1">  1        1 0.19797247E+00 0.17956464E+04</pdfrwt>
<pdfrwt beam="2">  1       -1 0.96371841E-01 0.17956464E+04</pdfrwt>
<totfact> 0.90472362E+00</totfact>
</mgrwt>
</event>
<event>
12    1  0.1549527E-007  0.2459235E+04  0.7818608E-02  0.8417654E-01
         -2   -1    0    0    0  501 -0.00000000000E+00  0.00000000000E+00  0.65774780792E+03  0.65774780792E+03  0.00000000000E+00 0.  1.
          2   -1    0    0  501    0  0.00000000000E+00 -0.00000000000E+00 -0.22986911407E+04  0.22986911407E+04  0.00000000000E+00 0. -1.
         23    2    1    2    0    0 -0.13248240266E+03 -0.76393274069E+03 -0.16017014856E+04  0.17819517046E+04  0.93591716237E+02 0.  0.
        254    2    1    2    0    0  0.13248240266E+03  0.76393274069E+03 -0.39241847250E+02  0.11744872440E+04  0.88132601490E+03 0.  0.
        -24    2    4    4    0    0  0.99149640167E+02  0.27448002267E+03 -0.44223453109E+03  0.53468048087E+03  0.71707057850E+02 0.  0.
         24    2    4    4    0    0  0.33332762498E+02  0.48945271803E+03  0.40299268384E+03  0.63980676318E+03  0.79212087085E+02 0.  0.
         11    1    3    3    0    0 -0.66325561531E+02 -0.21757483515E+03 -0.39822532003E+03  0.45860799656E+03  0.00000000000E+00 0.  1.
        -11    1    3    3    0    0 -0.66156841134E+02 -0.54635790554E+03 -0.12034761655E+04  0.13233437080E+04  0.00000000000E+00 0. -1.
          2    1    6    6  502    0  0.14632848940E+02  0.55718344286E+02  0.20310527543E+02  0.61083317584E+02  0.00000000000E+00 0. -1.
          3    1    5    5  503    0  0.57377847140E+02  0.13975275754E+03 -0.16558115432E+03  0.22414318916E+03  0.00000000000E+00 0. -1.
         -4    1    5    5    0  503  0.41771793027E+02  0.13472726513E+03 -0.27665337677E+03  0.31053729171E+03  0.00000000000E+00 0.  1.
         -1    1    6    6    0  502  0.18699913559E+02  0.43373437374E+03  0.38268215630E+03  0.57872344559E+03  0.00000000000E+00 0.  1.
<mgrwt>
<rscale>  0 0.24592349E+04</rscale>
<asrwt>0</asrwt>
<pdfrwt beam="1">  1        2 0.35364480E+00 0.24592349E+04</pdfrwt>
<pdfrwt beam="2">  1       -2 0.10119197E+00 0.24592349E+04</pdfrwt>
<totfact> 0.32630180E+00</totfact>
</mgrwt>
</event>
<event>
12    1  0.1549527E-007  0.2089359E+04  0.7818608E-02  0.8565945E-01
          2   -1    0    0  501    0  0.00000000000E+00  0.00000000000E+00  0.17819878611E+04  0.17819878611E+04  0.00000000000E+00 0. -1.
         -2   -1    0    0    0  501 -0.00000000000E+00 -0.00000000000E+00 -0.61243715756E+03  0.61243715756E+03  0.00000000000E+00 0.  1.
         23    2    1    2    0    0 -0.56294937161E+03  0.52367047796E+03  0.65400146141E+02  0.77687982456E+03  0.90123904844E+02 0.  0.
        254    2    1    2    0    0  0.56294937161E+03 -0.52367047796E+03  0.11041505574E+04  0.16175451941E+04  0.89786482115E+03 0.  0.
        -24    2    4    4    0    0  0.12704629595E+03  0.22805935735E+03  0.10853633903E+03  0.29362994617E+03  0.79287934811E+02 0.  0.
         24    2    4    4    0    0  0.43590307566E+03 -0.75172983530E+03  0.99561421838E+03  0.13239152479E+04  0.79966713311E+02 0.  0.
         13    1    3    3    0    0 -0.14619919519E+03  0.93592433733E+02 -0.64654418195E+01  0.17371111152E+03  0.00000000000E+00 0. -1.
        -13    1    3    3    0    0 -0.41675017641E+03  0.43007804422E+03  0.71865587960E+02  0.60316871305E+03  0.00000000000E+00 0.  1.
          2    1    6    6  502    0  0.12226207601E+03 -0.20738064148E+03  0.33196736617E+03  0.41006960129E+03  0.00000000000E+00 0. -1.
          3    1    5    5  503    0  0.12751839378E+03  0.22714514450E+03  0.90799100795E+02  0.27586289008E+03  0.00000000000E+00 0. -1.
         -4    1    5    5    0  503 -0.47209783103E+00  0.91421285138E+00  0.17737238238E+02  0.17767056082E+02  0.00000000000E+00 0.  1.
         -1    1    6    6    0  502  0.31364099964E+03 -0.54434919382E+03  0.66364685220E+03  0.91384564665E+03  0.00000000000E+00 0.  1.
<mgrwt>
<rscale>  0 0.20893593E+04</rscale>
<asrwt>0</asrwt>
<pdfrwt beam="1">  1        2 0.27415198E+00 0.20893593E+04</pdfrwt>
<pdfrwt beam="2">  1       -2 0.94221102E-01 0.20893593E+04</pdfrwt>
<totfact> 0.77377966E+00</totfact>
</mgrwt>
</event>
<event>
12    1  0.1549527E-007  0.2413534E+04  0.7818608E-02  0.8434454E-01
          1   -1    0    0  501    0  0.00000000000E+00  0.00000000000E+00  0.12632037690E+04  0.12632037690E+04  0.00000000000E+00 0. -1.
         -1   -1    0    0    0  501 -0.00000000000E+00 -0.00000000000E+00 -0.11528513321E+04  0.11528513321E+04  0.00000000000E+00 0.  1.
         23    2    1    2    0    0 -0.37146139617E+03  0.45141657616E+03  0.90612622889E+03  0.10822429179E+04  0.91785056809E+02 0.  0.
        254    2    1    2    0    0  0.37146139617E+03 -0.45141657616E+03 -0.79577379198E+03  0.13338121831E+04  0.89668194905E+03 0.  0.
        -24    2    4    4    0    0 -0.56462579382E+02 -0.17302707035E+03 -0.79252024502E+03  0.81707306717E+03  0.79960417606E+02 0.  0.
         24    2    4    4    0    0  0.42792397555E+03 -0.27838950581E+03 -0.32535469603E+01  0.51673911595E+03  0.79931737058E+02 0.  0.
         13    1    3    3    0    0  0.37084606486E+00  0.11075371561E+02  0.42862897302E+02  0.44272218684E+02  0.00000000000E+00 0.  1.
        -13    1    3    3    0    0 -0.37183224223E+03  0.44034120460E+03  0.86326333159E+03  0.10379706993E+04  0.00000000000E+00 0. -1.
          2    1    6    6  502    0  0.40392527868E+03 -0.23554833743E+03 -0.11618124994E+01  0.46758956343E+03  0.00000000000E+00 0. -1.
          1    1    5    5  503    0 -0.45492451832E+02 -0.14564489188E+03 -0.74973805075E+03  0.76510727512E+03  0.00000000000E+00 0. -1.
         -2    1    5    5    0  503 -0.10970127550E+02 -0.27382178477E+02 -0.42782194270E+02  0.51965792048E+02  0.00000000000E+00 0.  1.
         -3    1    6    6    0  502  0.23998696871E+02 -0.42841168379E+02 -0.20917344608E+01  0.49149552517E+02  0.00000000000E+00 0.  1.
<mgrwt>
<rscale>  0 0.24135336E+04</rscale>
<asrwt>0</asrwt>
<pdfrwt beam="1">  1        1 0.19433904E+00 0.24135336E+04</pdfrwt>
<pdfrwt beam="2">  1       -1 0.17736174E+00 0.24135336E+04</pdfrwt>
<totfact> 0.18710485E+00</totfact>
</mgrwt>
</event>
<event>
12    1  0.1549527E-007  0.2904735E+04  0.7818608E-02  0.8271470E-01
          2   -1    0    0  501    0  0.00000000000E+00  0.00000000000E+00  0.10243337608E+04  0.10243337608E+04  0.00000000000E+00 0.  1.
         -2   -1    0    0    0  501 -0.00000000000E+00 -0.00000000000E+00 -0.20592616642E+04  0.20592616642E+04  0.00000000000E+00 0. -1.
         23    2    1    2    0    0  0.18502439292E+03  0.59236970746E+03 -0.16971298095E+04  0.18093135768E+04  0.90720077268E+02 0.  0.
        254    2    1    2    0    0 -0.18502439292E+03 -0.59236970746E+03  0.66220190607E+03  0.12742818482E+04  0.89450934484E+03 0.  0.
        -24    2    4    4    0    0 -0.22259376271E+02 -0.98733993306E+02 -0.21522748202E+03  0.25140151873E+03  0.81461483755E+02 0.  0.
         24    2    4    4    0    0 -0.16276501665E+03 -0.49363571416E+03  0.87742938808E+03  0.10228803295E+04  0.78950417712E+02 0.  0.
         13    1    3    3    0    0  0.79560333143E+02  0.39288278507E+03 -0.10448600915E+04  0.11191154275E+04  0.00000000000E+00 0. -1.
        -13    1    3    3    0    0  0.10546405978E+03  0.19948692239E+03 -0.65226971807E+03  0.69019814925E+03  0.00000000000E+00 0.  1.
          2    1    6    6  502    0 -0.72281837083E+02 -0.22794615168E+03  0.32806186606E+03  0.40596637792E+03  0.00000000000E+00 0. -1.
          3    1    5    5  503    0  0.26848867931E+02 -0.12487817991E+02 -0.36851748051E+02  0.47274291552E+02  0.00000000000E+00 0. -1.
         -4    1    5    5    0  503 -0.49108244202E+02 -0.86246175315E+02 -0.17837573397E+03  0.20412722717E+03  0.00000000000E+00 0.  1.
         -3    1    6    6    0  502 -0.90483179566E+02 -0.26568956247E+03  0.54936752202E+03  0.61691395157E+03  0.00000000000E+00 0.  1.
<mgrwt>
<rscale>  0 0.29047349E+04</rscale>
<asrwt>0</asrwt>
<pdfrwt beam="1">  1        2 0.15758981E+00 0.29047349E+04</pdfrwt>
<pdfrwt beam="2">  1       -2 0.31680948E+00 0.29047349E+04</pdfrwt>
<totfact> 0.52524903E-01</totfact>
</mgrwt>
</event>
<event>
12    1  0.1549527E-007  0.1534771E+04  0.7818608E-02  0.8861654E-01
          2   -1    0    0  501    0  0.00000000000E+00  0.00000000000E+00  0.11095830249E+04  0.11095830249E+04  0.00000000000E+00 0. -1.
         -2   -1    0    0    0  501 -0.00000000000E+00 -0.00000000000E+00 -0.53072230088E+03  0.53072230088E+03  0.00000000000E+00 0.  1.
         23    2    1    2    0    0 -0.74351025770E+02 -0.43536752007E+03  0.43829971796E+03  0.62821208891E+03  0.86433982460E+02 0.  0.
        254    2    1    2    0    0  0.74351025770E+02  0.43536752007E+03  0.14056100606E+03  0.10120932369E+04  0.89972349704E+03 0.  0.
        -24    2    4    4    0    0 -0.26417143779E+03  0.19485878551E+03  0.39368736066E+03  0.51878121836E+03  0.79923211558E+02 0.  0.
         24    2    4    4    0    0  0.33852246356E+03  0.24050873456E+03 -0.25312635459E+03  0.49331201851E+03  0.82715696740E+02 0.  0.
         11    1    3    3    0    0  0.32323221203E+01 -0.22894976422E+03  0.20760469566E+03  0.30907628848E+03  0.00000000000E+00 0.  1.
        -11    1    3    3    0    0 -0.77583347890E+02 -0.20641775586E+03  0.23069502230E+03  0.31913580043E+03  0.00000000000E+00 0. -1.
          2    1    6    6  502    0  0.22747994493E+03  0.15829721464E+03 -0.21271254728E+03  0.34935907213E+03  0.00000000000E+00 0. -1.
          3    1    5    5  503    0 -0.26684532838E+03  0.19837183938E+03  0.39207215682E+03  0.51408014170E+03  0.00000000000E+00 0. -1.
         -4    1    5    5    0  503  0.26738905872E+01 -0.35130538661E+01  0.16152038377E+01  0.47010766613E+01  0.00000000000E+00 0.  1.
         -1    1    6    6    0  502  0.11104251863E+03  0.82211519925E+02 -0.40413807308E+02  0.14395294638E+03  0.00000000000E+00 0.  1.
<mgrwt>
<rscale>  0 0.15347709E+04</rscale>
<asrwt>0</asrwt>
<pdfrwt beam="1">  1        2 0.17070508E+00 0.15347709E+04</pdfrwt>
<pdfrwt beam="2">  1       -2 0.81649585E-01 0.15347709E+04</pdfrwt>
<totfact> 0.27345368E+01</totfact>
</mgrwt>
</event>
<event>
12    1  0.1549527E-007  0.3210532E+04  0.7818608E-02  0.8186041E-01
          1   -1    0    0  501    0  0.00000000000E+00  0.00000000000E+00  0.14383884905E+04  0.14383884905E+04  0.00000000000E+00 0. -1.
         -1   -1    0    0    0  501 -0.00000000000E+00 -0.00000000000E+00 -0.17915042604E+04  0.17915042604E+04  0.00000000000E+00 0.  1.
         23    2    1    2    0    0  0.12924609077E+04  0.45850610415E+03  0.39211241653E+03  0.14293513928E+04  0.92791225475E+02 0.  0.
        254    2    1    2    0    0 -0.12924609077E+04 -0.45850610415E+03 -0.74522818640E+03  0.18005413581E+04  0.89771993804E+03 0.  0.
        -24    2    4    4    0    0 -0.94874411131E+02  0.27404643625E+02 -0.45650444430E+03  0.47382488445E+03  0.79759294576E+02 0.  0.
         24    2    4    4    0    0 -0.11975864965E+04 -0.48591074777E+03 -0.28872374209E+03  0.13267164737E+04  0.80576242210E+02 0.  0.
         11    1    3    3    0    0  0.10167932314E+04  0.35031633869E+03  0.34538906465E+03  0.11295501842E+04  0.00000000000E+00 0. -1.
        -11    1    3    3    0    0  0.27566767627E+03  0.10818976546E+03  0.46723351877E+02  0.29980120864E+03  0.00000000000E+00 0.  1.
          2    1    6    6  502    0 -0.50791427372E+03 -0.18955268314E+03 -0.15874859518E+03  0.56489666808E+03  0.00000000000E+00 0. -1.
          1    1    5    5  503    0  0.14314169102E+02 -0.38864969532E-01 -0.55418262530E+02  0.57237057659E+02  0.00000000000E+00 0. -1.
         -2    1    5    5    0  503 -0.10918858023E+03  0.27443508594E+02 -0.40108618177E+03  0.41658782679E+03  0.00000000000E+00 0.  1.
         -1    1    6    6    0  502 -0.68967222282E+03 -0.29635806464E+03 -0.12997514691E+03  0.76181980561E+03  0.00000000000E+00 0.  1.
<mgrwt>
<rscale>  0 0.32105321E+04</rscale>
<asrwt>0</asrwt>
<pdfrwt beam="1">  1        1 0.22129054E+00 0.32105321E+04</pdfrwt>
<pdfrwt beam="2">  1       -1 0.27561604E+00 0.32105321E+04</pdfrwt>
<totfact> 0.28678107E-01</totfact>
</mgrwt>
</event>
<event>
12    1  0.1549527E-007  0.1881147E+04  0.7818608E-02  0.8664298E-01
          2   -1    0    0  501    0  0.00000000000E+00  0.00000000000E+00  0.98312208261E+03  0.98312208261E+03  0.00000000000E+00 0.  1.
         -2   -1    0    0    0  501 -0.00000000000E+00 -0.00000000000E+00 -0.89986665807E+03  0.89986665807E+03  0.00000000000E+00 0. -1.
         23    2    1    2    0    0  0.11909696762E+03 -0.68641064445E+03 -0.11964578239E+03  0.71270204447E+03  0.91024339844E+02 0.  0.
        254    2    1    2    0    0 -0.11909696762E+03  0.68641064445E+03  0.20290120694E+03  0.11702866962E+04  0.91818211212E+03 0.  0.
        -24    2    4    4    0    0 -0.42891801653E+03  0.52694462017E+03 -0.11258798643E+03  0.69351438983E+03  0.81515989724E+02 0.  0.
         24    2    4    4    0    0  0.30982104891E+03  0.15946602428E+03  0.31548919337E+03  0.47677230637E+03  0.79749017188E+02 0.  0.
         13    1    3    3    0    0  0.11260291287E+03 -0.48296344573E+03 -0.54102029066E+02  0.49885883319E+03  0.00000000000E+00 0. -1.
        -13    1    3    3    0    0  0.64940547440E+01 -0.20344719872E+03 -0.65543753324E+02  0.21384321129E+03  0.00000000000E+00 0.  1.
          4    1    6    6  502    0  0.30614194394E+03  0.13838294167E+03  0.29392597731E+03  0.44639131771E+03  0.00000000000E+00 0. -1.
          1    1    5    5  503    0 -0.43163285175E+03  0.52743838641E+03 -0.11185052975E+03  0.69065817245E+03  0.00000000000E+00 0. -1.
         -2    1    5    5    0  503  0.27148352188E+01 -0.49376623756E+00 -0.73745668443E+00  0.28562173803E+01  0.00000000000E+00 0.  1.
         -3    1    6    6    0  502  0.36791049741E+01  0.21083082609E+02  0.21563216051E+02  0.30380988663E+02  0.00000000000E+00 0.  1.
<mgrwt>
<rscale>  0 0.18811473E+04</rscale>
<asrwt>0</asrwt>
<pdfrwt beam="1">  1        2 0.15124955E+00 0.18811473E+04</pdfrwt>
<pdfrwt beam="2">  1       -2 0.13844103E+00 0.18811473E+04</pdfrwt>
<totfact> 0.89575508E+00</totfact>
</mgrwt>
</event>
<event>
12    1  0.2062440E-007  0.1349786E+04  0.7818608E-02  0.8990990E-01
         -2   -1    0    0    0  501 -0.00000000000E+00  0.00000000000E+00  0.44243379898E+03  0.44243379898E+03  0.00000000000E+00 0.  1.
          2   -1    0    0  501    0  0.00000000000E+00 -0.00000000000E+00 -0.10294879541E+04  0.10294879541E+04  0.00000000000E+00 0. -1.
         23    2    1    2    0    0  0.54045104118E+02  0.18720479326E+03 -0.49868860932E+03  0.54363958446E+03  0.94271739270E+02 0.  0.
        254    2    1    2    0    0 -0.54045104118E+02 -0.18720479326E+03 -0.88365545838E+02  0.92828216866E+03  0.90328999056E+03 0.  0.
        -24    2    4    4    0    0  0.20883954403E+03  0.27164018540E+03 -0.16480079364E+03  0.38816690364E+03  0.78178628915E+02 0.  0.
         24    2    4    4    0    0 -0.26288464815E+03 -0.45884497867E+03  0.76435247806E+02  0.54011526502E+03  0.78962647611E+02 0.  0.
         13    1    3    3    0    0  0.35967771244E+02  0.12184337214E+02 -0.60334278734E+02  0.71290699478E+02  0.00000000000E+00 0.  1.
        -13    1    3    3    0    0  0.18077332874E+02  0.17502045605E+03 -0.43835433058E+03  0.47234888498E+03  0.00000000000E+00 0. -1.
          2    1    6    6  502    0 -0.25226886848E+03 -0.43228222600E+03  0.89870521534E+02  0.50851176541E+03  0.00000000000E+00 0. -1.
          1    1    5    5  503    0  0.20133826590E+03  0.26490819953E+03 -0.17313756253E+03  0.37508674604E+03  0.00000000000E+00 0. -1.
         -2    1    5    5    0  503  0.75012781247E+01  0.67319858740E+01  0.83367688889E+01  0.13080157599E+02  0.00000000000E+00 0.  1.
         -1    1    6    6    0  502 -0.10615779663E+02 -0.26562752670E+02 -0.13435273729E+02  0.31603499607E+02  0.00000000000E+00 0.  1.
<mgrwt>
<rscale>  0 0.13497856E+04</rscale>
<asrwt>0</asrwt>
<pdfrwt beam="1">  1        2 0.15838276E+00 0.13497856E+04</pdfrwt>
<pdfrwt beam="2">  1       -2 0.68066739E-01 0.13497856E+04</pdfrwt>
<totfact> 0.46559906E+01</totfact>
</mgrwt>
</event>
<event>
12    1  0.1549527E-007  0.1064215E+04  0.7818608E-02  0.9240790E-01
         -1   -1    0    0    0  501 -0.00000000000E+00  0.00000000000E+00  0.77962820739E+03  0.77962820739E+03  0.00000000000E+00 0.  1.
          1   -1    0    0  501    0  0.00000000000E+00 -0.00000000000E+00 -0.36317077791E+03  0.36317077791E+03  0.00000000000E+00 0. -1.
         23    2    1    2    0    0  0.58419337260E+02 -0.49876305328E+02  0.14502159782E+03  0.18745807260E+03  0.90602430148E+02 0.  0.
        254    2    1    2    0    0 -0.58419337260E+02  0.49876305328E+02  0.27143583167E+03  0.95534091270E+03  0.91274223304E+03 0.  0.
        -24    2    4    4    0    0  0.13524462869E+03 -0.26424948929E+02 -0.30072859670E+03  0.34131843777E+03  0.84090424977E+02 0.  0.
         24    2    4    4    0    0 -0.19366396595E+03  0.76301254256E+02  0.57216442837E+03  0.61402247493E+03  0.79522660410E+02 0.  0.
         13    1    3    3    0    0  0.88802847674E+01  0.26229001608E+02  0.39547525220E+02  0.48278636414E+02  0.00000000000E+00 0. -1.
        -13    1    3    3    0    0  0.49539052493E+02 -0.76105306936E+02  0.10547407260E+03  0.13917943618E+03  0.00000000000E+00 0.  1.
          2    1    6    6  502    0 -0.10733816678E+03  0.83788162263E+02  0.34720882113E+03  0.37295563228E+03  0.00000000000E+00 0. -1.
          3    1    5    5  503    0  0.50254102304E+02 -0.43407048122E+02 -0.18623504749E+03  0.19771985115E+03  0.00000000000E+00 0. -1.
         -4    1    5    5    0  503  0.84990526388E+02  0.16982099194E+02 -0.11449354921E+03  0.14359858662E+03  0.00000000000E+00 0.  1.
         -1    1    6    6    0  502 -0.86325799171E+02 -0.74869080063E+01  0.22495560724E+03  0.24106684265E+03  0.00000000000E+00 0.  1.
<mgrwt>
<rscale>  0 0.10642146E+04</rscale>
<asrwt>0</asrwt>
<pdfrwt beam="1">  1        1 0.55872428E-01 0.10642146E+04</pdfrwt>
<pdfrwt beam="2">  1       -1 0.11994280E+00 0.10642146E+04</pdfrwt>
<totfact> 0.42239959E+01</totfact>
</mgrwt>
</event>
<event>
12    1  0.1549527E-007  0.5982026E+04  0.7818608E-02  0.7692634E-01
         -2   -1    0    0    0  501 -0.00000000000E+00  0.00000000000E+00  0.24457135923E+04  0.24457135923E+04  0.00000000000E+00 0. -1.
          2   -1    0    0  501    0  0.00000000000E+00 -0.00000000000E+00 -0.36578934255E+04  0.36578934255E+04  0.00000000000E+00 0.  1.
         23    2    1    2    0    0 -0.12424831615E+04  0.12835315133E+04 -0.29524034117E+04  0.34519980695E+04  0.91581736692E+02 0.  0.
        254    2    1    2    0    0  0.12424831615E+04 -0.12835315133E+04  0.17402235785E+04  0.26516089483E+04  0.90079651379E+03 0.  0.
        -24    2    4    4    0    0  0.68314983230E+03 -0.11698525899E+03  0.50697569034E+03  0.86252624602E+03  0.80919282562E+02 0.  0.
         24    2    4    4    0    0  0.55933332919E+03 -0.11665462544E+04  0.12332478881E+04  0.17890827023E+04  0.78946977702E+02 0.  0.
         13    1    3    3    0    0 -0.12036865066E+04  0.12400576340E+04 -0.28839011447E+04  0.33620663221E+04  0.00000000000E+00 0.  1.
        -13    1    3    3    0    0 -0.38796654847E+02  0.43473879375E+02 -0.68502266957E+02  0.89931747417E+02  0.00000000000E+00 0. -1.
          2    1    6    6  502    0  0.33908512672E+03 -0.61799920511E+03  0.66016695308E+03  0.96577541210E+03  0.00000000000E+00 0. -1.
          1    1    5    5  503    0  0.68394559153E+02  0.11435525201E+02  0.59757105117E+02  0.91539601104E+02  0.00000000000E+00 0. -1.
         -2    1    5    5    0  503  0.61475527314E+03 -0.12842078419E+03  0.44721858523E+03  0.77098664492E+03  0.00000000000E+00 0.  1.
         -1    1    6    6    0  502  0.22024820247E+03 -0.54854704925E+03  0.57308093505E+03  0.82330729017E+03  0.00000000000E+00 0.  1.
<mgrwt>
<rscale>  0 0.59820263E+04</rscale>
<asrwt>0</asrwt>
<pdfrwt beam="1">  1        2 0.56275283E+00 0.59820263E+04</pdfrwt>
<pdfrwt beam="2">  1       -2 0.37626363E+00 0.59820263E+04</pdfrwt>
<totfact> 0.44605020E-03</totfact>
</mgrwt>
</event>
<event>
12    1  0.1549527E-007  0.1472003E+04  0.7818608E-02  0.8903287E-01
          2   -1    0    0  501    0  0.00000000000E+00  0.00000000000E+00  0.45478051568E+03  0.45478051568E+03  0.00000000000E+00 0. -1.
         -2   -1    0    0    0  501 -0.00000000000E+00 -0.00000000000E+00 -0.11911201354E+04  0.11911201354E+04  0.00000000000E+00 0.  1.
         23    2    1    2    0    0 -0.41839244041E+03 -0.92245122162E+01 -0.40018320733E+02  0.42964460188E+03  0.88632342354E+02 0.  0.
        254    2    1    2    0    0  0.41839244041E+03  0.92245122162E+01 -0.69632129903E+03  0.12162560492E+04  0.90513982346E+03 0.  0.
        -24    2    4    4    0    0  0.24404649184E+03 -0.42169498335E+03 -0.20414515110E+03  0.53398910832E+03  0.77998563569E+02 0.  0.
         24    2    4    4    0    0  0.17434594857E+03  0.43091949557E+03 -0.49217614793E+03  0.68226694093E+03  0.84632716204E+02 0.  0.
         13    1    3    3    0    0 -0.39505301795E+03 -0.16901834069E+02 -0.16693517179E+02  0.39576663895E+03  0.00000000000E+00 0. -1.
        -13    1    3    3    0    0 -0.23339422455E+02  0.76773218524E+01 -0.23324803554E+02  0.33877962929E+02  0.00000000000E+00 0.  1.
          2    1    6    6  502    0  0.74821740103E+02  0.20350393253E+03 -0.29011550849E+03  0.36218662540E+03  0.00000000000E+00 0. -1.
          3    1    5    5  503    0  0.22436682106E+03 -0.39302947382E+03 -0.16517710682E+03  0.48176354605E+03  0.00000000000E+00 0. -1.
         -4    1    5    5    0  503  0.19679670782E+02 -0.28665509527E+02 -0.38968044287E+02  0.52225562267E+02  0.00000000000E+00 0.  1.
         -1    1    6    6    0  502  0.99524208466E+02  0.22741556304E+03 -0.20206063943E+03  0.32008031553E+03  0.00000000000E+00 0.  1.
<mgrwt>
<rscale>  0 0.14720030E+04</rscale>
<asrwt>0</asrwt>
<pdfrwt beam="1">  1        2 0.69966233E-01 0.14720030E+04</pdfrwt>
<pdfrwt beam="2">  1       -2 0.18324925E+00 0.14720030E+04</pdfrwt>
<totfact> 0.11444721E+01</totfact>
</mgrwt>
</event>
<event>
12    1  0.1549527E-007  0.2733561E+04  0.7818608E-02  0.8324197E-01
          2   -1    0    0  501    0  0.00000000000E+00  0.00000000000E+00  0.24410842750E+04  0.24410842750E+04  0.00000000000E+00 0. -1.
         -2   -1    0    0    0  501 -0.00000000000E+00 -0.00000000000E+00 -0.76527036510E+03  0.76527036510E+03  0.00000000000E+00 0.  1.
         23    2    1    2    0    0  0.27570940658E+03 -0.11823511244E+04  0.56644835367E+03  0.13427454417E+04  0.90176080515E+02 0.  0.
        254    2    1    2    0    0 -0.27570940658E+03  0.11823511244E+04  0.11093655563E+04  0.18636091985E+04  0.87657141690E+03 0.  0.
        -24    2    4    4    0    0 -0.50025228435E+03  0.10782107844E+04  0.10675581832E+04  0.15995692081E+04  0.78424060529E+02 0.  0.
         24    2    4    4    0    0  0.22454287777E+03  0.10414033996E+03  0.41807373076E+02  0.26403999039E+03  0.81881290386E+02 0.  0.
         13    1    3    3    0    0  0.16102612770E+03 -0.60091069744E+03  0.24570783316E+03  0.66887623621E+03  0.00000000000E+00 0.  1.
        -13    1    3    3    0    0  0.11468327889E+03 -0.58144042696E+03  0.32074052051E+03  0.67386920546E+03  0.00000000000E+00 0. -1.
          4    1    6    6  502    0  0.21189339088E+03  0.98395917179E+02  0.59945262623E+02  0.24119286915E+03  0.00000000000E+00 0. -1.
          3    1    5    5  503    0 -0.29797387783E+03  0.56048891790E+03  0.59415463805E+03  0.86945729790E+03  0.00000000000E+00 0. -1.
         -4    1    5    5    0  503 -0.20227840652E+03  0.51772186654E+03  0.47340354515E+03  0.73011191019E+03  0.00000000000E+00 0.  1.
         -3    1    6    6    0  502  0.12649486885E+02  0.57444227831E+01 -0.18137889547E+02  0.22847121236E+02  0.00000000000E+00 0.  1.
<mgrwt>
<rscale>  0 0.27335614E+04</rscale>
<asrwt>0</asrwt>
<pdfrwt beam="1">  1        2 0.37555142E+00 0.27335614E+04</pdfrwt>
<pdfrwt beam="2">  1       -2 0.11773390E+00 0.27335614E+04</pdfrwt>
<totfact> 0.18333418E+00</totfact>
</mgrwt>
</event>
<event>
12    1  0.1549527E-007  0.2299010E+04  0.7818608E-02  0.8478312E-01
          2   -1    0    0  501    0  0.00000000000E+00  0.00000000000E+00  0.28958665586E+04  0.28958665586E+04  0.00000000000E+00 0. -1.
         -2   -1    0    0    0  501 -0.00000000000E+00 -0.00000000000E+00 -0.45629238767E+03  0.45629238767E+03  0.00000000000E+00 0.  1.
         23    2    1    2    0    0 -0.69490599507E+03  0.30464308482E+03  0.19204085380E+04  0.20668648447E+04  0.90882245729E+02 0.  0.
        254    2    1    2    0    0  0.69490599507E+03 -0.30464308482E+03  0.51916563296E+03  0.12852941015E+04  0.89819052650E+03 0.  0.
        -24    2    4    4    0    0  0.45459556711E+03  0.24599510403E+03  0.41910111793E+03  0.66993916280E+03  0.77472665836E+02 0.  0.
         24    2    4    4    0    0  0.24031042796E+03 -0.55063818885E+03  0.10006451502E+03  0.61535493874E+03  0.87734124803E+02 0.  0.
         13    1    3    3    0    0 -0.11406980801E+03  0.14980852318E+02  0.29908554353E+03  0.32045047883E+03  0.00000000000E+00 0.  1.
        -13    1    3    3    0    0 -0.58083618706E+03  0.28966223250E+03  0.16213229944E+04  0.17464143659E+04  0.00000000000E+00 0. -1.
          2    1    6    6  502    0  0.34537265434E+02 -0.56458179414E+02  0.38368683234E+02  0.76501663901E+02  0.00000000000E+00 0. -1.
          3    1    5    5  503    0  0.38614955112E+02  0.44232645471E+02  0.31517939471E+02  0.66640994832E+02  0.00000000000E+00 0. -1.
         -4    1    5    5    0  503  0.41598061200E+03  0.20176245856E+03  0.38758317846E+03  0.60329816797E+03  0.00000000000E+00 0.  1.
         -1    1    6    6    0  502  0.20577316252E+03 -0.49418000944E+03  0.61695831788E+02  0.53885327484E+03  0.00000000000E+00 0.  1.
<mgrwt>
<rscale>  0 0.22990101E+04</rscale>
<asrwt>0</asrwt>
<pdfrwt beam="1">  1        2 0.44551792E+00 0.22990101E+04</pdfrwt>
<pdfrwt beam="2">  1       -2 0.70198830E-01 0.22990101E+04</pdfrwt>
<totfact> 0.33869327E+00</totfact>
</mgrwt>
</event>
<event>
12    1  0.1549527E-007  0.2594352E+04  0.7818608E-02  0.8370122E-01
          1   -1    0    0  501    0  0.00000000000E+00  0.00000000000E+00  0.33396348607E+04  0.33396348607E+04  0.00000000000E+00 0. -1.
         -1   -1    0    0    0  501 -0.00000000000E+00 -0.00000000000E+00 -0.50384705625E+03  0.50384705625E+03  0.00000000000E+00 0.  1.
         23    2    1    2    0    0 -0.10346420616E+04  0.23705657189E+01  0.19556777271E+04  0.22143890647E+04  0.91398810044E+02 0.  0.
        254    2    1    2    0    0  0.10346420616E+04 -0.23705657189E+01  0.88011007741E+03  0.16290928523E+04  0.89936642027E+03 0.  0.
        -24    2    4    4    0    0  0.58364824707E+03  0.36376890364E+03  0.76481203464E+03  0.10316728937E+04  0.80239763833E+02 0.  0.
         24    2    4    4    0    0  0.45099381450E+03 -0.36613946936E+03  0.11529804277E+03  0.59741995860E+03  0.78507557147E+02 0.  0.
         11    1    3    3    0    0 -0.67542957260E+02 -0.11069299461E+02  0.17661921881E+03  0.18941734060E+03  0.00000000000E+00 0.  1.
        -11    1    3    3    0    0 -0.96709910431E+03  0.13439865180E+02  0.17790585083E+04  0.20249717241E+04  0.00000000000E+00 0. -1.
          4    1    6    6  502    0  0.23261221463E+03 -0.16168897383E+03  0.22371215988E+02  0.28416938251E+03  0.00000000000E+00 0. -1.
          1    1    5    5  503    0  0.25275993870E+03  0.16620594193E+03  0.39526240863E+03  0.49773926248E+03  0.00000000000E+00 0. -1.
         -2    1    5    5    0  503  0.33088830838E+03  0.19756296171E+03  0.36954962602E+03  0.53393363122E+03  0.00000000000E+00 0.  1.
         -3    1    6    6    0  502  0.21838159987E+03 -0.20445049553E+03  0.92926826781E+02  0.31325057609E+03  0.00000000000E+00 0.  1.
<mgrwt>
<rscale>  0 0.25943517E+04</rscale>
<asrwt>0</asrwt>
<pdfrwt beam="1">  1        1 0.51378996E+00 0.25943517E+04</pdfrwt>
<pdfrwt beam="2">  1       -1 0.77514934E-01 0.25943517E+04</pdfrwt>
<totfact> 0.48959421E-01</totfact>
</mgrwt>
</event>
<event>
12    1  0.1549527E-007  0.2348575E+04  0.7818608E-02  0.8459011E-01
          1   -1    0    0  501    0  0.00000000000E+00  0.00000000000E+00  0.24705022098E+04  0.24705022098E+04  0.00000000000E+00 0. -1.
         -1   -1    0    0    0  501 -0.00000000000E+00 -0.00000000000E+00 -0.55816610688E+03  0.55816610688E+03  0.00000000000E+00 0.  1.
         23    2    1    2    0    0  0.89848464345E+03  0.20799857485E+03  0.13345119467E+04  0.16247404286E+04  0.91220955745E+02 0.  0.
        254    2    1    2    0    0 -0.89848464345E+03 -0.20799857485E+03  0.57782415617E+03  0.14039278880E+04  0.88690174074E+03 0.  0.
        -24    2    4    4    0    0 -0.76276574424E+03 -0.10285289808E+03  0.79933462175E+03  0.11125761048E+04  0.80619180821E+02 0.  0.
         24    2    4    4    0    0 -0.13571889921E+03 -0.10514567677E+03 -0.22151046558E+03  0.29135178320E+03  0.79647613053E+02 0.  0.
         13    1    3    3    0    0  0.23671754718E+03  0.32134489358E+02  0.28892332480E+03  0.37489266485E+03  0.00000000000E+00 0.  1.
        -13    1    3    3    0    0  0.66176709627E+03  0.17586408550E+03  0.10455886219E+04  0.12498477638E+04  0.00000000000E+00 0. -1.
          2    1    6    6  502    0 -0.91419567939E+02 -0.44526623269E+02 -0.73766806133E+02  0.12562523341E+03  0.00000000000E+00 0. -1.
          1    1    5    5  503    0 -0.21702868857E+03 -0.61590663738E+02  0.25927312003E+03  0.34368213846E+03  0.00000000000E+00 0. -1.
         -2    1    5    5    0  503 -0.54573705567E+03 -0.41262234345E+02  0.54006150172E+03  0.76889396639E+03  0.00000000000E+00 0.  1.
         -1    1    6    6    0  502 -0.44299331274E+02 -0.60619053503E+02 -0.14774365945E+03  0.16572654979E+03  0.00000000000E+00 0.  1.
<mgrwt>
<rscale>  0 0.23485745E+04</rscale>
<asrwt>0</asrwt>
<pdfrwt beam="1">  1        1 0.38007726E+00 0.23485745E+04</pdfrwt>
<pdfrwt beam="2">  1       -1 0.85871710E-01 0.23485745E+04</pdfrwt>
<totfact> 0.17112908E+00</totfact>
</mgrwt>
</event>
<event>
12    1  0.1549527E-007  0.1417367E+04  0.7818608E-02  0.8941343E-01
          2   -1    0    0  501    0  0.00000000000E+00  0.00000000000E+00  0.13907396129E+04  0.13907396129E+04  0.00000000000E+00 0. -1.
         -2   -1    0    0    0  501 -0.00000000000E+00 -0.00000000000E+00 -0.36112594701E+03  0.36112594701E+03  0.00000000000E+00 0.  1.
         23    2    1    2    0    0  0.21236647337E+03  0.31363164133E+03  0.52520443817E+03  0.65386798465E+03  0.90770667150E+02 0.  0.
        254    2    1    2    0    0 -0.21236647337E+03 -0.31363164133E+03  0.50440922773E+03  0.10979975753E+04  0.89872447438E+03 0.  0.
        -24    2    4    4    0    0 -0.12222041862E+03  0.30814581897E+03  0.15327838899E+03  0.37383057170E+03  0.79770642038E+02 0.  0.
         24    2    4    4    0    0 -0.90146054744E+02 -0.62177746030E+03  0.35113083874E+03  0.72416700358E+03  0.79946618668E+02 0.  0.
         11    1    3    3    0    0  0.96106941598E+02  0.12589673643E+03  0.14794819843E+03  0.21673763376E+03  0.00000000000E+00 0. -1.
        -11    1    3    3    0    0  0.11625953177E+03  0.18773490490E+03  0.37725623974E+03  0.43713035089E+03  0.00000000000E+00 0.  1.
          2    1    6    6  502    0 -0.16906173766E+02 -0.39178718672E+02  0.60709987323E+01  0.43100437745E+02  0.00000000000E+00 0. -1.
          3    1    5    5  503    0  0.11317408790E+02  0.16899784505E+02  0.12439495675E+02  0.23841717864E+02  0.00000000000E+00 0. -1.
         -4    1    5    5    0  503 -0.13353782741E+03  0.29124603446E+03  0.14083889332E+03  0.34998885384E+03  0.00000000000E+00 0.  1.
         -1    1    6    6    0  502 -0.73239880978E+02 -0.58259874162E+03  0.34505984001E+03  0.68106656583E+03  0.00000000000E+00 0.  1.
<mgrwt>
<rscale>  0 0.14173668E+04</rscale>
<asrwt>0</asrwt>
<pdfrwt beam="1">  1        2 0.21395994E+00 0.14173668E+04</pdfrwt>
<pdfrwt beam="2">  1       -2 0.55557839E-01 0.14173668E+04</pdfrwt>
<totfact> 0.43343266E+01</totfact>
</mgrwt>
</event>
<event>
12    1  0.1549527E-007  0.1470972E+04  0.7818608E-02  0.8903989E-01
          1   -1    0    0  501    0  0.00000000000E+00  0.00000000000E+00  0.96007382433E+03  0.96007382433E+03  0.00000000000E+00 0. -1.
         -1   -1    0    0    0  501 -0.00000000000E+00 -0.00000000000E+00 -0.56343564349E+03  0.56343564349E+03  0.00000000000E+00 0.  1.
         23    2    1    2    0    0  0.27734836534E+03  0.57919409706E+02  0.48869977804E+03  0.57217674390E+03  0.91005381289E+02 0.  0.
        254    2    1    2    0    0 -0.27734836534E+03 -0.57919409706E+02 -0.92061597201E+02  0.95133272393E+03  0.90348317094E+03 0.  0.
        -24    2    4    4    0    0  0.16399399602E+03 -0.22371405966E+03  0.23454586011E+03  0.37228230652E+03  0.81488306102E+02 0.  0.
         24    2    4    4    0    0 -0.44134236136E+03  0.16579464995E+03 -0.32660745731E+03  0.57905041741E+03  0.79724581209E+02 0.  0.
         11    1    3    3    0    0  0.20117619321E+03  0.29446202951E+01  0.29750805881E+03  0.35915397333E+03  0.00000000000E+00 0. -1.
        -11    1    3    3    0    0  0.76172172132E+02  0.54974789411E+02  0.19119171923E+03  0.21302277056E+03  0.00000000000E+00 0.  1.
          2    1    6    6  502    0 -0.11274254901E+03  0.61991635628E+02 -0.53484589066E+02  0.13933573308E+03  0.00000000000E+00 0. -1.
          1    1    5    5  503    0  0.70141649682E+02 -0.74648087640E+02  0.40336495851E+02  0.11008733309E+03  0.00000000000E+00 0. -1.
         -2    1    5    5    0  503  0.93852346342E+02 -0.14906597202E+03  0.19420936426E+03  0.26219497343E+03  0.00000000000E+00 0.  1.
         -1    1    6    6    0  502 -0.32859981236E+03  0.10380301433E+03 -0.27312286824E+03  0.43971468434E+03  0.00000000000E+00 0.  1.
<mgrwt>
<rscale>  0 0.14709722E+04</rscale>
<asrwt>0</asrwt>
<pdfrwt beam="1">  1        1 0.14770366E+00 0.14709722E+04</pdfrwt>
<pdfrwt beam="2">  1       -1 0.86682407E-01 0.14709722E+04</pdfrwt>
<totfact> 0.20701847E+01</totfact>
</mgrwt>
</event>
<event>
12    1  0.1549527E-007  0.1590443E+04  0.7818608E-02  0.8826441E-01
         -1   -1    0    0    0  501 -0.00000000000E+00  0.00000000000E+00  0.35010433679E+03  0.35010433679E+03  0.00000000000E+00 0.  1.
          1   -1    0    0  501    0  0.00000000000E+00 -0.00000000000E+00 -0.18062537595E+04  0.18062537595E+04  0.00000000000E+00 0. -1.
         23    2    1    2    0    0 -0.28334888681E+02  0.76349534322E+01 -0.12272107375E+04  0.12308635199E+04  0.90098011967E+02 0.  0.
        254    2    1    2    0    0  0.28334888681E+02 -0.76349534322E+01 -0.22893868518E+03  0.92549457644E+03  0.89625115399E+03 0.  0.
        -24    2    4    4    0    0 -0.28489975754E+03  0.41857903722E+02  0.21938247373E+03  0.37052337645E+03  0.78987003736E+02 0.  0.
         24    2    4    4    0    0  0.31323464622E+03 -0.49492857155E+02 -0.44832115891E+03  0.55497120000E+03  0.80222719938E+02 0.  0.
         13    1    3    3    0    0 -0.33474563833E+02 -0.36845283706E+02 -0.60606999807E+03  0.60811097993E+03  0.00000000000E+00 0.  1.
        -13    1    3    3    0    0  0.51396751521E+01  0.44480237139E+02 -0.62114073947E+03  0.62275253993E+03  0.00000000000E+00 0. -1.
          4    1    6    6  502    0  0.18225470353E+03 -0.32770001112E+02 -0.19265403539E+03  0.26721943658E+03  0.00000000000E+00 0. -1.
          1    1    5    5  503    0 -0.68920892679E+02  0.44551258868E+02  0.70465861637E+02  0.10816811809E+03  0.00000000000E+00 0. -1.
         -2    1    5    5    0  503 -0.21597886486E+03 -0.26933551453E+01  0.14891661210E+03  0.26235525836E+03  0.00000000000E+00 0.  1.
         -3    1    6    6    0  502  0.13097994269E+03 -0.16722856042E+02 -0.25566712352E+03  0.28775176341E+03  0.00000000000E+00 0.  1.
<mgrwt>
<rscale>  0 0.15904431E+04</rscale>
<asrwt>0</asrwt>
<pdfrwt beam="1">  1        1 0.27788520E+00 0.15904431E+04</pdfrwt>
<pdfrwt beam="2">  1       -1 0.53862205E-01 0.15904431E+04</pdfrwt>
<totfact> 0.13480913E+01</totfact>
</mgrwt>
</event>
<event>
12    1  0.1549527E-007  0.2081702E+04  0.7818608E-02  0.8569347E-01
         -2   -1    0    0    0  501 -0.00000000000E+00  0.00000000000E+00  0.19668779571E+04  0.19668779571E+04  0.00000000000E+00 0.  1.
          2   -1    0    0  501    0  0.00000000000E+00 -0.00000000000E+00 -0.55080730494E+03  0.55080730494E+03  0.00000000000E+00 0. -1.
         23    2    1    2    0    0 -0.25851806698E+03  0.66606794452E+03  0.11024292638E+04  0.13169177501E+04  0.91891138314E+02 0.  0.
        254    2    1    2    0    0  0.25851806698E+03 -0.66606794452E+03  0.31364138834E+03  0.12007675119E+04  0.91268483027E+03 0.  0.
        -24    2    4    4    0    0 -0.29239087924E+03 -0.13979685306E+02  0.88592525134E+02  0.31417441416E+03  0.71896238683E+02 0.  0.
         24    2    4    4    0    0  0.55090894622E+03 -0.65208825921E+03  0.22504886320E+03  0.88659309771E+03  0.81734724932E+02 0.  0.
         13    1    3    3    0    0 -0.22294468960E+03  0.47969322952E+03  0.84951915642E+03  0.10007460848E+04  0.00000000000E+00 0.  1.
        -13    1    3    3    0    0 -0.35573377378E+02  0.18637471500E+03  0.25291010737E+03  0.31617166537E+03  0.00000000000E+00 0. -1.
          2    1    6    6  502    0  0.54378733524E+03 -0.63347386854E+03  0.20804086644E+03  0.86039224206E+03  0.00000000000E+00 0. -1.
          3    1    5    5  503    0 -0.17663716015E+03  0.20617592579E+02  0.31716523740E+02  0.18064249042E+03  0.00000000000E+00 0. -1.
         -4    1    5    5    0  503 -0.11575371909E+03 -0.34597277885E+02  0.56876001394E+02  0.13353192373E+03  0.00000000000E+00 0.  1.
         -1    1    6    6    0  502  0.71216109810E+01 -0.18614390665E+02  0.17007996766E+02  0.26200855650E+02  0.00000000000E+00 0.  1.
<mgrwt>
<rscale>  0 0.20817019E+04</rscale>
<asrwt>0</asrwt>
<pdfrwt beam="1">  1        2 0.84739586E-01 0.20817019E+04</pdfrwt>
<pdfrwt beam="2">  1       -2 0.30259661E+00 0.20817019E+04</pdfrwt>
<totfact> 0.15554699E+00</totfact>
</mgrwt>
</event>
<event>
12    1  0.1549527E-007  0.1978458E+04  0.7818608E-02  0.8616759E-01
         -1   -1    0    0    0  501 -0.00000000000E+00  0.00000000000E+00  0.60846886989E+03  0.60846886989E+03  0.00000000000E+00 0.  1.
          1   -1    0    0  501    0  0.00000000000E+00 -0.00000000000E+00 -0.16082572915E+04  0.16082572915E+04  0.00000000000E+00 0. -1.
         23    2    1    2    0    0 -0.23050501612E+03  0.71871033348E+03 -0.53198758136E+03  0.92818624125E+03  0.94030876911E+02 0.  0.
        254    2    1    2    0    0  0.23050501612E+03 -0.71871033348E+03 -0.46780084026E+03  0.12885399201E+04  0.93371322886E+03 0.  0.
        -24    2    4    4    0    0 -0.21459989521E+03 -0.42559660664E+03  0.11267262336E+03  0.49651585677E+03  0.81530910483E+02 0.  0.
         24    2    4    4    0    0  0.44510491132E+03 -0.29311372685E+03 -0.58047346363E+03  0.79202406338E+03  0.79489848684E+02 0.  0.
         11    1    3    3    0    0 -0.21076100367E+03  0.68761628849E+03 -0.48072171028E+03  0.86506053175E+03  0.00000000000E+00 0.  1.
        -11    1    3    3    0    0 -0.19744012446E+02  0.31094044993E+02 -0.51265871083E+02  0.63125709496E+02  0.00000000000E+00 0. -1.
          2    1    6    6  502    0  0.62335193588E+01 -0.22040945990E+02 -0.27870456785E+02  0.36075232849E+02  0.00000000000E+00 0. -1.
          1    1    5    5  503    0 -0.11756899284E+03 -0.30360318980E+03  0.97734145027E+02  0.33992547424E+03  0.00000000000E+00 0. -1.
         -2    1    5    5    0  503 -0.97030902361E+02 -0.12199341683E+03  0.14938478338E+02  0.15659038252E+03  0.00000000000E+00 0.  1.
         -1    1    6    6    0  502  0.43887139196E+03 -0.27107278086E+03 -0.55260300684E+03  0.75594883053E+03  0.00000000000E+00 0.  1.
<mgrwt>
<rscale>  0 0.19784585E+04</rscale>
<asrwt>0</asrwt>
<pdfrwt beam="1">  1        1 0.24742420E+00 0.19784585E+04</pdfrwt>
<pdfrwt beam="2">  1       -1 0.93610596E-01 0.19784585E+04</pdfrwt>
<totfact> 0.56646495E+00</totfact>
</mgrwt>
</event>
<event>
12    1  0.1549527E-007  0.1011637E+04  0.7818608E-02  0.9295873E-01
          2   -1    0    0  501    0  0.00000000000E+00  0.00000000000E+00  0.19636626203E+04  0.19636626203E+04  0.00000000000E+00 0. -1.
         -2   -1    0    0    0  501 -0.00000000000E+00 -0.00000000000E+00 -0.13029339982E+03  0.13029339982E+03  0.00000000000E+00 0.  1.
         23    2    1    2    0    0 -0.69634049806E+02  0.22737873046E+02  0.28905940632E+03  0.31191558781E+03  0.91488150974E+02 0.  0.
        254    2    1    2    0    0  0.69634049806E+02 -0.22737873046E+02  0.15443098142E+04  0.17820404324E+04  0.88623325857E+03 0.  0.
        -24    2    4    4    0    0 -0.13330133940E+03 -0.40599764509E+03  0.61769152589E+03  0.75533265039E+03  0.79882768384E+02 0.  0.
         24    2    4    4    0    0  0.20293538921E+03  0.38325977204E+03  0.92661828830E+03  0.10267077820E+04  0.86235678700E+02 0.  0.
         11    1    3    3    0    0 -0.56061679660E+02  0.41530347016E+02  0.10292486626E+03  0.12434311297E+03  0.00000000000E+00 0.  1.
        -11    1    3    3    0    0 -0.13572370146E+02 -0.18792473970E+02  0.18613454007E+03  0.18757247483E+03  0.00000000000E+00 0. -1.
          2    1    6    6  502    0  0.18266007816E+02  0.87735943762E+02  0.25087813925E+03  0.26640398575E+03  0.00000000000E+00 0. -1.
          3    1    5    5  503    0 -0.24249428757E+02 -0.18848551517E+03  0.30080491522E+03  0.35580671894E+03  0.00000000000E+00 0. -1.
         -4    1    5    5    0  503 -0.10905191065E+03 -0.21751212992E+03  0.31688661067E+03  0.39952593145E+03  0.00000000000E+00 0.  1.
         -1    1    6    6    0  502  0.18466938139E+03  0.29552382828E+03  0.67574014905E+03  0.76030379622E+03  0.00000000000E+00 0.  1.
<mgrwt>
<rscale>  0 0.10116368E+04</rscale>
<asrwt>0</asrwt>
<pdfrwt beam="1">  1        2 0.30210192E+00 0.10116368E+04</pdfrwt>
<pdfrwt beam="2">  1       -2 0.20045140E-01 0.10116368E+04</pdfrwt>
<totfact> 0.14914031E+02</totfact>
</mgrwt>
</event>
<event>
12    1  0.1549527E-007  0.1863666E+04  0.7818608E-02  0.8673157E-01
          2   -1    0    0  501    0  0.00000000000E+00  0.00000000000E+00  0.47472800070E+04  0.47472800070E+04  0.00000000000E+00 0. -1.
         -2   -1    0    0    0  501 -0.00000000000E+00 -0.00000000000E+00 -0.18290737183E+03  0.18290737183E+03  0.00000000000E+00 0.  1.
         23    2    1    2    0    0 -0.46498655216E+03  0.51521343770E+03  0.19617239660E+04  0.20828260219E+04  0.90254853284E+02 0.  0.
        254    2    1    2    0    0  0.46498655216E+03 -0.51521343770E+03  0.26026486691E+04  0.28473613569E+04  0.92305428975E+03 0.  0.
        -24    2    4    4    0    0  0.51581524517E+03 -0.62931065887E+03  0.12959313705E+04  0.15322995499E+04  0.80040745438E+02 0.  0.
         24    2    4    4    0    0 -0.50828693009E+02  0.11409722117E+03  0.13067172986E+04  0.13150618070E+04  0.79219479502E+02 0.  0.
         13    1    3    3    0    0 -0.46668303651E+03  0.51417496940E+03  0.19615509498E+04  0.20808294222E+04  0.00000000000E+00 0. -1.
        -13    1    3    3    0    0  0.16964843438E+01  0.10384682957E+01  0.17301618920E+00  0.19965996423E+01  0.00000000000E+00 0.  1.
          4    1    6    6  502    0 -0.36851721118E+02  0.70431790568E+02  0.11192638614E+04  0.11220830085E+04  0.00000000000E+00 0. -1.
          3    1    5    5  503    0  0.46019756006E+03 -0.58086516043E+03  0.11384555468E+04  0.13584061105E+04  0.00000000000E+00 0. -1.
         -4    1    5    5    0  503  0.55617685115E+02 -0.48445498440E+02  0.15747582373E+03  0.17389343943E+03  0.00000000000E+00 0.  1.
         -3    1    6    6    0  502 -0.13976971891E+02  0.43665430604E+02  0.18745343719E+03  0.19297879855E+03  0.00000000000E+00 0.  1.
<mgrwt>
<rscale>  0 0.18636658E+04</rscale>
<asrwt>0</asrwt>
<pdfrwt beam="1">  1        2 0.73035068E+00 0.18636658E+04</pdfrwt>
<pdfrwt beam="2">  1       -2 0.28139599E-01 0.18636658E+04</pdfrwt>
<totfact> 0.75834551E-01</totfact>
</mgrwt>
</event>
<event>
12    1  0.1549527E-007  0.1613319E+04  0.7818608E-02  0.8812407E-01
          1   -1    0    0  501    0  0.00000000000E+00  0.00000000000E+00  0.21113115135E+03  0.21113115135E+03  0.00000000000E+00 0. -1.
         -1   -1    0    0    0  501 -0.00000000000E+00 -0.00000000000E+00 -0.30819696313E+04  0.30819696313E+04  0.00000000000E+00 0.  1.
         23    2    1    2    0    0 -0.22578615382E+03  0.21086025097E+03 -0.19113755751E+04  0.19383436320E+04  0.91531490691E+02 0.  0.
        254    2    1    2    0    0  0.22578615382E+03 -0.21086025097E+03 -0.95946290485E+03  0.13547571507E+04  0.90518309686E+03 0.  0.
        -24    2    4    4    0    0 -0.21607858874E+03 -0.32985395675E+03 -0.73585832779E+03  0.83924277682E+03  0.85716804560E+02 0.  0.
         24    2    4    4    0    0  0.44186474256E+03  0.11899370578E+03 -0.22360457706E+03  0.51551437386E+03  0.79700125718E+02 0.  0.
         13    1    3    3    0    0 -0.11947526647E+03  0.55893093982E+02 -0.67496390920E+03  0.68773152899E+03  0.00000000000E+00 0. -1.
        -13    1    3    3    0    0 -0.10631088735E+03  0.15496715699E+03 -0.12364116659E+04  0.12506121030E+04  0.00000000000E+00 0.  1.
          4    1    6    6  502    0  0.25867076226E+03  0.88393886870E+02 -0.94139293937E+02  0.28911286576E+03  0.00000000000E+00 0. -1.
          3    1    5    5  503    0 -0.12888496027E+03 -0.26374493333E+03 -0.51588153299E+03  0.59355410783E+03  0.00000000000E+00 0. -1.
         -4    1    5    5    0  503 -0.87193628471E+02 -0.66109023417E+02 -0.21997679480E+03  0.24568866900E+03  0.00000000000E+00 0.  1.
         -3    1    6    6    0  502  0.18319398030E+03  0.30599818910E+02 -0.12946528313E+03  0.22640150810E+03  0.00000000000E+00 0.  1.
<mgrwt>
<rscale>  0 0.16133193E+04</rscale>
<asrwt>0</asrwt>
<pdfrwt beam="1">  1        1 0.32481716E-01 0.16133193E+04</pdfrwt>
<pdfrwt beam="2">  1       -1 0.47414916E+00 0.16133193E+04</pdfrwt>
<totfact> 0.29452711E-01</totfact>
</mgrwt>
</event>
<event>
12    1  0.1549527E-007  0.1598677E+04  0.7818608E-02  0.8821361E-01
         -2   -1    0    0    0  501 -0.00000000000E+00  0.00000000000E+00  0.25050108615E+04  0.25050108615E+04  0.00000000000E+00 0. -1.
          2   -1    0    0  501    0  0.00000000000E+00 -0.00000000000E+00 -0.25506565791E+03  0.25506565791E+03  0.00000000000E+00 0.  1.
         23    2    1    2    0    0 -0.14095073554E+02  0.64210853825E+02  0.16259872386E+04  0.16301512285E+04  0.96108391245E+02 0.  0.
        254    2    1    2    0    0  0.14095073554E+02 -0.64210853825E+02  0.62395796499E+03  0.11299252909E+04  0.93972651133E+03 0.  0.
        -24    2    4    4    0    0 -0.29921472184E+03 -0.25544512795E+03 -0.20480711191E+00  0.40151336901E+03  0.80195264131E+02 0.  0.
         24    2    4    4    0    0  0.31330979539E+03  0.19123427413E+03  0.62416277210E+03  0.72841192189E+03  0.79190822534E+02 0.  0.
         11    1    3    3    0    0 -0.45282786614E+02  0.52928001385E+02  0.14012197077E+04  0.14029499540E+04  0.00000000000E+00 0. -1.
        -11    1    3    3    0    0  0.31187713060E+02  0.11282852441E+02  0.22476753088E+03  0.22720127452E+03  0.00000000000E+00 0.  1.
          4    1    6    6  502    0  0.14523192124E+02 -0.32821772736E+01  0.89893819654E+01  0.17392664696E+02  0.00000000000E+00 0. -1.
          3    1    5    5  503    0 -0.16653156421E+00  0.18762911324E+01  0.66751014832E+01  0.69357898603E+01  0.00000000000E+00 0. -1.
         -4    1    5    5    0  503 -0.29904819028E+03 -0.25732141909E+03 -0.68799085951E+01  0.39457757915E+03  0.00000000000E+00 0.  1.
         -3    1    6    6    0  502  0.29878660327E+03  0.19451645140E+03  0.61517339014E+03  0.71101925719E+03  0.00000000000E+00 0.  1.
<mgrwt>
<rscale>  0 0.15986773E+04</rscale>
<asrwt>0</asrwt>
<pdfrwt beam="1">  1        2 0.39240872E-01 0.15986773E+04</pdfrwt>
<pdfrwt beam="2">  1       -2 0.38538627E+00 0.15986773E+04</pdfrwt>
<totfact> 0.11747382E+00</totfact>
</mgrwt>
</event>
<event>
12    1  0.1549527E-007  0.1550267E+04  0.7818608E-02  0.8851697E-01
         -1   -1    0    0    0  501 -0.00000000000E+00  0.00000000000E+00  0.69336585858E+03  0.69336585858E+03  0.00000000000E+00 0.  1.
          1   -1    0    0  501    0  0.00000000000E+00 -0.00000000000E+00 -0.86654432715E+03  0.86654432715E+03  0.00000000000E+00 0. -1.
         23    2    1    2    0    0  0.74185568766E+02 -0.64655621176E+02 -0.55997515047E+03  0.57596892964E+03  0.92109667217E+02 0.  0.
        254    2    1    2    0    0 -0.74185568766E+02  0.64655621176E+02  0.38679668190E+03  0.98394125610E+03  0.89935803458E+03 0.  0.
        -24    2    4    4    0    0  0.18314631046E+03  0.23988012434E+03  0.54316623592E+03  0.62648511446E+03  0.79805975417E+02 0.  0.
         24    2    4    4    0    0 -0.25733187922E+03 -0.17522450316E+03 -0.15636955402E+03  0.35745614164E+03  0.80000832474E+02 0.  0.
         11    1    3    3    0    0  0.37573189848E+02 -0.34313705167E+02 -0.48171637618E+03  0.48439636873E+03  0.00000000000E+00 0. -1.
        -11    1    3    3    0    0  0.36612378919E+02 -0.30341916009E+02 -0.78258774296E+02  0.91572560909E+02  0.00000000000E+00 0.  1.
          2    1    6    6  502    0 -0.19468951979E+03 -0.14947366615E+03 -0.15384532841E+03  0.28968046372E+03  0.00000000000E+00 0. -1.
          3    1    5    5  503    0  0.17416940261E+03  0.19241293959E+03  0.41449035522E+03  0.48903984980E+03  0.00000000000E+00 0. -1.
         -4    1    5    5    0  503  0.89769078453E+01  0.47467184751E+02  0.12867588070E+03  0.13744526466E+03  0.00000000000E+00 0.  1.
         -3    1    6    6    0  502 -0.62642359431E+02 -0.25750837008E+02 -0.25242256139E+01  0.67775677914E+02  0.00000000000E+00 0.  1.
<mgrwt>
<rscale>  0 0.15502674E+04</rscale>
<asrwt>0</asrwt>
<pdfrwt beam="1">  1        1 0.13331451E+00 0.15502674E+04</pdfrwt>
<pdfrwt beam="2">  1       -1 0.10667167E+00 0.15502674E+04</pdfrwt>
<totfact> 0.15337160E+01</totfact>
</mgrwt>
</event>
<event>
12    1  0.1549527E-007  0.2032664E+04  0.7818608E-02  0.8591500E-01
         -1   -1    0    0    0  501 -0.00000000000E+00  0.00000000000E+00  0.45815800862E+03  0.45815800862E+03  0.00000000000E+00 0.  1.
          1   -1    0    0  501    0  0.00000000000E+00 -0.00000000000E+00 -0.22545292029E+04  0.22545292029E+04  0.00000000000E+00 0. -1.
         23    2    1    2    0    0  0.23487041834E+03  0.15478115168E+03  0.29843534834E+03  0.42016997900E+03  0.91421199921E+02 0.  0.
        254    2    1    2    0    0 -0.23487041834E+03 -0.15478115168E+03 -0.20948065427E+04  0.22925172325E+04  0.88786231595E+03 0.  0.
        -24    2    4    4    0    0 -0.12815636036E+02 -0.15003049054E+03  0.11812809697E+02  0.17273160768E+03  0.83804995072E+02 0.  0.
         24    2    4    4    0    0 -0.22205478230E+03 -0.47506611324E+01 -0.21066193523E+04  0.21197856249E+04  0.79467632392E+02 0.  0.
         11    1    3    3    0    0  0.16881620312E+03  0.79721111528E+02  0.14220591736E+03  0.23468465861E+03  0.00000000000E+00 0. -1.
        -11    1    3    3    0    0  0.66054215222E+02  0.75060040147E+02  0.15622943098E+03  0.18548532039E+03  0.00000000000E+00 0.  1.
          2    1    6    6  502    0 -0.73936990376E+02 -0.37305814408E+02 -0.85906560745E+03  0.86304815638E+03  0.00000000000E+00 0. -1.
          3    1    5    5  503    0 -0.28583277601E+02 -0.37726749046E+02 -0.24964433682E+02  0.53512001467E+02  0.00000000000E+00 0. -1.
         -4    1    5    5    0  503  0.15767641565E+02 -0.11230374150E+03  0.36777243379E+02  0.11921960621E+03  0.00000000000E+00 0.  1.
         -1    1    6    6    0  502 -0.14811779193E+03  0.32555153275E+02 -0.12475537449E+04  0.12567374685E+04  0.00000000000E+00 0.  1.
<mgrwt>
<rscale>  0 0.20326639E+04</rscale>
<asrwt>0</asrwt>
<pdfrwt beam="1">  1        1 0.34685065E+00 0.20326639E+04</pdfrwt>
<pdfrwt beam="2">  1       -1 0.70485847E-01 0.20326639E+04</pdfrwt>
<totfact> 0.37624679E+00</totfact>
</mgrwt>
</event>
<event>
12    1  0.1549527E-007  0.2529004E+04  0.7818608E-02  0.8392725E-01
         -2   -1    0    0    0  501 -0.00000000000E+00  0.00000000000E+00  0.21677303560E+04  0.21677303560E+04  0.00000000000E+00 0.  1.
          2   -1    0    0  501    0  0.00000000000E+00 -0.00000000000E+00 -0.73762172470E+03  0.73762172470E+03  0.00000000000E+00 0. -1.
         23    2    1    2    0    0  0.45995147617E+03  0.99469405565E+03  0.76147112131E+03  0.13372221795E+04  0.85751175485E+02 0.  0.
        254    2    1    2    0    0 -0.45995147617E+03 -0.99469405565E+03  0.66863751000E+03  0.15681299012E+04  0.90054630221E+03 0.  0.
        -24    2    4    4    0    0  0.15699748208E+03  0.45521435376E+01  0.27527708574E+03  0.32699911268E+03  0.80510958072E+02 0.  0.
         24    2    4    4    0    0 -0.61694895825E+03 -0.99924619919E+03  0.39336042427E+03  0.12411307885E+04  0.80958181251E+02 0.  0.
         13    1    3    3    0    0  0.25913481721E+03  0.50589295758E+03  0.43861463035E+03  0.71795635799E+03  0.00000000000E+00 0.  1.
        -13    1    3    3    0    0  0.20081665896E+03  0.48880109807E+03  0.32285649095E+03  0.61926582155E+03  0.00000000000E+00 0. -1.
          4    1    6    6  502    0 -0.57276619602E+03 -0.92772619165E+03  0.38655322518E+03  0.11567888303E+04  0.00000000000E+00 0. -1.
          3    1    5    5  503    0  0.29006172650E+02  0.20213964036E+02  0.12032903963E+03  0.12541547023E+03  0.00000000000E+00 0. -1.
         -4    1    5    5    0  503  0.12799130943E+03 -0.15661820499E+02  0.15494804610E+03  0.20158364245E+03  0.00000000000E+00 0.  1.
         -3    1    6    6    0  502 -0.44182762228E+02 -0.71520007538E+02  0.68071990889E+01  0.84341958216E+02  0.00000000000E+00 0.  1.
<mgrwt>
<rscale>  0 0.25290038E+04</rscale>
<asrwt>0</asrwt>
<pdfrwt beam="1">  1        2 0.11348027E+00 0.25290038E+04</pdfrwt>
<pdfrwt beam="2">  1       -2 0.33349698E+00 0.25290038E+04</pdfrwt>
<totfact> 0.67336912E-01</totfact>
</mgrwt>
</event>
<event>
12    1  0.1549527E-007  0.1463421E+04  0.7818608E-02  0.8909149E-01
          1   -1    0    0  501    0  0.00000000000E+00  0.00000000000E+00  0.19890872130E+04  0.19890872130E+04  0.00000000000E+00 0. -1.
         -1   -1    0    0    0  501 -0.00000000000E+00 -0.00000000000E+00 -0.26916878179E+03  0.26916878179E+03  0.00000000000E+00 0.  1.
         23    2    1    2    0    0  0.16708413531E+03  0.69021546726E+02 -0.97127061870E+02  0.22359412881E+03  0.88767032766E+02 0.  0.
        254    2    1    2    0    0 -0.16708413531E+03 -0.69021546726E+02  0.18170454931E+04  0.20346618660E+04  0.89750404055E+03 0.  0.
        -24    2    4    4    0    0 -0.34067854808E+03  0.32265253378E+03  0.87103142715E+03  0.99280985547E+03  0.82517460906E+02 0.  0.
         24    2    4    4    0    0  0.17359441278E+03 -0.39167408050E+03  0.94601406592E+03  0.10418520105E+04  0.83482892869E+02 0.  0.
         13    1    3    3    0    0  0.12928053880E+03  0.37846044580E+02 -0.25952915609E+02  0.13718358004E+03  0.00000000000E+00 0.  1.
        -13    1    3    3    0    0  0.37803596505E+02  0.31175502147E+02 -0.71174146261E+02  0.86410548771E+02  0.00000000000E+00 0. -1.
          2    1    6    6  502    0  0.17952543921E+03 -0.36431186464E+03  0.90749125560E+03  0.99422980092E+03  0.00000000000E+00 0. -1.
          1    1    5    5  503    0 -0.15454291691E+03  0.12855725109E+03  0.45500972000E+03  0.49743776019E+03  0.00000000000E+00 0. -1.
         -2    1    5    5    0  503 -0.18613563118E+03  0.19409528269E+03  0.41602170716E+03  0.49537209528E+03  0.00000000000E+00 0.  1.
         -1    1    6    6    0  502 -0.59310264354E+01 -0.27362215866E+02  0.38522810316E+02  0.47622209591E+02  0.00000000000E+00 0.  1.
<mgrwt>
<rscale>  0 0.14634209E+04</rscale>
<asrwt>0</asrwt>
<pdfrwt beam="1">  1        1 0.30601341E+00 0.14634209E+04</pdfrwt>
<pdfrwt beam="2">  1       -1 0.41410583E-01 0.14634209E+04</pdfrwt>
<totfact> 0.16818755E+01</totfact>
</mgrwt>
</event>
<event>
12    1  0.1549527E-007  0.1770883E+04  0.7818608E-02  0.8721939E-01
          1   -1    0    0  501    0  0.00000000000E+00  0.00000000000E+00  0.19259519126E+04  0.19259519126E+04  0.00000000000E+00 0. -1.
         -1   -1    0    0    0  501 -0.00000000000E+00 -0.00000000000E+00 -0.40707471444E+03  0.40707471444E+03  0.00000000000E+00 0.  1.
         23    2    1    2    0    0  0.25616001888E+03  0.32813159711E+03 -0.99472282868E+02  0.43729415920E+03  0.89683589988E+02 0.  0.
        254    2    1    2    0    0 -0.25616001888E+03 -0.32813159711E+03  0.16183494810E+04  0.18957324678E+04  0.89524200445E+03 0.  0.
        -24    2    4    4    0    0  0.30946866844E+03 -0.19142301860E+03  0.42099523034E+03  0.56188141403E+03  0.77846712627E+02 0.  0.
         24    2    4    4    0    0 -0.56562868732E+03 -0.13670857851E+03  0.11973542506E+04  0.13338510538E+04  0.82923969537E+02 0.  0.
         13    1    3    3    0    0  0.24073196136E+03  0.28961968995E+03 -0.62565753820E+02  0.38176683405E+03  0.00000000000E+00 0.  1.
        -13    1    3    3    0    0  0.15428057522E+02  0.38511907162E+02 -0.36906529048E+02  0.55527325152E+02  0.00000000000E+00 0. -1.
          4    1    6    6  502    0 -0.52576045010E+03 -0.10401008711E+03  0.10801026244E+04  0.12057627579E+04  0.00000000000E+00 0. -1.
          1    1    5    5  503    0  0.22616851216E+03 -0.17745346814E+03  0.31791384132E+03  0.42861537508E+03  0.00000000000E+00 0. -1.
         -2    1    5    5    0  503  0.83300156282E+02 -0.13969550460E+02  0.10308138902E+03  0.13326603895E+03  0.00000000000E+00 0.  1.
         -3    1    6    6    0  502 -0.39868237216E+02 -0.32698491395E+02  0.11725162623E+03  0.12808829584E+03  0.00000000000E+00 0.  1.
<mgrwt>
<rscale>  0 0.17708826E+04</rscale>
<asrwt>0</asrwt>
<pdfrwt beam="1">  1        1 0.29630029E+00 0.17708826E+04</pdfrwt>
<pdfrwt beam="2">  1       -1 0.62626880E-01 0.17708826E+04</pdfrwt>
<totfact> 0.81848950E+00</totfact>
</mgrwt>
</event>
<event>
12    1  0.1549527E-007  0.1327304E+04  0.7818608E-02  0.9008188E-01
          2   -1    0    0  501    0  0.00000000000E+00  0.00000000000E+00  0.10222042982E+04  0.10222042982E+04  0.00000000000E+00 0. -1.
         -2   -1    0    0    0  501 -0.00000000000E+00 -0.00000000000E+00 -0.43086714235E+03  0.43086714235E+03  0.00000000000E+00 0.  1.
         23    2    1    2    0    0  0.78007102338E+02  0.67354125231E+01  0.53886030820E+03  0.55223667141E+03  0.92002367914E+02 0.  0.
        254    2    1    2    0    0 -0.78007102338E+02 -0.67354125231E+01  0.52476847654E+02  0.90083476914E+03  0.89589005349E+03 0.  0.
        -24    2    4    4    0    0 -0.68693148989E+02  0.18431015646E+02  0.46722639703E+03  0.47798278479E+03  0.71474369007E+02 0.  0.
         24    2    4    4    0    0 -0.93139533491E+01 -0.25166428169E+02 -0.41474954937E+03  0.42285198434E+03  0.77887823977E+02 0.  0.
         11    1    3    3    0    0  0.27281451966E+02 -0.27556298997E+02  0.38018972983E+03  0.38216208329E+03  0.00000000000E+00 0. -1.
        -11    1    3    3    0    0  0.50725650373E+02  0.34291711520E+02  0.15867057836E+03  0.17007458812E+03  0.00000000000E+00 0.  1.
          4    1    6    6  502    0 -0.30592008868E+01 -0.52906379998E+02 -0.23792537945E+03  0.24375588186E+03  0.00000000000E+00 0. -1.
          3    1    5    5  503    0 -0.64186450981E+02  0.80637418877E+01  0.19358530364E+03  0.20410829040E+03  0.00000000000E+00 0. -1.
         -4    1    5    5    0  503 -0.45066980077E+01  0.10367273758E+02  0.27364109338E+03  0.27387449440E+03  0.00000000000E+00 0.  1.
         -3    1    6    6    0  502 -0.62547524623E+01  0.27739951829E+02 -0.17682416992E+03  0.17909610248E+03  0.00000000000E+00 0.  1.
<mgrwt>
<rscale>  0 0.13273044E+04</rscale>
<asrwt>0</asrwt>
<pdfrwt beam="1">  1        2 0.15726220E+00 0.13273044E+04</pdfrwt>
<pdfrwt beam="2">  1       -2 0.66287253E-01 0.13273044E+04</pdfrwt>
<totfact> 0.49918579E+01</totfact>
</mgrwt>
</event>
<event>
12    1  0.1549527E-007  0.1727457E+04  0.7818608E-02  0.8745858E-01
         -1   -1    0    0    0  501 -0.00000000000E+00  0.00000000000E+00  0.34112616010E+03  0.34112616010E+03  0.00000000000E+00 0.  1.
          1   -1    0    0  501    0  0.00000000000E+00 -0.00000000000E+00 -0.21869536964E+04  0.21869536964E+04  0.00000000000E+00 0. -1.
         23    2    1    2    0    0  0.26700828069E+03 -0.26156433306E+03  0.53782746968E+02  0.38851631710E+03  0.91340147263E+02 0.  0.
        254    2    1    2    0    0 -0.26700828069E+03  0.26156433306E+03 -0.18996102832E+04  0.21395635394E+04  0.91077087598E+03 0.  0.
        -24    2    4    4    0    0 -0.43658391247E+02  0.39705130707E+03 -0.27396496600E+03  0.49108573740E+03  0.80948152011E+02 0.  0.
         24    2    4    4    0    0 -0.22334988944E+03 -0.13548697401E+03 -0.16256453172E+04  0.16484778020E+04  0.80712284580E+02 0.  0.
         11    1    3    3    0    0  0.20961495513E+03 -0.24996211324E+03  0.45976474967E+02  0.32944396143E+03  0.00000000000E+00 0.  1.
        -11    1    3    3    0    0  0.57393325552E+02 -0.11602219819E+02  0.78062720004E+01  0.59072355677E+02  0.00000000000E+00 0. -1.
          4    1    6    6  502    0 -0.19702775544E+03 -0.10288411924E+03 -0.14905988634E+04  0.15070799747E+04  0.00000000000E+00 0. -1.
          1    1    5    5  503    0  0.21033352636E+01  0.89048427708E+02 -0.25302176709E+02  0.92597228050E+02  0.00000000000E+00 0. -1.
         -2    1    5    5    0  503 -0.45761726510E+02  0.30800287936E+03 -0.24866278929E+03  0.39848850935E+03  0.00000000000E+00 0.  1.
         -3    1    6    6    0  502 -0.26322133997E+02 -0.32602854767E+02 -0.13504645383E+03  0.14139782731E+03  0.00000000000E+00 0.  1.
<mgrwt>
<rscale>  0 0.17274572E+04</rscale>
<asrwt>0</asrwt>
<pdfrwt beam="1">  1        1 0.33645442E+00 0.17274572E+04</pdfrwt>
<pdfrwt beam="2">  1       -1 0.52480947E-01 0.17274572E+04</pdfrwt>
<totfact> 0.77273703E+00</totfact>
</mgrwt>
</event>
<event>
12    1  0.1549527E-007  0.1743187E+04  0.7818608E-02  0.8737109E-01
         -2   -1    0    0    0  501 -0.00000000000E+00  0.00000000000E+00  0.33229212986E+03  0.33229212986E+03  0.00000000000E+00 0.  1.
          2   -1    0    0  501    0  0.00000000000E+00 -0.00000000000E+00 -0.22861674042E+04  0.22861674042E+04  0.00000000000E+00 0. -1.
         23    2    1    2    0    0  0.57539585586E+03 -0.54928774101E+02 -0.11485550221E+04  0.12886282227E+04  0.85360976172E+02 0.  0.
        254    2    1    2    0    0 -0.57539585586E+03  0.54928774101E+02 -0.80532025225E+03  0.13298313114E+04  0.88646096757E+03 0.  0.
        -24    2    4    4    0    0  0.13140388961E+03 -0.18600416352E+03 -0.42134363754E+03  0.48547624675E+03  0.79323352223E+02 0.  0.
         24    2    4    4    0    0 -0.70679974547E+03  0.24093293762E+03 -0.38397661471E+03  0.84435506468E+03  0.88785550583E+02 0.  0.
         11    1    3    3    0    0  0.52790287728E+03 -0.49528150683E+02 -0.99029044457E+03  0.11233030091E+04  0.00000000000E+00 0. -1.
        -11    1    3    3    0    0  0.47492978578E+02 -0.54006234177E+01 -0.15826457757E+03  0.16532521362E+03  0.00000000000E+00 0.  1.
          2    1    6    6  502    0 -0.12236567615E+03  0.78994084516E+01 -0.69799475446E+02  0.14109474167E+03  0.00000000000E+00 0. -1.
          1    1    5    5  503    0  0.96483739018E+02 -0.77850824830E+02 -0.26090575169E+03  0.28886272533E+03  0.00000000000E+00 0. -1.
         -2    1    5    5    0  503  0.34920150593E+02 -0.10815333869E+03 -0.16043788586E+03  0.19661352142E+03  0.00000000000E+00 0.  1.
         -1    1    6    6    0  502 -0.58443406932E+03  0.23303352916E+03 -0.31417713926E+03  0.70326032302E+03  0.00000000000E+00 0.  1.
<mgrwt>
<rscale>  0 0.17431872E+04</rscale>
<asrwt>0</asrwt>
<pdfrwt beam="1">  1        2 0.35171806E+00 0.17431872E+04</pdfrwt>
<pdfrwt beam="2">  1       -2 0.51121866E-01 0.17431872E+04</pdfrwt>
<totfact> 0.15840958E+01</totfact>
</mgrwt>
</event>
<event>
12    1  0.1549527E-007  0.1628638E+04  0.7818608E-02  0.8803145E-01
          1   -1    0    0  501    0  0.00000000000E+00  0.00000000000E+00  0.28896304389E+04  0.28896304389E+04  0.00000000000E+00 0. -1.
         -1   -1    0    0    0  501 -0.00000000000E+00 -0.00000000000E+00 -0.22948117060E+03  0.22948117060E+03  0.00000000000E+00 0.  1.
         23    2    1    2    0    0 -0.12487821930E+03 -0.18593982255E+03 -0.51626667268E+02  0.24702278241E+03  0.90480688486E+02 0.  0.
        254    2    1    2    0    0  0.12487821930E+03  0.18593982255E+03  0.27117759356E+04  0.28720888271E+04  0.91923735715E+03 0.  0.
        -24    2    4    4    0    0  0.10195217220E+03  0.34300681933E+03  0.26634886490E+04  0.26886009269E+04  0.79719741914E+02 0.  0.
         24    2    4    4    0    0  0.22926047100E+02 -0.15706699678E+03  0.48287286556E+02  0.18348790019E+03  0.78361357572E+02 0.  0.
         13    1    3    3    0    0 -0.81060214290E+02 -0.51782292186E+02  0.15616385641E+01  0.96200846356E+02  0.00000000000E+00 0. -1.
        -13    1    3    3    0    0 -0.43818005012E+02 -0.13415753036E+03 -0.53188305832E+02  0.15082193605E+03  0.00000000000E+00 0.  1.
          4    1    6    6  502    0  0.48291627822E+02 -0.10339508356E+03  0.48821272567E+02  0.12412147790E+03  0.00000000000E+00 0. -1.
          1    1    5    5  503    0  0.91479292320E+02  0.22150125213E+03  0.19631111060E+04  0.19776846261E+04  0.00000000000E+00 0. -1.
         -4    1    5    5    0  503  0.10472879881E+02  0.12150556720E+03  0.70037754302E+03  0.71091630087E+03  0.00000000000E+00 0.  1.
         -3    1    6    6    0  502 -0.25365580722E+02 -0.53671913224E+02 -0.53398601132E+00  0.59366422290E+02  0.00000000000E+00 0.  1.
<mgrwt>
<rscale>  0 0.16286384E+04</rscale>
<asrwt>0</asrwt>
<pdfrwt beam="1">  1        1 0.44455850E+00 0.16286384E+04</pdfrwt>
<pdfrwt beam="2">  1       -1 0.35304797E-01 0.16286384E+04</pdfrwt>
<totfact> 0.52773552E+00</totfact>
</mgrwt>
</event>
<event>
12    1  0.1549527E-007  0.2878913E+04  0.7818608E-02  0.8279179E-01
          1   -1    0    0  501    0  0.00000000000E+00  0.00000000000E+00  0.20599144095E+04  0.20599144095E+04  0.00000000000E+00 0. -1.
         -1   -1    0    0    0  501 -0.00000000000E+00 -0.00000000000E+00 -0.10058838281E+04  0.10058838281E+04  0.00000000000E+00 0.  1.
         23    2    1    2    0    0 -0.35592780446E+03 -0.57217453570E+03 -0.70977726875E+03  0.98287813140E+03  0.90539210640E+02 0.  0.
        254    2    1    2    0    0  0.35592780446E+03  0.57217453570E+03  0.17638078502E+04  0.20829201062E+04  0.87947128146E+03 0.  0.
        -24    2    4    4    0    0  0.31915140628E+03  0.32944027115E+03  0.21497118427E+03  0.51268524970E+03  0.79025583275E+02 0.  0.
         24    2    4    4    0    0  0.36776398186E+02  0.24273426455E+03  0.15488366660E+04  0.15702348565E+04  0.80436683311E+02 0.  0.
         11    1    3    3    0    0 -0.23703250844E+03 -0.35175746457E+03 -0.50404453423E+03  0.65877053397E+03  0.00000000000E+00 0.  1.
        -11    1    3    3    0    0 -0.11889529602E+03 -0.22041707113E+03 -0.20573273452E+03  0.32410759743E+03  0.00000000000E+00 0. -1.
          2    1    6    6  502    0 -0.99441315274E+01  0.14515104537E+03  0.10311572306E+04  0.10413707053E+04  0.00000000000E+00 0. -1.
          3    1    5    5  503    0  0.18422358776E+03  0.24354306629E+03  0.14655231376E+03  0.33871689667E+03  0.00000000000E+00 0. -1.
         -4    1    5    5    0  503  0.13492781852E+03  0.85897204860E+02  0.68418870510E+02  0.17396835303E+03  0.00000000000E+00 0.  1.
         -1    1    6    6    0  502  0.46720529713E+02  0.97583219176E+02  0.51767943539E+03  0.52886415116E+03  0.00000000000E+00 0.  1.
<mgrwt>
<rscale>  0 0.28789127E+04</rscale>
<asrwt>0</asrwt>
<pdfrwt beam="1">  1        1 0.31690991E+00 0.28789127E+04</pdfrwt>
<pdfrwt beam="2">  1       -1 0.15475136E+00 0.28789127E+04</pdfrwt>
<totfact> 0.74783707E-01</totfact>
</mgrwt>
</event>
<event>
12    1  0.1549527E-007  0.1318326E+04  0.7818608E-02  0.9015157E-01
         -2   -1    0    0    0  501 -0.00000000000E+00  0.00000000000E+00  0.29819386481E+03  0.29819386481E+03  0.00000000000E+00 0.  1.
          2   -1    0    0  501    0  0.00000000000E+00 -0.00000000000E+00 -0.14570916756E+04  0.14570916756E+04  0.00000000000E+00 0. -1.
         23    2    1    2    0    0 -0.29469588126E+03 -0.17774884907E+03 -0.36293062633E+03  0.50862502360E+03  0.92414605608E+02 0.  0.
        254    2    1    2    0    0  0.29469588126E+03  0.17774884907E+03 -0.79596718450E+03  0.12466605168E+04  0.89563294360E+03 0.  0.
        -24    2    4    4    0    0  0.22529971742E+03  0.36472329650E+03 -0.15504183354E+02  0.43766711251E+03  0.86770248351E+02 0.  0.
         24    2    4    4    0    0  0.69396163849E+02 -0.18697444743E+03 -0.78046300115E+03  0.80899340433E+03  0.74649584937E+02 0.  0.
         11    1    3    3    0    0 -0.23084881015E+03 -0.16510766521E+03 -0.24971257160E+03  0.37803185405E+03  0.00000000000E+00 0.  1.
        -11    1    3    3    0    0 -0.63847071116E+02 -0.12641183865E+02 -0.11321805473E+03  0.13059316956E+03  0.00000000000E+00 0. -1.
          2    1    6    6  502    0  0.84255672321E+02 -0.15652811332E+03 -0.68527294176E+03  0.70795414632E+03  0.00000000000E+00 0. -1.
          3    1    5    5  503    0  0.10171046279E+03  0.23532338630E+03  0.11920147787E+02  0.25664022347E+03  0.00000000000E+00 0. -1.
         -4    1    5    5    0  503  0.12358925462E+03  0.12939991020E+03 -0.27424331141E+02  0.18102688904E+03  0.00000000000E+00 0.  1.
         -1    1    6    6    0  502 -0.14859508472E+02 -0.30446334103E+02 -0.95190059390E+02  0.10103925801E+03  0.00000000000E+00 0.  1.
<mgrwt>
<rscale>  0 0.13183259E+04</rscale>
<asrwt>0</asrwt>
<pdfrwt beam="1">  1        2 0.22416795E+00 0.13183259E+04</pdfrwt>
<pdfrwt beam="2">  1       -2 0.45875979E-01 0.13183259E+04</pdfrwt>
<totfact> 0.59191474E+01</totfact>
</mgrwt>
</event>
<event>
12    1  0.1549527E-007  0.3648312E+04  0.7818608E-02  0.8079514E-01
         -2   -1    0    0    0  501 -0.00000000000E+00  0.00000000000E+00  0.25824759323E+04  0.25824759323E+04  0.00000000000E+00 0. -1.
          2   -1    0    0  501    0  0.00000000000E+00 -0.00000000000E+00 -0.12885093671E+04  0.12885093671E+04  0.00000000000E+00 0.  1.
         23    2    1    2    0    0 -0.84500576925E+03 -0.44898565901E+03 -0.89482766836E+03  0.13140039884E+04  0.10132646878E+03 0.  0.
        254    2    1    2    0    0  0.84500576925E+03  0.44898565901E+03  0.21887942336E+04  0.25569813110E+04  0.91198155448E+03 0.  0.
        -24    2    4    4    0    0  0.95196081054E+03  0.35620980320E+03  0.21648753529E+04  0.23928505936E+04  0.77031559069E+02 0.  0.
         24    2    4    4    0    0 -0.10695504130E+03  0.92775855805E+02  0.23918880666E+02  0.16413071735E+03  0.79498674491E+02 0.  0.
         13    1    3    3    0    0 -0.65262960870E+01 -0.72651685306E+01 -0.27998837815E+02  0.29653163970E+02  0.00000000000E+00 0. -1.
        -13    1    3    3    0    0 -0.83847947316E+03 -0.44172049048E+03 -0.86682883055E+03  0.12843508244E+04  0.00000000000E+00 0.  1.
          4    1    6    6  502    0 -0.22213902343E+02  0.65940581829E+02  0.28341118564E+02  0.75132128884E+02  0.00000000000E+00 0. -1.
          3    1    5    5  503    0  0.78014931512E+03  0.26236480573E+03  0.17192629618E+04  0.19061304721E+04  0.00000000000E+00 0. -1.
         -4    1    5    5    0  503  0.17181149542E+03  0.93844997473E+02  0.44561239116E+03  0.48672012149E+03  0.00000000000E+00 0.  1.
         -3    1    6    6    0  502 -0.84741138955E+02  0.26835273977E+02 -0.44222378976E+01  0.88998588465E+02  0.00000000000E+00 0.  1.
<mgrwt>
<rscale>  0 0.36483116E+04</rscale>
<asrwt>0</asrwt>
<pdfrwt beam="1">  1        2 0.19823221E+00 0.36483116E+04</pdfrwt>
<pdfrwt beam="2">  1       -2 0.39730399E+00 0.36483116E+04</pdfrwt>
<totfact> 0.10527474E-01</totfact>
</mgrwt>
</event>
<event>
12    1  0.1549527E-007  0.1588300E+04  0.7818608E-02  0.8827768E-01
          2   -1    0    0  501    0  0.00000000000E+00  0.00000000000E+00  0.57291674573E+03  0.57291674573E+03  0.00000000000E+00 0. -1.
         -2   -1    0    0    0  501 -0.00000000000E+00 -0.00000000000E+00 -0.11008135319E+04  0.11008135319E+04  0.00000000000E+00 0.  1.
         23    2    1    2    0    0 -0.47982821248E+02 -0.50784221430E+03 -0.30896766888E+03  0.60286096896E+03  0.88171773949E+02 0.  0.
        254    2    1    2    0    0  0.47982821248E+02  0.50784221430E+03 -0.21892911727E+03  0.10708693086E+04  0.91576473618E+03 0.  0.
        -24    2    4    4    0    0  0.38843511395E+03  0.64576663945E+02 -0.29878834000E+03  0.50074369036E+03  0.80111098078E+02 0.  0.
         24    2    4    4    0    0 -0.34045229271E+03  0.44326555036E+03  0.79859222732E+02  0.57012561828E+03  0.79206145127E+02 0.  0.
         11    1    3    3    0    0 -0.18770007188E+02 -0.36087749474E+03 -0.17348234783E+03  0.40085035161E+03  0.00000000000E+00 0.  1.
        -11    1    3    3    0    0 -0.29212814060E+02 -0.14696471957E+03 -0.13548532105E+03  0.20201061735E+03  0.00000000000E+00 0. -1.
          2    1    6    6  502    0 -0.23910168681E+03  0.27800157310E+03  0.84148184076E+02  0.37621191922E+03  0.00000000000E+00 0. -1.
          3    1    5    5  503    0  0.22966784124E+03  0.48589757725E+02 -0.22415532420E+03  0.32458264159E+03  0.00000000000E+00 0. -1.
         -4    1    5    5    0  503  0.15876727271E+03  0.15986906221E+02 -0.74633015803E+02  0.17616104877E+03  0.00000000000E+00 0.  1.
         -1    1    6    6    0  502 -0.10135060590E+03  0.16526397726E+03 -0.42889613441E+01  0.19391369907E+03  0.00000000000E+00 0.  1.
<mgrwt>
<rscale>  0 0.15883004E+04</rscale>
<asrwt>0</asrwt>
<pdfrwt beam="1">  1        2 0.88141039E-01 0.15883004E+04</pdfrwt>
<pdfrwt beam="2">  1       -2 0.16935592E+00 0.15883004E+04</pdfrwt>
<totfact> 0.10830152E+01</totfact>
</mgrwt>
</event>
<event>
12    1  0.1549527E-007  0.1408911E+04  0.7818608E-02  0.8947393E-01
         -2   -1    0    0    0  501 -0.00000000000E+00  0.00000000000E+00  0.33192804635E+03  0.33192804635E+03  0.00000000000E+00 0.  1.
          2   -1    0    0  501    0  0.00000000000E+00 -0.00000000000E+00 -0.14950761041E+04  0.14950761041E+04  0.00000000000E+00 0. -1.
         23    2    1    2    0    0 -0.26219642711E+03 -0.15437691077E+02 -0.73618231589E+03  0.78766901200E+03  0.97328215597E+02 0.  0.
        254    2    1    2    0    0  0.26219642711E+03  0.15437691077E+02 -0.42696574190E+03  0.10393351385E+04  0.91045730082E+03 0.  0.
        -24    2    4    4    0    0 -0.16256763514E+03 -0.33594898066E+03 -0.24225743719E+03  0.45220546239E+03  0.80691763765E+02 0.  0.
         24    2    4    4    0    0  0.42476406225E+03  0.35138667173E+03 -0.18470830471E+03  0.58712967609E+03  0.81896257911E+02 0.  0.
         11    1    3    3    0    0 -0.50974282675E+02  0.15784977662E+01 -0.28084105824E+03  0.28543400138E+03  0.00000000000E+00 0.  1.
        -11    1    3    3    0    0 -0.21122214443E+03 -0.17016188843E+02 -0.45534125764E+03  0.50223501062E+03  0.00000000000E+00 0. -1.
          2    1    6    6  502    0  0.15322564387E+03  0.16898059269E+03 -0.50977523162E+02  0.23373328071E+03  0.00000000000E+00 0. -1.
          3    1    5    5  503    0 -0.83667152768E+02 -0.87271628120E+02 -0.73451308022E+02  0.14146244794E+03  0.00000000000E+00 0. -1.
         -4    1    5    5    0  503 -0.78900482376E+02 -0.24867735254E+03 -0.16880612917E+03  0.31074301445E+03  0.00000000000E+00 0.  1.
         -1    1    6    6    0  502  0.27153841839E+03  0.18240607904E+03 -0.13373078155E+03  0.35339639538E+03  0.00000000000E+00 0.  1.
<mgrwt>
<rscale>  0 0.14089112E+04</rscale>
<asrwt>0</asrwt>
<pdfrwt beam="1">  1        2 0.23001171E+00 0.14089112E+04</pdfrwt>
<pdfrwt beam="2">  1       -2 0.51065853E-01 0.14089112E+04</pdfrwt>
<totfact> 0.45027559E+01</totfact>
</mgrwt>
</event>
<event>
12    1  0.1549527E-007  0.1918645E+04  0.7818608E-02  0.8645631E-01
         -2   -1    0    0    0  501 -0.00000000000E+00  0.00000000000E+00  0.51851990202E+03  0.51851990202E+03  0.00000000000E+00 0.  1.
          2   -1    0    0  501    0  0.00000000000E+00 -0.00000000000E+00 -0.17748584536E+04  0.17748584536E+04  0.00000000000E+00 0. -1.
         23    2    1    2    0    0  0.11446668179E+03 -0.73484985795E+03 -0.46057522742E+03  0.87940633002E+03  0.90105594634E+02 0.  0.
        254    2    1    2    0    0 -0.11446668179E+03  0.73484985795E+03 -0.79576332418E+03  0.14139720256E+04  0.90164887078E+03 0.  0.
        -24    2    4    4    0    0  0.35320667711E+03  0.25655451310E+03 -0.52690009866E+03  0.68859593286E+03  0.77236454027E+02 0.  0.
         24    2    4    4    0    0 -0.46767335890E+03  0.47829534485E+03 -0.26886322552E+03  0.72537609277E+03  0.79988964235E+02 0.  0.
         11    1    3    3    0    0  0.99320620486E+02 -0.48737711326E+03 -0.34839677001E+03  0.60727369903E+03  0.00000000000E+00 0. -1.
        -11    1    3    3    0    0  0.15146061306E+02 -0.24747274469E+03 -0.11217845741E+03  0.27213263098E+03  0.00000000000E+00 0.  1.
          4    1    6    6  502    0 -0.83220266585E+02  0.13091426103E+03 -0.73002535549E+02  0.17144540445E+03  0.00000000000E+00 0. -1.
          1    1    5    5  503    0  0.30441559421E+02  0.18660248875E+02 -0.83353265591E+02  0.90678885705E+02  0.00000000000E+00 0. -1.
         -2    1    5    5    0  503  0.32276511768E+03  0.23789426423E+03 -0.44354683307E+03  0.59791704715E+03  0.00000000000E+00 0.  1.
         -3    1    6    6    0  502 -0.38445309231E+03  0.34738108382E+03 -0.19586068997E+03  0.55393068832E+03  0.00000000000E+00 0.  1.
<mgrwt>
<rscale>  0 0.19186448E+04</rscale>
<asrwt>0</asrwt>
<pdfrwt beam="1">  1        2 0.27305514E+00 0.19186448E+04</pdfrwt>
<pdfrwt beam="2">  1       -2 0.79772295E-01 0.19186448E+04</pdfrwt>
<totfact> 0.11591896E+01</totfact>
</mgrwt>
</event>
<event>
12    1  0.1549527E-007  0.1823556E+04  0.7818608E-02  0.8693872E-01
          2   -1    0    0  501    0  0.00000000000E+00  0.00000000000E+00  0.31813116847E+04  0.31813116847E+04  0.00000000000E+00 0.  1.
         -2   -1    0    0    0  501 -0.00000000000E+00 -0.00000000000E+00 -0.26131946765E+03  0.26131946765E+03  0.00000000000E+00 0. -1.
         23    2    1    2    0    0 -0.24591044909E+03 -0.11829293403E+01 -0.10166975920E+03  0.28187484435E+03  0.92969563013E+02 0.  0.
        254    2    1    2    0    0  0.24591044909E+03  0.11829293403E+01  0.30216619763E+04  0.31607563080E+04  0.89412862136E+03 0.  0.
        -24    2    4    4    0    0 -0.67567187353E+01 -0.23640190675E+03  0.20873175120E+03  0.32541404907E+03  0.79961519555E+02 0.  0.
         24    2    4    4    0    0  0.25266716782E+03  0.23758483609E+03  0.28129302251E+04  0.28353422589E+04  0.79385277131E+02 0.  0.
         13    1    3    3    0    0 -0.11527345257E+03 -0.16800056198E+01  0.16819958664E+01  0.11529796354E+03  0.00000000000E+00 0.  1.
        -13    1    3    3    0    0 -0.13063699652E+03  0.49707627950E+00 -0.10335175507E+03  0.16657688081E+03  0.00000000000E+00 0. -1.
          2    1    6    6  502    0  0.31012918364E+02  0.74205690471E+02  0.64375593131E+03  0.64876034458E+03  0.00000000000E+00 0. -1.
          3    1    5    5  503    0  0.13906660213E+02 -0.22665579049E+01  0.73246239251E+01  0.15880258142E+02  0.00000000000E+00 0. -1.
         -4    1    5    5    0  503 -0.20663378949E+02 -0.23413534885E+03  0.20140712728E+03  0.30953379093E+03  0.00000000000E+00 0.  1.
         -1    1    6    6    0  502  0.22165424946E+03  0.16337914562E+03  0.21691742938E+04  0.21865819144E+04  0.00000000000E+00 0.  1.
<mgrwt>
<rscale>  0 0.18235555E+04</rscale>
<asrwt>0</asrwt>
<pdfrwt beam="1">  1        2 0.48943254E+00 0.18235555E+04</pdfrwt>
<pdfrwt beam="2">  1       -2 0.40202997E-01 0.18235555E+04</pdfrwt>
<totfact> 0.73956979E+00</totfact>
</mgrwt>
</event>
<event>
12    1  0.1549527E-007  0.2511226E+04  0.7818608E-02  0.8398997E-01
         -2   -1    0    0    0  501 -0.00000000000E+00  0.00000000000E+00  0.18527777312E+04  0.18527777312E+04  0.00000000000E+00 0.  1.
          2   -1    0    0  501    0  0.00000000000E+00 -0.00000000000E+00 -0.85091894949E+03  0.85091894949E+03  0.00000000000E+00 0. -1.
         23    2    1    2    0    0 -0.76170715620E+03 -0.32493999886E+03  0.12058443437E+04  0.14656275687E+04  0.90663080326E+02 0.  0.
        254    2    1    2    0    0  0.76170715620E+03  0.32493999886E+03 -0.20398556201E+03  0.12380691120E+04  0.89745262936E+03 0.  0.
        -24    2    4    4    0    0  0.25383536583E+03 -0.13871221294E+03 -0.41639944005E+03  0.51382472090E+03  0.83389922463E+02 0.  0.
         24    2    4    4    0    0  0.50787179036E+03  0.46365221180E+03  0.21241387804E+03  0.72424439111E+03  0.80642132393E+02 0.  0.
         13    1    3    3    0    0 -0.60832472330E+03 -0.27011200947E+03  0.90352985119E+03  0.11222235333E+04  0.00000000000E+00 0. -1.
        -13    1    3    3    0    0 -0.15338243290E+03 -0.54827989387E+02  0.30231449251E+03  0.34340403539E+03  0.00000000000E+00 0.  1.
          4    1    6    6  502    0  0.12673560664E+03  0.10161097331E+03  0.16626029219E+02  0.16328848317E+03  0.00000000000E+00 0. -1.
          1    1    5    5  503    0  0.42569076672E+02 -0.80941296850E+00 -0.10328291051E+03  0.11171455161E+03  0.00000000000E+00 0. -1.
         -2    1    5    5    0  503  0.21126628916E+03 -0.13790279997E+03 -0.31311652954E+03  0.40211016929E+03  0.00000000000E+00 0.  1.
         -3    1    6    6    0  502  0.38113618372E+03  0.36204123849E+03  0.19578784882E+03  0.56095590794E+03  0.00000000000E+00 0.  1.
<mgrwt>
<rscale>  0 0.25112257E+04</rscale>
<asrwt>0</asrwt>
<pdfrwt beam="1">  1        2 0.13091061E+00 0.25112257E+04</pdfrwt>
<pdfrwt beam="2">  1       -2 0.28504273E+00 0.25112257E+04</pdfrwt>
<totfact> 0.11079448E+00</totfact>
</mgrwt>
</event>
<event>
12    1  0.1549527E-007  0.1617897E+04  0.7818608E-02  0.8809628E-01
         -3   -1    0    0    0  501 -0.00000000000E+00  0.00000000000E+00  0.25014172193E+03  0.25014172193E+03  0.00000000000E+00 0.  1.
          3   -1    0    0  501    0  0.00000000000E+00 -0.00000000000E+00 -0.26161064729E+04  0.26161064729E+04  0.00000000000E+00 0. -1.
         23    2    1    2    0    0 -0.19564438622E+03 -0.42493496909E+03 -0.91681915679E+03  0.10333932477E+04  0.92183427937E+02 0.  0.
        254    2    1    2    0    0  0.19564438622E+03  0.42493496909E+03 -0.14491455941E+04  0.18328549471E+04  0.10200430629E+04 0.  0.
        -24    2    4    4    0    0 -0.39164600378E+03  0.25936115334E+03 -0.42887906389E+03  0.64131846121E+03  0.81837137741E+02 0.  0.
         24    2    4    4    0    0  0.58729039000E+03  0.16557381575E+03 -0.10202665303E+04  0.11915364858E+04  0.80564965631E+02 0.  0.
         13    1    3    3    0    0 -0.24241312204E+02 -0.88301796303E+01 -0.36260907958E+02  0.44502435165E+02  0.00000000000E+00 0.  1.
        -13    1    3    3    0    0 -0.17140307402E+03 -0.41610478946E+03 -0.88055824884E+03  0.98889081257E+03  0.00000000000E+00 0. -1.
          4    1    6    6  502    0  0.43617691672E+03  0.10176109813E+03 -0.80077958217E+03  0.91752578328E+03  0.00000000000E+00 0. -1.
          1    1    5    5  503    0 -0.37062618949E+03  0.22549680459E+03 -0.41110007061E+03  0.59767537114E+03  0.00000000000E+00 0. -1.
         -2    1    5    5    0  503 -0.21019814284E+02  0.33864348744E+02 -0.17778993279E+02  0.43643090065E+02  0.00000000000E+00 0.  1.
         -3    1    6    6    0  502  0.15111347328E+03  0.63812717620E+02 -0.21948694809E+03  0.27401070256E+03  0.00000000000E+00 0.  1.
<mgrwt>
<rscale>  0 0.16178966E+04</rscale>
<asrwt>0</asrwt>
<pdfrwt beam="1">  1        3 0.40247791E+00 0.16178966E+04</pdfrwt>
<pdfrwt beam="2">  1       -3 0.38483342E-01 0.16178966E+04</pdfrwt>
<totfact> 0.18301996E-01</totfact>
</mgrwt>
</event>
<event>
12    1  0.1549527E-007  0.1066251E+04  0.7818608E-02  0.9238725E-01
         -1   -1    0    0    0  501 -0.00000000000E+00  0.00000000000E+00  0.28159591147E+03  0.28159591147E+03  0.00000000000E+00 0.  1.
          1   -1    0    0  501    0  0.00000000000E+00 -0.00000000000E+00 -0.10093281150E+04  0.10093281150E+04  0.00000000000E+00 0. -1.
         23    2    1    2    0    0  0.62895586046E+02 -0.50556426486E+02 -0.16304112886E+03  0.20382781938E+03  0.91932384112E+02 0.  0.
        254    2    1    2    0    0 -0.62895586046E+02  0.50556426486E+02 -0.56469107469E+03  0.10870962071E+04  0.92541360844E+03 0.  0.
        -24    2    4    4    0    0 -0.23639868289E+03  0.40089111970E+03 -0.49172240848E+03  0.68177749346E+03  0.80197234732E+02 0.  0.
         24    2    4    4    0    0  0.17350309685E+03 -0.35033469322E+03 -0.72968666211E+02  0.40531871365E+03  0.78237532548E+02 0.  0.
         11    1    3    3    0    0  0.17472196935E+02  0.15083500389E+02 -0.98521467226E+02  0.10118927391E+03  0.00000000000E+00 0.  1.
        -11    1    3    3    0    0  0.45423389111E+02 -0.65639926876E+02 -0.64519661639E+02  0.10263854547E+03  0.00000000000E+00 0. -1.
          2    1    6    6  502    0  0.35967079009E+02 -0.54558207002E+02  0.15871950703E+02  0.67246914746E+02  0.00000000000E+00 0. -1.
          3    1    5    5  503    0 -0.10189331225E+03  0.15427357108E+03 -0.25157872362E+03  0.31220896206E+03  0.00000000000E+00 0. -1.
         -4    1    5    5    0  503 -0.13450537065E+03  0.24661754862E+03 -0.24014368486E+03  0.36956853140E+03  0.00000000000E+00 0.  1.
         -1    1    6    6    0  502  0.13753601784E+03 -0.29577648622E+03 -0.88840616914E+02  0.33807179891E+03  0.00000000000E+00 0.  1.
<mgrwt>
<rscale>  0 0.10662508E+04</rscale>
<asrwt>0</asrwt>
<pdfrwt beam="1">  1        1 0.15528124E+00 0.10662508E+04</pdfrwt>
<pdfrwt beam="2">  1       -1 0.43322449E-01 0.10662508E+04</pdfrwt>
<totfact> 0.78057153E+01</totfact>
</mgrwt>
</event>
<event>
12    1  0.1549527E-007  0.2211364E+04  0.7818608E-02  0.8513713E-01
          2   -1    0    0  501    0  0.00000000000E+00  0.00000000000E+00  0.32809247967E+04  0.32809247967E+04  0.00000000000E+00 0. -1.
         -2   -1    0    0    0  501 -0.00000000000E+00 -0.00000000000E+00 -0.37261844283E+03  0.37261844283E+03  0.00000000000E+00 0.  1.
         23    2    1    2    0    0 -0.19661125492E+03 -0.14761580551E+03 -0.24523629001E+03  0.36068581126E+03  0.97503871232E+02 0.  0.
        254    2    1    2    0    0  0.19661125492E+03  0.14761580551E+03  0.31535426438E+04  0.32928574282E+04  0.91522260928E+03 0.  0.
        -24    2    4    4    0    0 -0.30485257607E+03  0.13653516457E+03  0.62441104923E+03  0.71292159383E+03  0.82408107931E+02 0.  0.
         24    2    4    4    0    0  0.50146383100E+03  0.11080640942E+02  0.25291315946E+04  0.25799358344E+04  0.89294637808E+02 0.  0.
         13    1    3    3    0    0 -0.60908698120E+02 -0.20465393596E+02 -0.17357702200E+02  0.66558182573E+02  0.00000000000E+00 0. -1.
        -13    1    3    3    0    0 -0.13570255680E+03 -0.12715041192E+03 -0.22787858781E+03  0.29412762869E+03  0.00000000000E+00 0.  1.
          2    1    6    6  502    0  0.30595650645E+03 -0.26118516051E+02  0.13858352355E+04  0.14194473786E+04  0.00000000000E+00 0. -1.
          1    1    5    5  503    0 -0.19032080380E+03  0.11301273884E+03  0.46736169138E+03  0.51712748725E+03  0.00000000000E+00 0. -1.
         -2    1    5    5    0  503 -0.11453177228E+03  0.23522425732E+02  0.15704935785E+03  0.19579410658E+03  0.00000000000E+00 0.  1.
         -1    1    6    6    0  502  0.19550732455E+03  0.37199156993E+02  0.11432963591E+04  0.11604884558E+04  0.00000000000E+00 0.  1.
<mgrwt>
<rscale>  0 0.22113644E+04</rscale>
<asrwt>0</asrwt>
<pdfrwt beam="1">  1        2 0.50475764E+00 0.22113644E+04</pdfrwt>
<pdfrwt beam="2">  1       -2 0.57325917E-01 0.22113644E+04</pdfrwt>
<totfact> 0.29929864E+00</totfact>
</mgrwt>
</event>
<event>
12    1  0.1549527E-007  0.3832415E+04  0.7818608E-02  0.8039234E-01
          2   -1    0    0  501    0  0.00000000000E+00  0.00000000000E+00  0.20385891953E+04  0.20385891953E+04  0.00000000000E+00 0.  1.
         -2   -1    0    0    0  501 -0.00000000000E+00 -0.00000000000E+00 -0.18011723291E+04  0.18011723291E+04  0.00000000000E+00 0. -1.
         23    2    1    2    0    0 -0.10332026116E+03  0.11579655763E+03  0.19195731512E+04  0.19279854794E+04  0.91011025941E+02 0.  0.
        254    2    1    2    0    0  0.10332026116E+03 -0.11579655763E+03 -0.16821562850E+04  0.19117760450E+04  0.89507204178E+03 0.  0.
        -24    2    4    4    0    0  0.35503816725E+02  0.27560290735E+02  0.91443221844E+02  0.12935089740E+03  0.79685012458E+02 0.  0.
         24    2    4    4    0    0  0.67816444438E+02 -0.14335684837E+03 -0.17735995069E+04  0.17824251476E+04  0.78955303958E+02 0.  0.
         11    1    3    3    0    0 -0.11159010393E+03  0.10214643712E+03  0.18650223329E+04  0.18711479226E+04  0.00000000000E+00 0.  1.
        -11    1    3    3    0    0  0.82698427679E+01  0.13650120509E+02  0.54550818255E+02  0.56837556788E+02  0.00000000000E+00 0. -1.
          4    1    6    6  502    0  0.48599096121E+02 -0.93610182118E+02 -0.74326307649E+03  0.75070949056E+03  0.00000000000E+00 0. -1.
          1    1    5    5  503    0  0.20114004246E+02  0.31547305075E+02  0.90232186504E+00  0.37424855498E+02  0.00000000000E+00 0. -1.
         -4    1    5    5    0  503  0.15389812479E+02 -0.39870143398E+01  0.90540899979E+02  0.91926041906E+02  0.00000000000E+00 0.  1.
         -3    1    6    6    0  502  0.19217348317E+02 -0.49746666247E+02 -0.10303364304E+04  0.10317156571E+04  0.00000000000E+00 0.  1.
<mgrwt>
<rscale>  0 0.38324146E+04</rscale>
<asrwt>0</asrwt>
<pdfrwt beam="1">  1        2 0.31362911E+00 0.38324146E+04</pdfrwt>
<pdfrwt beam="2">  1       -2 0.27710343E+00 0.38324146E+04</pdfrwt>
<totfact> 0.22304314E-01</totfact>
</mgrwt>
</event>
<event>
12    1  0.1549527E-007  0.1289434E+04  0.7818608E-02  0.9037986E-01
         -2   -1    0    0    0  501 -0.00000000000E+00  0.00000000000E+00  0.16107007952E+03  0.16107007952E+03  0.00000000000E+00 0.  1.
          2   -1    0    0  501    0  0.00000000000E+00 -0.00000000000E+00 -0.25806165378E+04  0.25806165378E+04  0.00000000000E+00 0. -1.
         23    2    1    2    0    0  0.11220927508E+03  0.17581788000E+03 -0.10886153957E+03  0.25253732483E+03  0.91768280431E+02 0.  0.
        254    2    1    2    0    0 -0.11220927508E+03 -0.17581788000E+03 -0.23106849187E+04  0.24891492925E+04  0.90171866922E+03 0.  0.
        -24    2    4    4    0    0  0.25056947429E+03 -0.30776225141E+02 -0.18931754514E+04  0.19116869169E+04  0.81861717805E+02 0.  0.
         24    2    4    4    0    0 -0.36277874937E+03 -0.14504165485E+03 -0.41750946727E+03  0.57746237559E+03  0.80642032005E+02 0.  0.
         11    1    3    3    0    0  0.12370591960E+03  0.16291469256E+03 -0.11441821240E+03  0.23438404154E+03  0.00000000000E+00 0.  1.
        -11    1    3    3    0    0 -0.11496644524E+02  0.12903187431E+02  0.55566728334E+01  0.18153283289E+02  0.00000000000E+00 0. -1.
          4    1    6    6  502    0 -0.19814142445E+02 -0.15054987354E+02 -0.48245307842E+01  0.25348155404E+02  0.00000000000E+00 0. -1.
          3    1    5    5  503    0  0.10243273117E+03 -0.50784616741E+02 -0.92520475756E+03  0.93224212795E+03  0.00000000000E+00 0. -1.
         -4    1    5    5    0  503  0.14813674312E+03  0.20008391600E+02 -0.96797069387E+03  0.97944478894E+03  0.00000000000E+00 0.  1.
         -3    1    6    6    0  502 -0.34296460692E+03 -0.12998666750E+03 -0.41268493649E+03  0.55211422019E+03  0.00000000000E+00 0.  1.
<mgrwt>
<rscale>  0 0.12894342E+04</rscale>
<asrwt>0</asrwt>
<pdfrwt beam="1">  1        2 0.39701790E+00 0.12894342E+04</pdfrwt>
<pdfrwt beam="2">  1       -2 0.24780014E-01 0.12894342E+04</pdfrwt>
<totfact> 0.44932261E+01</totfact>
</mgrwt>
</event>
<event>
12    1  0.1549527E-007  0.1293228E+04  0.7818608E-02  0.9034953E-01
          2   -1    0    0  501    0  0.00000000000E+00  0.00000000000E+00  0.11633393587E+04  0.11633393587E+04  0.00000000000E+00 0. -1.
         -2   -1    0    0    0  501 -0.00000000000E+00 -0.00000000000E+00 -0.35940482482E+03  0.35940482482E+03  0.00000000000E+00 0.  1.
         23    2    1    2    0    0  0.17304515529E+03 -0.16975299017E+03 -0.34270595880E+02  0.26239571403E+03  0.94426339339E+02 0.  0.
        254    2    1    2    0    0 -0.17304515529E+03  0.16975299017E+03  0.83820512981E+03  0.12603484695E+04  0.90946672373E+03 0.  0.
        -24    2    4    4    0    0 -0.46169261484E+03  0.33595097777E+03  0.65408247450E+03  0.87145809980E+03  0.74781055080E+02 0.  0.
         24    2    4    4    0    0  0.28864745956E+03 -0.16619798760E+03  0.18412265531E+03  0.38889036973E+03  0.79971497915E+02 0.  0.
         13    1    3    3    0    0  0.41104790962E+02 -0.66364602427E+02 -0.52062014677E+02  0.93831325620E+02  0.00000000000E+00 0. -1.
        -13    1    3    3    0    0  0.13194036432E+03 -0.10338838774E+03  0.17791418798E+02  0.16856438841E+03  0.00000000000E+00 0.  1.
          4    1    6    6  502    0  0.73429459895E+02 -0.12486915253E+02  0.18187713358E+02  0.76672038907E+02  0.00000000000E+00 0. -1.
          3    1    5    5  503    0 -0.97280911132E+02  0.35733924874E+02  0.12313568625E+03  0.16094373640E+03  0.00000000000E+00 0. -1.
         -4    1    5    5    0  503 -0.36441170371E+03  0.30021705290E+03  0.53094678825E+03  0.71051436340E+03  0.00000000000E+00 0.  1.
         -3    1    6    6    0  502  0.21521799966E+03 -0.15371107235E+03  0.16593494195E+03  0.31221833082E+03  0.00000000000E+00 0.  1.
<mgrwt>
<rscale>  0 0.12932282E+04</rscale>
<asrwt>0</asrwt>
<pdfrwt beam="1">  1        2 0.17897528E+00 0.12932282E+04</pdfrwt>
<pdfrwt beam="2">  1       -2 0.55293051E-01 0.12932282E+04</pdfrwt>
<totfact> 0.60080872E+01</totfact>
</mgrwt>
</event>
<event>
12    1  0.1549527E-007  0.1804079E+04  0.7818608E-02  0.8704133E-01
         -1   -1    0    0    0  501 -0.00000000000E+00  0.00000000000E+00  0.42478654772E+03  0.42478654772E+03  0.00000000000E+00 0.  1.
          1   -1    0    0  501    0  0.00000000000E+00 -0.00000000000E+00 -0.19154922381E+04  0.19154922381E+04  0.00000000000E+00 0. -1.
         23    2    1    2    0    0  0.66098413076E+03  0.10639507773E+03 -0.49659640598E+03  0.84000564223E+03  0.10383426633E+03 0.  0.
        254    2    1    2    0    0 -0.66098413076E+03 -0.10639507773E+03 -0.99410928437E+03  0.15002731436E+04  0.90241138199E+03 0.  0.
        -24    2    4    4    0    0 -0.62557761047E+03  0.30171160829E+03 -0.69997445971E+03  0.98938211216E+03  0.80842305239E+02 0.  0.
         24    2    4    4    0    0 -0.35406520292E+02 -0.40810668602E+03 -0.29413482467E+03  0.51089103141E+03  0.81790354219E+02 0.  0.
         13    1    3    3    0    0  0.26082345242E+03  0.19875876735E+02 -0.25132460851E+03  0.36275057912E+03  0.00000000000E+00 0.  1.
        -13    1    3    3    0    0  0.40016067834E+03  0.86519200991E+02 -0.24527179746E+03  0.47725506310E+03  0.00000000000E+00 0. -1.
          2    1    6    6  502    0  0.18542631040E+02 -0.23028875628E+03 -0.14657680975E+03  0.27360829957E+03  0.00000000000E+00 0. -1.
          1    1    5    5  503    0 -0.61799497584E+03  0.28698982569E+03 -0.67287119790E+03  0.95762027922E+03  0.00000000000E+00 0. -1.
         -2    1    5    5    0  503 -0.75826346298E+01  0.14721782599E+02 -0.27103261807E+02  0.31761832936E+02  0.00000000000E+00 0.  1.
         -1    1    6    6    0  502 -0.53949151332E+02 -0.17781792973E+03 -0.14755801492E+03  0.23728273184E+03  0.00000000000E+00 0.  1.
<mgrwt>
<rscale>  0 0.18040791E+04</rscale>
<asrwt>0</asrwt>
<pdfrwt beam="1">  1        1 0.29469111E+00 0.18040791E+04</pdfrwt>
<pdfrwt beam="2">  1       -1 0.65351777E-01 0.18040791E+04</pdfrwt>
<totfact> 0.76145734E+00</totfact>
</mgrwt>
</event>
<event>
12    1  0.1549527E-007  0.1604642E+04  0.7818608E-02  0.8817701E-01
         -2   -1    0    0    0  501 -0.00000000000E+00  0.00000000000E+00  0.39190192240E+03  0.39190192240E+03  0.00000000000E+00 0.  1.
          2   -1    0    0  501    0  0.00000000000E+00 -0.00000000000E+00 -0.16425521123E+04  0.16425521123E+04  0.00000000000E+00 0. -1.
         23    2    1    2    0    0 -0.51317350432E+03 -0.14386011673E+03 -0.50410518234E+03  0.73919974705E+03  0.90837505717E+02 0.  0.
        254    2    1    2    0    0  0.51317350432E+03  0.14386011673E+03 -0.74654500753E+03  0.12952542876E+04  0.91450065207E+03 0.  0.
        -24    2    4    4    0    0 -0.97255238643E+02  0.26630245179E+03  0.31212851161E+02  0.29582368848E+03  0.78497358641E+02 0.  0.
         24    2    4    4    0    0  0.61042874297E+03 -0.12244233506E+03 -0.77775785870E+03  0.99943059916E+03  0.79616958703E+02 0.  0.
         13    1    3    3    0    0 -0.43749361672E+03 -0.13067090316E+03 -0.46961623805E+03  0.65499233633E+03  0.00000000000E+00 0. -1.
        -13    1    3    3    0    0 -0.75679887599E+02 -0.13189213566E+02 -0.34488944291E+02  0.84207410718E+02  0.00000000000E+00 0.  1.
          4    1    6    6  502    0  0.40060763863E+03 -0.44879358534E+02 -0.52474141609E+03  0.66170551661E+03  0.00000000000E+00 0. -1.
          1    1    5    5  503    0 -0.79957877437E+02  0.24886770705E+03  0.48409901714E+02  0.26584190106E+03  0.00000000000E+00 0. -1.
         -2    1    5    5    0  503 -0.17297361206E+02  0.17434744740E+02 -0.17197050553E+02  0.29981787414E+02  0.00000000000E+00 0.  1.
         -3    1    6    6    0  502  0.20982110433E+03 -0.77562976529E+02 -0.25301644261E+03  0.33772508254E+03  0.00000000000E+00 0.  1.
<mgrwt>
<rscale>  0 0.16046424E+04</rscale>
<asrwt>0</asrwt>
<pdfrwt beam="1">  1        2 0.25270033E+00 0.16046424E+04</pdfrwt>
<pdfrwt beam="2">  1       -2 0.60292602E-01 0.16046424E+04</pdfrwt>
<totfact> 0.25938907E+01</totfact>
</mgrwt>
</event>
<event>
12    1  0.1549527E-007  0.1300720E+04  0.7818608E-02  0.9028995E-01
         -1   -1    0    0    0  501 -0.00000000000E+00  0.00000000000E+00  0.12230177212E+03  0.12230177212E+03  0.00000000000E+00 0.  1.
          1   -1    0    0  501    0  0.00000000000E+00 -0.00000000000E+00 -0.34583963359E+04  0.34583963359E+04  0.00000000000E+00 0. -1.
         23    2    1    2    0    0 -0.14004094801E+03  0.40323984017E+02 -0.63327027465E+02  0.18325000930E+03  0.91283967341E+02 0.  0.
        254    2    1    2    0    0  0.14004094801E+03 -0.40323984017E+02 -0.32727675363E+04  0.33974480987E+04  0.90022705246E+03 0.  0.
        -24    2    4    4    0    0  0.75228921473E+02  0.21171316555E+03 -0.19778339421E+03  0.31027597872E+03  0.81676537980E+02 0.  0.
         24    2    4    4    0    0  0.64812026539E+02 -0.25203714957E+03 -0.30749841421E+04  0.30871721200E+04  0.85912168957E+02 0.  0.
         11    1    3    3    0    0 -0.50386672523E+02  0.44128105428E+02 -0.65231746429E+02  0.93494851189E+02  0.00000000000E+00 0. -1.
        -11    1    3    3    0    0 -0.89654275490E+02 -0.38041214104E+01  0.19047189641E+01  0.89755158112E+02  0.00000000000E+00 0.  1.
          4    1    6    6  502    0 -0.12733579306E+02 -0.28772163719E+01 -0.13459831058E+03  0.13522990656E+03  0.00000000000E+00 0. -1.
          1    1    5    5  503    0  0.47391668954E+02  0.36424525468E+02 -0.67148350559E+02  0.89897816017E+02  0.00000000000E+00 0. -1.
         -2    1    5    5    0  503  0.27837252519E+02  0.17528864008E+03 -0.13063504365E+03  0.22037816271E+03  0.00000000000E+00 0.  1.
         -3    1    6    6    0  502  0.77545605845E+02 -0.24915993319E+03 -0.29403858315E+04  0.29519422134E+04  0.00000000000E+00 0.  1.
<mgrwt>
<rscale>  0 0.13007198E+04</rscale>
<asrwt>0</asrwt>
<pdfrwt beam="1">  1        1 0.53206091E+00 0.13007198E+04</pdfrwt>
<pdfrwt beam="2">  1       -1 0.18815659E-01 0.13007198E+04</pdfrwt>
<totfact> 0.60998513E+00</totfact>
</mgrwt>
</event>
<event>
12    1  0.1549527E-007  0.1647736E+04  0.7818608E-02  0.8791747E-01
         -2   -1    0    0    0  501 -0.00000000000E+00  0.00000000000E+00  0.13634338299E+04  0.13634338299E+04  0.00000000000E+00 0. -1.
          2   -1    0    0  501    0  0.00000000000E+00 -0.00000000000E+00 -0.49782990340E+03  0.49782990340E+03  0.00000000000E+00 0.  1.
         23    2    1    2    0    0 -0.44964857845E+03  0.35618007290E+03  0.30216347956E+03  0.65545368521E+03  0.96273966609E+02 0.  0.
        254    2    1    2    0    0  0.44964857845E+03 -0.35618007290E+03  0.56344044689E+03  0.12058100480E+04  0.89859036625E+03 0.  0.
        -24    2    4    4    0    0  0.54331736348E+03 -0.44901262593E+03  0.98696804535E+02  0.71611743956E+03  0.79227724377E+02 0.  0.
         24    2    4    4    0    0 -0.93668785028E+02  0.92832553030E+02  0.46474364236E+03  0.48969260848E+03  0.80127857166E+02 0.  0.
         11    1    3    3    0    0 -0.39092277936E+03  0.33544803176E+03  0.29267689814E+03  0.59245739774E+03  0.00000000000E+00 0. -1.
        -11    1    3    3    0    0 -0.58725799086E+02  0.20732041149E+02  0.94865814216E+01  0.62996287474E+02  0.00000000000E+00 0.  1.
          4    1    6    6  502    0 -0.63989126402E+02  0.10109126008E+03  0.31827573401E+03  0.34001984357E+03  0.00000000000E+00 0. -1.
          1    1    5    5  503    0  0.12144514807E+02 -0.18741694007E+02  0.16180311206E+02  0.27577940548E+02  0.00000000000E+00 0. -1.
         -2    1    5    5    0  503  0.53117284867E+03 -0.43027093193E+03  0.82516493329E+02  0.68853949901E+03  0.00000000000E+00 0.  1.
         -3    1    6    6    0  502 -0.29679658626E+02 -0.82587070547E+01  0.14646790835E+03  0.14967276491E+03  0.00000000000E+00 0.  1.
<mgrwt>
<rscale>  0 0.16477356E+04</rscale>
<asrwt>0</asrwt>
<pdfrwt beam="1">  1        2 0.76589217E-01 0.16477356E+04</pdfrwt>
<pdfrwt beam="2">  1       -2 0.20975905E+00 0.16477356E+04</pdfrwt>
<totfact> 0.67896918E+00</totfact>
</mgrwt>
</event>
<event>
12    1  0.1549527E-007  0.2053214E+04  0.7818608E-02  0.8582138E-01
          1   -1    0    0  501    0  0.00000000000E+00  0.00000000000E+00  0.42698660524E+03  0.42698660524E+03  0.00000000000E+00 0. -1.
         -1   -1    0    0    0  501 -0.00000000000E+00 -0.00000000000E+00 -0.24682784063E+04  0.24682784063E+04  0.00000000000E+00 0.  1.
         23    2    1    2    0    0  0.35230542550E+03 -0.49832287822E+03 -0.40377171894E+02  0.61848963655E+03  0.91947325801E+02 0.  0.
        254    2    1    2    0    0 -0.35230542550E+03  0.49832287822E+03 -0.20009146292E+04  0.22767753750E+04  0.89866676313E+03 0.  0.
        -24    2    4    4    0    0  0.17843801578E+03 -0.21139198118E+02 -0.72116140691E+02  0.20840569565E+03  0.77105155845E+02 0.  0.
         24    2    4    4    0    0 -0.53074344127E+03  0.51946207633E+03 -0.19287984885E+04  0.20683696794E+04  0.79750059983E+02 0.  0.
         13    1    3    3    0    0  0.20010523762E+03 -0.23982708662E+03  0.18097898033E+02  0.31286845720E+03  0.00000000000E+00 0.  1.
        -13    1    3    3    0    0  0.15220018788E+03 -0.25849579160E+03 -0.58475069927E+02  0.30562117935E+03  0.00000000000E+00 0. -1.
          4    1    6    6  502    0 -0.16334070367E+03  0.21004501501E+03 -0.72426056733E+03  0.77159086516E+03  0.00000000000E+00 0. -1.
          1    1    5    5  503    0  0.54683735230E+02 -0.42731200511E+02 -0.18531073772E+02  0.71830822708E+02  0.00000000000E+00 0. -1.
         -2    1    5    5    0  503  0.12375428055E+03  0.21592002394E+02 -0.53585066920E+02  0.13657487294E+03  0.00000000000E+00 0.  1.
         -3    1    6    6    0  502 -0.36740273760E+03  0.30941706133E+03 -0.12045379212E+04  0.12967788142E+04  0.00000000000E+00 0.  1.
<mgrwt>
<rscale>  0 0.20532139E+04</rscale>
<asrwt>0</asrwt>
<pdfrwt beam="1">  1        1 0.65690248E-01 0.20532139E+04</pdfrwt>
<pdfrwt beam="2">  1       -1 0.37973513E+00 0.20532139E+04</pdfrwt>
<totfact> 0.49948124E-01</totfact>
</mgrwt>
</event>
<event>
12    1  0.1549527E-007  0.1848352E+04  0.7818608E-02  0.8681001E-01
          2   -1    0    0  501    0  0.00000000000E+00  0.00000000000E+00  0.18037048862E+04  0.18037048862E+04  0.00000000000E+00 0. -1.
         -2   -1    0    0    0  501 -0.00000000000E+00 -0.00000000000E+00 -0.47352615713E+03  0.47352615713E+03  0.00000000000E+00 0.  1.
         23    2    1    2    0    0 -0.67586255350E+02  0.34371160664E+03 -0.25471742964E+03  0.44181415991E+03  0.87253724738E+02 0.  0.
        254    2    1    2    0    0  0.67586255350E+02 -0.34371160664E+03  0.15848961587E+04  0.18354168834E+04  0.85682771407E+03 0.  0.
        -24    2    4    4    0    0  0.42388499434E+02 -0.57220701687E+03  0.65400643453E+03  0.87329708512E+03  0.75536265620E+02 0.  0.
         24    2    4    4    0    0  0.25197755916E+02  0.22849541023E+03  0.93088972418E+03  0.96211979831E+03  0.79206996618E+02 0.  0.
         11    1    3    3    0    0 -0.90588369646E+01  0.56607996062E+00 -0.20027869235E+02  0.21988599768E+02  0.00000000000E+00 0. -1.
        -11    1    3    3    0    0 -0.58527418386E+02  0.34314552668E+03 -0.23468956040E+03  0.41982556014E+03  0.00000000000E+00 0.  1.
          4    1    6    6  502    0  0.32469432857E+02  0.22035745402E+03  0.92045285096E+03  0.94701907185E+03  0.00000000000E+00 0. -1.
          3    1    5    5  503    0  0.40765092280E+02 -0.49042708309E+03  0.59654709889E+03  0.77333625143E+03  0.00000000000E+00 0. -1.
         -4    1    5    5    0  503  0.16234071540E+01 -0.81779933777E+02  0.57459335649E+02  0.99960833693E+02  0.00000000000E+00 0.  1.
         -3    1    6    6    0  502 -0.72716769407E+01  0.81379562125E+01  0.10436873214E+02  0.15100726451E+02  0.00000000000E+00 0.  1.
<mgrwt>
<rscale>  0 0.18483522E+04</rscale>
<asrwt>0</asrwt>
<pdfrwt beam="1">  1        2 0.27749306E+00 0.18483522E+04</pdfrwt>
<pdfrwt beam="2">  1       -2 0.72850179E-01 0.18483522E+04</pdfrwt>
<totfact> 0.13752162E+01</totfact>
</mgrwt>
</event>
<event>
12    1  0.1549527E-007  0.5080944E+04  0.7818608E-02  0.7816141E-01
          2   -1    0    0  501    0  0.00000000000E+00  0.00000000000E+00  0.27964637828E+04  0.27964637828E+04  0.00000000000E+00 0. -1.
         -2   -1    0    0    0  501 -0.00000000000E+00 -0.00000000000E+00 -0.23079140690E+04  0.23079140690E+04  0.00000000000E+00 0.  1.
         23    2    1    2    0    0  0.86849294957E+03 -0.20456664719E+04  0.12883761905E+04  0.25704609818E+04  0.91242166155E+02 0.  0.
        254    2    1    2    0    0 -0.86849294957E+03  0.20456664719E+04 -0.79982647664E+03  0.25339168700E+04  0.91759522314E+03 0.  0.
        -24    2    4    4    0    0 -0.37119351018E+03  0.11056403276E+04 -0.88179312220E+03  0.14642816467E+04  0.79601975279E+02 0.  0.
         24    2    4    4    0    0 -0.49729943938E+03  0.94002614435E+03  0.81966645563E+02  0.10696352233E+04  0.80281352229E+02 0.  0.
         11    1    3    3    0    0  0.60638599218E+03 -0.14713945217E+04  0.96547007900E+03  0.18614076081E+04  0.00000000000E+00 0. -1.
        -11    1    3    3    0    0  0.26210695738E+03 -0.57427195023E+03  0.32290611152E+03  0.70905337372E+03  0.00000000000E+00 0.  1.
          4    1    6    6  502    0 -0.14552827195E+03  0.28255797737E+03  0.61299617540E+02  0.32368986951E+03  0.00000000000E+00 0. -1.
          3    1    5    5  503    0 -0.21068318003E+03  0.62007082158E+03 -0.54427161568E+03  0.85153204153E+03  0.00000000000E+00 0. -1.
         -4    1    5    5    0  503 -0.16051033016E+03  0.48556950600E+03 -0.33752150652E+03  0.61274960514E+03  0.00000000000E+00 0.  1.
         -3    1    6    6    0  502 -0.35177116743E+03  0.65746816698E+03  0.20667028023E+02  0.74594535381E+03  0.00000000000E+00 0.  1.
<mgrwt>
<rscale>  0 0.50809440E+04</rscale>
<asrwt>0</asrwt>
<pdfrwt beam="1">  1        2 0.43022520E+00 0.50809440E+04</pdfrwt>
<pdfrwt beam="2">  1       -2 0.35506370E+00 0.50809440E+04</pdfrwt>
<totfact> 0.24294467E-02</totfact>
</mgrwt>
</event>
<event>
12    1  0.1549527E-007  0.2037601E+04  0.7818608E-02  0.8589240E-01
          1   -1    0    0  501    0  0.00000000000E+00  0.00000000000E+00  0.18675775283E+04  0.18675775283E+04  0.00000000000E+00 0. -1.
         -1   -1    0    0    0  501 -0.00000000000E+00 -0.00000000000E+00 -0.55577585534E+03  0.55577585534E+03  0.00000000000E+00 0.  1.
         23    2    1    2    0    0 -0.37458985201E+03  0.32867026945E+03 -0.17669717753E+03  0.53653845033E+03  0.91158723607E+02 0.  0.
        254    2    1    2    0    0  0.37458985201E+03 -0.32867026945E+03  0.14884988505E+04  0.18868149334E+04  0.10469479746E+04 0.  0.
        -24    2    4    4    0    0  0.44750239227E+03  0.27586738484E+03  0.83982164165E+03  0.99373274843E+03  0.76440698735E+02 0.  0.
         24    2    4    4    0    0 -0.72912540254E+02 -0.60453765428E+03  0.64867720887E+03  0.89308218492E+03  0.77663722139E+02 0.  0.
         11    1    3    3    0    0 -0.26693368960E+03  0.22478491874E+03 -0.16629964746E+03  0.38657137385E+03  0.00000000000E+00 0.  1.
        -11    1    3    3    0    0 -0.10765616241E+03  0.10388535070E+03 -0.10397530070E+02  0.14996707648E+03  0.00000000000E+00 0. -1.
          2    1    6    6  502    0 -0.49685801395E+02 -0.56112911722E+03  0.57955296002E+03  0.80821791524E+03  0.00000000000E+00 0. -1.
          1    1    5    5  503    0  0.32663442606E+03  0.16673092200E+03  0.54440688375E+03  0.65640544156E+03  0.00000000000E+00 0. -1.
         -2    1    5    5    0  503  0.12086796621E+03  0.10913646284E+03  0.29541475790E+03  0.33732730687E+03  0.00000000000E+00 0.  1.
         -1    1    6    6    0  502 -0.23226738859E+02 -0.43408537060E+02  0.69124248856E+02  0.84864269676E+02  0.00000000000E+00 0.  1.
<mgrwt>
<rscale>  0 0.20376010E+04</rscale>
<asrwt>0</asrwt>
<pdfrwt beam="1">  1        1 0.28731962E+00 0.20376010E+04</pdfrwt>
<pdfrwt beam="2">  1       -1 0.85503978E-01 0.20376010E+04</pdfrwt>
<totfact> 0.45801691E+00</totfact>
</mgrwt>
</event>
<event>
12    1  0.1549527E-007  0.2152488E+04  0.7818608E-02  0.8538468E-01
          2   -1    0    0  501    0  0.00000000000E+00  0.00000000000E+00  0.23606472069E+04  0.23606472069E+04  0.00000000000E+00 0. -1.
         -2   -1    0    0    0  501 -0.00000000000E+00 -0.00000000000E+00 -0.49067113815E+03  0.49067113815E+03  0.00000000000E+00 0.  1.
         23    2    1    2    0    0 -0.36762712442E+03  0.47533281935E+02  0.18389304829E+04  0.18781687496E+04  0.91888061529E+02 0.  0.
        254    2    1    2    0    0  0.36762712442E+03 -0.47533281935E+02  0.31045585896E+02  0.97314959542E+03  0.89924812547E+03 0.  0.
        -24    2    4    4    0    0 -0.47901732146E+02 -0.39641152313E+03 -0.75505523469E+02  0.41448916262E+03  0.81630326701E+02 0.  0.
         24    2    4    4    0    0  0.41552885656E+03  0.34887824120E+03  0.10655110937E+03  0.55866043280E+03  0.79800265972E+02 0.  0.
         11    1    3    3    0    0 -0.12796438328E+03  0.60524293088E+02  0.72067833101E+03  0.73444899771E+03  0.00000000000E+00 0.  1.
        -11    1    3    3    0    0 -0.23966274114E+03 -0.12991011154E+02  0.11182521518E+04  0.11437197519E+04  0.00000000000E+00 0. -1.
          2    1    6    6  502    0  0.50288064100E+02  0.80520058393E+02  0.24769385471E+02  0.98111628522E+02  0.00000000000E+00 0. -1.
          3    1    5    5  503    0 -0.77775045107E+01 -0.24279619517E+01  0.60612564783E+01  0.10154969510E+02  0.00000000000E+00 0. -1.
         -4    1    5    5    0  503 -0.40124227635E+02 -0.39398356118E+03 -0.81566779947E+02  0.40433419311E+03  0.00000000000E+00 0.  1.
         -1    1    6    6    0  502  0.36524079246E+03  0.26835818281E+03  0.81781723894E+02  0.46054880428E+03  0.00000000000E+00 0.  1.
<mgrwt>
<rscale>  0 0.21524883E+04</rscale>
<asrwt>0</asrwt>
<pdfrwt beam="1">  1        2 0.36317649E+00 0.21524883E+04</pdfrwt>
<pdfrwt beam="2">  1       -2 0.75487868E-01 0.21524883E+04</pdfrwt>
<totfact> 0.60474766E+00</totfact>
</mgrwt>
</event>
<event>
12    1  0.1549527E-007  0.2550595E+04  0.7818608E-02  0.8385179E-01
         -2   -1    0    0    0  501 -0.00000000000E+00  0.00000000000E+00  0.13923782161E+04  0.13923782161E+04  0.00000000000E+00 0.  1.
          2   -1    0    0  501    0  0.00000000000E+00 -0.00000000000E+00 -0.11680615432E+04  0.11680615432E+04  0.00000000000E+00 0. -1.
         23    2    1    2    0    0  0.52388964169E+02  0.84396308882E+03  0.82192246372E+03  0.11831744734E+04  0.96576390610E+02 0.  0.
        254    2    1    2    0    0 -0.52388964169E+02 -0.84396308882E+03 -0.59760579083E+03  0.13772652860E+04  0.90813473002E+03 0.  0.
        -24    2    4    4    0    0 -0.24420121111E+03  0.88796138892E+02 -0.21947427779E+03  0.34954939396E+03  0.80602942968E+02 0.  0.
         24    2    4    4    0    0  0.19181224694E+03 -0.93275922771E+03 -0.37813151304E+03  0.10277158920E+04  0.79904934736E+02 0.  0.
         11    1    3    3    0    0 -0.22284906722E+02  0.71710686641E+02  0.78662310246E+02  0.10875108597E+03  0.00000000000E+00 0. -1.
        -11    1    3    3    0    0  0.74673870891E+02  0.77225240218E+03  0.74326015347E+03  0.10744233874E+04  0.00000000000E+00 0.  1.
          4    1    6    6  502    0  0.64193226752E+02 -0.24979154254E+03 -0.13863615619E+03  0.29280807517E+03  0.00000000000E+00 0. -1.
          3    1    5    5  503    0 -0.71851753118E+02 -0.26596902447E+00 -0.94755031240E+02  0.11891703457E+03  0.00000000000E+00 0. -1.
         -4    1    5    5    0  503 -0.17234945799E+03  0.89062107917E+02 -0.12471924655E+03  0.23063235939E+03  0.00000000000E+00 0.  1.
         -3    1    6    6    0  502  0.12761902019E+03 -0.68296768517E+03 -0.23949535685E+03  0.73490781685E+03  0.00000000000E+00 0.  1.
<mgrwt>
<rscale>  0 0.25505948E+04</rscale>
<asrwt>0</asrwt>
<pdfrwt beam="1">  1        2 0.17970178E+00 0.25505948E+04</pdfrwt>
<pdfrwt beam="2">  1       -2 0.21421203E+00 0.25505948E+04</pdfrwt>
<totfact> 0.18917263E+00</totfact>
</mgrwt>
</event>
<event>
12    1  0.1549527E-007  0.2055008E+04  0.7818608E-02  0.8581326E-01
         -2   -1    0    0    0  501 -0.00000000000E+00  0.00000000000E+00  0.47764772698E+03  0.47764772698E+03  0.00000000000E+00 0. -1.
          2   -1    0    0  501    0  0.00000000000E+00 -0.00000000000E+00 -0.22103402331E+04  0.22103402331E+04  0.00000000000E+00 0.  1.
         23    2    1    2    0    0  0.55606207544E+03  0.13651221934E+03  0.79000118700E+02  0.58463021404E+03  0.87811449358E+02 0.  0.
        254    2    1    2    0    0 -0.55606207544E+03 -0.13651221934E+03 -0.18116926248E+04  0.21033577461E+04  0.90224332818E+03 0.  0.
        -24    2    4    4    0    0 -0.66653216711E+03 -0.38479911285E+03 -0.11801484031E+04  0.14112108125E+04  0.80188634519E+02 0.  0.
         24    2    4    4    0    0  0.11047009167E+03  0.24828689351E+03 -0.63154422177E+03  0.69214693353E+03  0.79807586750E+02 0.  0.
         13    1    3    3    0    0  0.51671158124E+03  0.13113558286E+03  0.95578822096E+02  0.54159275338E+03  0.00000000000E+00 0. -1.
        -13    1    3    3    0    0  0.39350494199E+02  0.53766364845E+01 -0.16578703396E+02  0.43037460658E+02  0.00000000000E+00 0.  1.
          2    1    6    6  502    0  0.15859165696E+02  0.13294133459E+03 -0.28702847968E+03  0.31671794981E+03  0.00000000000E+00 0. -1.
          3    1    5    5  503    0 -0.47450135768E+01 -0.22505176757E+01 -0.28410433265E+02  0.28891741069E+02  0.00000000000E+00 0. -1.
         -4    1    5    5    0  503 -0.66178715353E+03 -0.38254859518E+03 -0.11517379698E+04  0.13823190715E+04  0.00000000000E+00 0.  1.
         -1    1    6    6    0  502  0.94610925969E+02  0.11534555891E+03 -0.34451574209E+03  0.37542898372E+03  0.00000000000E+00 0.  1.
<mgrwt>
<rscale>  0 0.20550075E+04</rscale>
<asrwt>0</asrwt>
<pdfrwt beam="1">  1        2 0.34005235E+00 0.20550075E+04</pdfrwt>
<pdfrwt beam="2">  1       -2 0.73484265E-01 0.20550075E+04</pdfrwt>
<totfact> 0.78729700E+00</totfact>
</mgrwt>
</event>
<event>
12    1  0.1549527E-007  0.1406182E+04  0.7818608E-02  0.8949356E-01
          1   -1    0    0  501    0  0.00000000000E+00  0.00000000000E+00  0.86116048101E+03  0.86116048101E+03  0.00000000000E+00 0. -1.
         -1   -1    0    0    0  501 -0.00000000000E+00 -0.00000000000E+00 -0.57403547202E+03  0.57403547202E+03  0.00000000000E+00 0.  1.
         23    2    1    2    0    0  0.24008736859E+03 -0.33192615618E+03 -0.19009076404E+03  0.46195939964E+03  0.97237187498E+02 0.  0.
        254    2    1    2    0    0 -0.24008736859E+03  0.33192615618E+03  0.47721577303E+03  0.97323655339E+03  0.74272308239E+03 0.  0.
        -24    2    4    4    0    0  0.11110606014E+03 -0.72065115422E+02  0.39645533108E+03  0.42556085686E+03  0.79920434747E+02 0.  0.
         24    2    4    4    0    0 -0.35119342873E+03  0.40399127160E+03  0.80760441952E+02  0.54767569653E+03  0.82949669486E+02 0.  0.
         13    1    3    3    0    0  0.15670635359E+03 -0.14538919429E+03 -0.12444366317E+03  0.24734818450E+03  0.00000000000E+00 0. -1.
        -13    1    3    3    0    0  0.83381015004E+02 -0.18653696188E+03 -0.65647100863E+02  0.21461121514E+03  0.00000000000E+00 0.  1.
          4    1    6    6  502    0  0.33106460054E+01  0.48553487744E+00 -0.24615056281E+01  0.41539295911E+01  0.00000000000E+00 0. -1.
          1    1    5    5  503    0  0.19152837631E+02  0.98687535883E+01  0.19731016542E+02  0.29215347003E+02  0.00000000000E+00 0. -1.
         -2    1    5    5    0  503  0.91953222511E+02 -0.81933869010E+02  0.37672431454E+03  0.39634550986E+03  0.00000000000E+00 0.  1.
         -3    1    6    6    0  502 -0.35450407474E+03  0.40350573672E+03  0.83221947580E+02  0.54352176693E+03  0.00000000000E+00 0.  1.
<mgrwt>
<rscale>  0 0.14061816E+04</rscale>
<asrwt>0</asrwt>
<pdfrwt beam="1">  1        1 0.13248623E+00 0.14061816E+04</pdfrwt>
<pdfrwt beam="2">  1       -1 0.88313150E-01 0.14061816E+04</pdfrwt>
<totfact> 0.24064135E+01</totfact>
</mgrwt>
</event>
<event>
12    1  0.1549527E-007  0.1873426E+04  0.7818608E-02  0.8668198E-01
          2   -1    0    0  501    0  0.00000000000E+00  0.00000000000E+00  0.17294876785E+04  0.17294876785E+04  0.00000000000E+00 0. -1.
         -2   -1    0    0    0  501 -0.00000000000E+00 -0.00000000000E+00 -0.50733585230E+03  0.50733585230E+03  0.00000000000E+00 0.  1.
         23    2    1    2    0    0  0.29726308053E+03  0.19957904208E+02 -0.32599514159E+03  0.45048855348E+03  0.88901335702E+02 0.  0.
        254    2    1    2    0    0 -0.29726308053E+03 -0.19957904208E+02  0.15481469678E+04  0.17863349773E+04  0.83992259185E+03 0.  0.
        -24    2    4    4    0    0 -0.21029930830E+03 -0.12576065889E+03  0.15981450147E+04  0.16187032147E+04  0.78045289068E+02 0.  0.
         24    2    4    4    0    0 -0.86963772224E+02  0.10580275468E+03 -0.49998046885E+02  0.16763176256E+03  0.82726552860E+02 0.  0.
         11    1    3    3    0    0  0.51260069595E+02  0.89348951225E+01 -0.15690479793E+02  0.54347200865E+02  0.00000000000E+00 0. -1.
        -11    1    3    3    0    0  0.24600301093E+03  0.11023009086E+02 -0.31030466180E+03  0.39614135261E+03  0.00000000000E+00 0.  1.
          4    1    6    6  502    0 -0.69590496758E+02  0.11645410303E+03 -0.29713674792E+02  0.13887871623E+03  0.00000000000E+00 0. -1.
          1    1    5    5  503    0 -0.18842613826E+03 -0.76815398787E+02  0.12492928094E+04  0.12657557184E+04  0.00000000000E+00 0. -1.
         -2    1    5    5    0  503 -0.21873170047E+02 -0.48945260100E+02  0.34885220529E+03  0.35294749636E+03  0.00000000000E+00 0.  1.
         -3    1    6    6    0  502 -0.17373275466E+02 -0.10651348348E+02 -0.20284372092E+02  0.28753046330E+02  0.00000000000E+00 0.  1.
<mgrwt>
<rscale>  0 0.18734259E+04</rscale>
<asrwt>0</asrwt>
<pdfrwt beam="1">  1        2 0.26607502E+00 0.18734259E+04</pdfrwt>
<pdfrwt beam="2">  1       -2 0.78051670E-01 0.18734259E+04</pdfrwt>
<totfact> 0.12947618E+01</totfact>
</mgrwt>
</event>
<event>
12    1  0.1549527E-007  0.3065625E+04  0.7818608E-02  0.8225236E-01
          2   -1    0    0  501    0  0.00000000000E+00  0.00000000000E+00  0.22327517419E+04  0.22327517419E+04  0.00000000000E+00 0. -1.
         -2   -1    0    0    0  501 -0.00000000000E+00 -0.00000000000E+00 -0.10522953596E+04  0.10522953596E+04  0.00000000000E+00 0.  1.
         23    2    1    2    0    0  0.99955693572E+03 -0.28865849631E+03 -0.46061992906E+03  0.11411816672E+04  0.87676013092E+02 0.  0.
        254    2    1    2    0    0 -0.99955693572E+03  0.28865849631E+03  0.16410763114E+04  0.21438654343E+04  0.90586408767E+03 0.  0.
        -24    2    4    4    0    0 -0.45380806768E+03 -0.31737475140E+03  0.68816585865E+03  0.88690757828E+03  0.79776614896E+02 0.  0.
         24    2    4    4    0    0 -0.54574886804E+03  0.60603324771E+03  0.95291045278E+03  0.12569578560E+04  0.82380802110E+02 0.  0.
         13    1    3    3    0    0  0.29498462850E+02 -0.25425403596E+02 -0.16368176139E+02  0.42243669924E+02  0.00000000000E+00 0. -1.
        -13    1    3    3    0    0  0.97005847287E+03 -0.26323309271E+03 -0.44425175292E+03  0.10989379973E+04  0.00000000000E+00 0.  1.
          2    1    6    6  502    0 -0.14010477212E+03  0.14486078635E+03  0.29121011210E+03  0.35414308405E+03  0.00000000000E+00 0. -1.
          3    1    5    5  503    0 -0.17036929582E+03 -0.16728768796E+03  0.29330881023E+03  0.37820751666E+03  0.00000000000E+00 0. -1.
         -4    1    5    5    0  503 -0.28343877186E+03 -0.15008706345E+03  0.39485704841E+03  0.50870006162E+03  0.00000000000E+00 0.  1.
         -1    1    6    6    0  502 -0.40564409592E+03  0.46117246136E+03  0.66170034068E+03  0.90281477199E+03  0.00000000000E+00 0.  1.
<mgrwt>
<rscale>  0 0.30656251E+04</rscale>
<asrwt>0</asrwt>
<pdfrwt beam="1">  1        2 0.34350027E+00 0.30656251E+04</pdfrwt>
<pdfrwt beam="2">  1       -2 0.16189159E+00 0.30656251E+04</pdfrwt>
<totfact> 0.10278055E+00</totfact>
</mgrwt>
</event>
<event>
12    1  0.1549527E-007  0.1825054E+04  0.7818608E-02  0.8693088E-01
          2   -1    0    0  501    0  0.00000000000E+00  0.00000000000E+00  0.22327252981E+04  0.22327252981E+04  0.00000000000E+00 0. -1.
         -2   -1    0    0    0  501 -0.00000000000E+00 -0.00000000000E+00 -0.37295482884E+03  0.37295482884E+03  0.00000000000E+00 0.  1.
         23    2    1    2    0    0 -0.86768506474E+02 -0.66636152285E+03  0.92339114822E+03  0.11456587530E+04  0.91193819994E+02 0.  0.
        254    2    1    2    0    0  0.86768506474E+02  0.66636152285E+03  0.93637932102E+03  0.14600213739E+04  0.89626431741E+03 0.  0.
        -24    2    4    4    0    0 -0.20578364021E+03  0.11302290306E+03  0.76710407274E+03  0.80645204811E+03  0.82432786510E+02 0.  0.
         24    2    4    4    0    0  0.29255214669E+03  0.55333861979E+03  0.16927524828E+03  0.65356932583E+03  0.82026625570E+02 0.  0.
         13    1    3    3    0    0 -0.29424197419E+02 -0.98263080160E+02  0.96850536418E+02  0.14107247329E+03  0.00000000000E+00 0.  1.
        -13    1    3    3    0    0 -0.57344309055E+02 -0.56809844269E+03  0.82654061180E+03  0.10045862797E+04  0.00000000000E+00 0. -1.
          4    1    6    6  502    0  0.22060523831E+03  0.47829899760E+03  0.15172940146E+03  0.54814087017E+03  0.00000000000E+00 0. -1.
          1    1    5    5  503    0 -0.20217119364E+03  0.12100856370E+03  0.75816268262E+03  0.79393130518E+03  0.00000000000E+00 0. -1.
         -2    1    5    5    0  503 -0.36124465749E+01 -0.79856606462E+01  0.89413901133E+01  0.12520742924E+02  0.00000000000E+00 0.  1.
         -3    1    6    6    0  502  0.71946908377E+02  0.75039622186E+02  0.17545846817E+02  0.10542845566E+03  0.00000000000E+00 0.  1.
<mgrwt>
<rscale>  0 0.18250542E+04</rscale>
<asrwt>0</asrwt>
<pdfrwt beam="1">  1        2 0.34349619E+00 0.18250542E+04</pdfrwt>
<pdfrwt beam="2">  1       -2 0.57377667E-01 0.18250542E+04</pdfrwt>
<totfact> 0.13273598E+01</totfact>
</mgrwt>
</event>
<event>
12    1  0.1549527E-007  0.2035408E+04  0.7818608E-02  0.8590243E-01
          1   -1    0    0  501    0  0.00000000000E+00  0.00000000000E+00  0.22487407017E+04  0.22487407017E+04  0.00000000000E+00 0. -1.
         -1   -1    0    0    0  501 -0.00000000000E+00 -0.00000000000E+00 -0.46057820925E+03  0.46057820925E+03  0.00000000000E+00 0.  1.
         23    2    1    2    0    0  0.20836120345E+03  0.14302377224E+03  0.17517816055E+04  0.17722980709E+04  0.91823025985E+02 0.  0.
        254    2    1    2    0    0 -0.20836120345E+03 -0.14302377224E+03  0.36380886913E+02  0.93702084004E+03  0.90156214162E+03 0.  0.
        -24    2    4    4    0    0  0.33613743483E+03  0.45004930415E+02 -0.38590372350E+02  0.35077455376E+03  0.80868732383E+02 0.  0.
         24    2    4    4    0    0 -0.54449863828E+03 -0.18802870265E+03  0.74971259263E+02  0.58624628627E+03  0.78933252476E+02 0.  0.
         13    1    3    3    0    0 -0.34895812174E+01  0.44029489617E+01  0.19369804668E+03  0.19377950466E+03  0.00000000000E+00 0.  1.
        -13    1    3    3    0    0  0.21185078467E+03  0.13862082328E+03  0.15580835589E+04  0.15785185663E+04  0.00000000000E+00 0. -1.
          4    1    6    6  502    0 -0.32193284656E+03 -0.71470861087E+02  0.31476363927E+02  0.33126968344E+03  0.00000000000E+00 0. -1.
          1    1    5    5  503    0  0.32194796705E+03  0.39241070215E+02 -0.54288679040E+02  0.32884284355E+03  0.00000000000E+00 0. -1.
         -2    1    5    5    0  503  0.14189467775E+02  0.57638601993E+01  0.15698306690E+02  0.21931710218E+02  0.00000000000E+00 0.  1.
         -3    1    6    6    0  502 -0.22256579172E+03 -0.11655784157E+03  0.43494895336E+02  0.25497660284E+03  0.00000000000E+00 0.  1.
<mgrwt>
<rscale>  0 0.20354075E+04</rscale>
<asrwt>0</asrwt>
<pdfrwt beam="1">  1        1 0.34596010E+00 0.20354075E+04</pdfrwt>
<pdfrwt beam="2">  1       -1 0.70858188E-01 0.20354075E+04</pdfrwt>
<totfact> 0.37549598E+00</totfact>
</mgrwt>
</event>
<event>
12    1  0.1549527E-007  0.1996589E+04  0.7818608E-02  0.8608217E-01
          3   -1    0    0  501    0  0.00000000000E+00  0.00000000000E+00  0.12357983502E+04  0.12357983502E+04  0.00000000000E+00 0. -1.
         -3   -1    0    0    0  501 -0.00000000000E+00 -0.00000000000E+00 -0.80643594494E+03  0.80643594494E+03  0.00000000000E+00 0.  1.
         23    2    1    2    0    0  0.40866212783E+03  0.25739735905E+03  0.81382110576E+03  0.95056877482E+03  0.89543666999E+02 0.  0.
        254    2    1    2    0    0 -0.40866212783E+03 -0.25739735905E+03 -0.38445870046E+03  0.10916655204E+04  0.90037046866E+03 0.  0.
        -24    2    4    4    0    0  0.60207218584E+02  0.27306273146E+03 -0.26053344484E+02  0.29429037293E+03  0.87976601191E+02 0.  0.
         24    2    4    4    0    0 -0.46886934642E+03 -0.53046009051E+03 -0.35840535597E+03  0.79737514744E+03  0.78271035062E+02 0.  0.
         13    1    3    3    0    0  0.14298952020E+03  0.85898032863E+02  0.20294340596E+03  0.26269849820E+03  0.00000000000E+00 0. -1.
        -13    1    3    3    0    0  0.26567260764E+03  0.17149932619E+03  0.61087769980E+03  0.68787027661E+03  0.00000000000E+00 0.  1.
          2    1    6    6  502    0 -0.26857321962E+03 -0.35740392524E+03 -0.21035431302E+03  0.49408306698E+03  0.00000000000E+00 0. -1.
          3    1    5    5  503    0  0.71013497169E+02  0.24575411884E+03 -0.11916734916E+01  0.25581130505E+03  0.00000000000E+00 0. -1.
         -2    1    5    5    0  503 -0.10806278585E+02  0.27308612625E+02 -0.24861670992E+02  0.38479067880E+02  0.00000000000E+00 0.  1.
         -1    1    6    6    0  502 -0.20029612680E+03 -0.17305616528E+03 -0.14805104295E+03  0.30329208046E+03  0.00000000000E+00 0.  1.
<mgrwt>
<rscale>  0 0.19965893E+04</rscale>
<asrwt>0</asrwt>
<pdfrwt beam="1">  1        3 0.19012282E+00 0.19965893E+04</pdfrwt>
<pdfrwt beam="2">  1       -3 0.12406707E+00 0.19965893E+04</pdfrwt>
<totfact> 0.21551602E-01</totfact>
</mgrwt>
</event>
<event>
12    1  0.1549527E-007  0.1934504E+04  0.7818608E-02  0.8637870E-01
         -2   -1    0    0    0  501 -0.00000000000E+00  0.00000000000E+00  0.36929592667E+03  0.36929592667E+03  0.00000000000E+00 0.  1.
          2   -1    0    0  501    0  0.00000000000E+00 -0.00000000000E+00 -0.25334051458E+04  0.25334051458E+04  0.00000000000E+00 0. -1.
         23    2    1    2    0    0  0.55434398574E+03 -0.18221688025E+03 -0.13010526033E+03  0.60614054195E+03  0.99893602707E+02 0.  0.
        254    2    1    2    0    0 -0.55434398574E+03  0.18221688025E+03 -0.20340039588E+04  0.22965605305E+04  0.89247852633E+03 0.  0.
        -24    2    4    4    0    0 -0.29120371288E+03 -0.30048242572E+03 -0.45823161162E+03  0.62579053126E+03  0.80921496304E+02 0.  0.
         24    2    4    4    0    0 -0.26314027285E+03  0.48269930597E+03 -0.15757723472E+04  0.16707699993E+04  0.78565113827E+02 0.  0.
         13    1    3    3    0    0  0.49963795591E+03 -0.12994895314E+03 -0.11700079741E+03  0.52935243836E+03  0.00000000000E+00 0.  1.
        -13    1    3    3    0    0  0.54706029829E+02 -0.52267927117E+02 -0.13104462924E+02  0.76788103592E+02  0.00000000000E+00 0. -1.
          4    1    6    6  502    0 -0.19318710652E+03  0.39897859563E+03 -0.11906596129E+04  0.12705020629E+04  0.00000000000E+00 0. -1.
          1    1    5    5  503    0 -0.19093740812E+03 -0.23707754999E+03 -0.29406189660E+03  0.42324373304E+03  0.00000000000E+00 0. -1.
         -2    1    5    5    0  503 -0.10026630476E+03 -0.63404875722E+02 -0.16416971503E+03  0.20254679822E+03  0.00000000000E+00 0.  1.
         -3    1    6    6    0  502 -0.69953166338E+02  0.83720710338E+02 -0.38511273426E+03  0.40026793640E+03  0.00000000000E+00 0.  1.
<mgrwt>
<rscale>  0 0.19345038E+04</rscale>
<asrwt>0</asrwt>
<pdfrwt beam="1">  1        2 0.38975465E+00 0.19345038E+04</pdfrwt>
<pdfrwt beam="2">  1       -2 0.56814756E-01 0.19345038E+04</pdfrwt>
<totfact> 0.90400276E+00</totfact>
</mgrwt>
</event>
<event>
12    1  0.1549527E-007  0.2268840E+04  0.7818608E-02  0.8490309E-01
         -1   -1    0    0    0  501 -0.00000000000E+00  0.00000000000E+00  0.65280122594E+03  0.65280122594E+03  0.00000000000E+00 0.  1.
          1   -1    0    0  501    0  0.00000000000E+00 -0.00000000000E+00 -0.19713636396E+04  0.19713636396E+04  0.00000000000E+00 0. -1.
         23    2    1    2    0    0 -0.86334930911E+01  0.94030555153E+03 -0.76212730092E+03  0.12139438515E+04  0.92588252007E+02 0.  0.
        254    2    1    2    0    0  0.86334930911E+01 -0.94030555153E+03 -0.55643511277E+03  0.14102210140E+04  0.89154596419E+03 0.  0.
        -24    2    4    4    0    0  0.28541520532E+03 -0.66660059714E+03 -0.67661603478E+03  0.99496495976E+03  0.79547577480E+02 0.  0.
         24    2    4    4    0    0 -0.27678171223E+03 -0.27370495439E+03  0.12018092201E+03  0.41525605428E+03  0.80446369212E+02 0.  0.
         11    1    3    3    0    0 -0.38392860906E+02  0.29708106387E+03 -0.27346290558E+03  0.40560218318E+03  0.00000000000E+00 0. -1.
        -11    1    3    3    0    0  0.29759367815E+02  0.64322448766E+03 -0.48866439534E+03  0.80834166834E+03  0.00000000000E+00 0.  1.
          2    1    6    6  502    0 -0.87469457950E+02 -0.86793718381E+02  0.78162365526E+02  0.14592261994E+03  0.00000000000E+00 0. -1.
          3    1    5    5  503    0  0.24053371446E+02 -0.22360240984E+02 -0.44628392845E+02  0.55409732924E+02  0.00000000000E+00 0. -1.
         -4    1    5    5    0  503  0.26136183388E+03 -0.64424035616E+03 -0.63198764194E+03  0.93955522683E+03  0.00000000000E+00 0.  1.
         -1    1    6    6    0  502 -0.18931225428E+03 -0.18691123601E+03  0.42018556484E+02  0.26933343434E+03  0.00000000000E+00 0.  1.
<mgrwt>
<rscale>  0 0.22688399E+04</rscale>
<asrwt>0</asrwt>
<pdfrwt beam="1">  1        1 0.30328671E+00 0.22688399E+04</pdfrwt>
<pdfrwt beam="2">  1       -1 0.10043096E+00 0.22688399E+04</pdfrwt>
<totfact> 0.26651260E+00</totfact>
</mgrwt>
</event>
<event>
12    1  0.1549527E-007  0.1757605E+04  0.7818608E-02  0.8729175E-01
          2   -1    0    0  501    0  0.00000000000E+00  0.00000000000E+00  0.19060935830E+04  0.19060935830E+04  0.00000000000E+00 0.  1.
         -2   -1    0    0    0  501 -0.00000000000E+00 -0.00000000000E+00 -0.40517083254E+03  0.40517083254E+03  0.00000000000E+00 0. -1.
         23    2    1    2    0    0 -0.11174272501E+03 -0.65094785608E+03  0.54946542021E+03  0.86373305204E+03  0.88898758438E+02 0.  0.
        254    2    1    2    0    0  0.11174272501E+03  0.65094785608E+03  0.95145733024E+03  0.14475313635E+04  0.86824907089E+03 0.  0.
        -24    2    4    4    0    0  0.34111528206E+03  0.65671082952E+03  0.40018294482E+03  0.84515804754E+03  0.80727855978E+02 0.  0.
         24    2    4    4    0    0 -0.22937255705E+03 -0.57629734435E+01  0.55127438541E+03  0.60237331595E+03  0.79405175932E+02 0.  0.
         13    1    3    3    0    0 -0.88108122388E+02 -0.52085842735E+03  0.39023900350E+03  0.65676709908E+03  0.00000000000E+00 0. -1.
        -13    1    3    3    0    0 -0.23634602621E+02 -0.13008942872E+03  0.15922641671E+03  0.20696595296E+03  0.00000000000E+00 0.  1.
          4    1    6    6  502    0 -0.15546884402E+03 -0.24181744784E+02  0.44204791932E+03  0.46921389709E+03  0.00000000000E+00 0. -1.
          3    1    5    5  503    0  0.32206215178E+03  0.57168743668E+03  0.33791359582E+03  0.73806243171E+03  0.00000000000E+00 0. -1.
         -4    1    5    5    0  503  0.19053130272E+02  0.85023392841E+02  0.62269349006E+02  0.10709561583E+03  0.00000000000E+00 0.  1.
         -3    1    6    6    0  502 -0.73903713029E+02  0.18418771340E+02  0.10922646609E+03  0.13315941886E+03  0.00000000000E+00 0.  1.
<mgrwt>
<rscale>  0 0.17576046E+04</rscale>
<asrwt>0</asrwt>
<pdfrwt beam="1">  1        2 0.29324516E+00 0.17576046E+04</pdfrwt>
<pdfrwt beam="2">  1       -2 0.62333975E-01 0.17576046E+04</pdfrwt>
<totfact> 0.17043658E+01</totfact>
</mgrwt>
</event>
<event>
12    1  0.1549527E-007  0.1789081E+04  0.7818608E-02  0.8712128E-01
         -2   -1    0    0    0  501 -0.00000000000E+00  0.00000000000E+00  0.35757710342E+03  0.35757710342E+03  0.00000000000E+00 0. -1.
          2   -1    0    0  501    0  0.00000000000E+00 -0.00000000000E+00 -0.22378466591E+04  0.22378466591E+04  0.00000000000E+00 0.  1.
         23    2    1    2    0    0 -0.60168906672E+03 -0.12808525792E+03 -0.32347910749E+03  0.70070259672E+03  0.88937223678E+02 0.  0.
        254    2    1    2    0    0  0.60168906672E+03  0.12808525792E+03 -0.15567904481E+04  0.18947211658E+04  0.88765772133E+03 0.  0.
        -24    2    4    4    0    0  0.70162906378E+03 -0.12863763818E+03 -0.74781325119E+03  0.10363762503E+04  0.77589228552E+02 0.  0.
         24    2    4    4    0    0 -0.99939997057E+02  0.25672289610E+03 -0.80897719696E+03  0.85834491549E+03  0.80107679735E+02 0.  0.
         13    1    3    3    0    0 -0.29969016071E+03 -0.93885624421E+02 -0.12678576119E+03  0.33867880380E+03  0.00000000000E+00 0. -1.
        -13    1    3    3    0    0 -0.30199890601E+03 -0.34199633497E+02 -0.19669334630E+03  0.36202379292E+03  0.00000000000E+00 0.  1.
          4    1    6    6  502    0 -0.10538909738E+03  0.23460932346E+03 -0.78106248006E+03  0.82231806150E+03  0.00000000000E+00 0. -1.
          3    1    5    5  503    0  0.48367360498E+03 -0.51923414340E+02 -0.50369855400E+03  0.70024883464E+03  0.00000000000E+00 0. -1.
         -4    1    5    5    0  503  0.21795545880E+03 -0.76714223838E+02 -0.24411469719E+03  0.33612741564E+03  0.00000000000E+00 0.  1.
         -3    1    6    6    0  502  0.54491003236E+01  0.22113572640E+02 -0.27914716898E+02  0.36026853994E+02  0.00000000000E+00 0.  1.
<mgrwt>
<rscale>  0 0.17890810E+04</rscale>
<asrwt>0</asrwt>
<pdfrwt beam="1">  1        2 0.34428411E+00 0.17890810E+04</pdfrwt>
<pdfrwt beam="2">  1       -2 0.55011861E-01 0.17890810E+04</pdfrwt>
<totfact> 0.14441452E+01</totfact>
</mgrwt>
</event>
<event>
12    1  0.1549527E-007  0.3259215E+04  0.7818608E-02  0.8173351E-01
         -1   -1    0    0    0  501 -0.00000000000E+00  0.00000000000E+00  0.13867857501E+04  0.13867857501E+04  0.00000000000E+00 0.  1.
          1   -1    0    0  501    0  0.00000000000E+00 -0.00000000000E+00 -0.19149469479E+04  0.19149469479E+04  0.00000000000E+00 0. -1.
         23    2    1    2    0    0 -0.66448078408E+03 -0.28105114922E+03 -0.15843315110E+04  0.17432801480E+04  0.91623558954E+02 0.  0.
        254    2    1    2    0    0  0.66448078408E+03  0.28105114922E+03  0.10561703133E+04  0.15584525501E+04  0.89036742937E+03 0.  0.
        -24    2    4    4    0    0  0.50962148502E+03  0.50743276578E+03  0.10475321889E+04  0.12725674232E+04  0.70014927481E+02 0.  0.
         24    2    4    4    0    0  0.15485929907E+03 -0.22638161656E+03  0.86381243776E+01  0.28588512686E+03  0.80160150587E+02 0.  0.
         13    1    3    3    0    0 -0.55095875152E+02 -0.13446472535E+01 -0.92147387247E+02  0.10737087366E+03  0.00000000000E+00 0.  1.
        -13    1    3    3    0    0 -0.60938490893E+03 -0.27970650196E+03 -0.14921841238E+04  0.16359092743E+04  0.00000000000E+00 0. -1.
          4    1    6    6  502    0  0.21681348332E+02 -0.49963269060E+02  0.32715500291E+02  0.63535132644E+02  0.00000000000E+00 0. -1.
          3    1    5    5  503    0  0.12079752725E+03  0.15473480401E+03  0.25189147141E+03  0.31934967595E+03  0.00000000000E+00 0. -1.
         -4    1    5    5    0  503  0.38882395776E+03  0.35269796177E+03  0.79564071749E+03  0.95321774726E+03  0.00000000000E+00 0.  1.
         -3    1    6    6    0  502  0.13317795073E+03 -0.17641834750E+03 -0.24077375914E+02  0.22234999421E+03  0.00000000000E+00 0.  1.
<mgrwt>
<rscale>  0 0.32592153E+04</rscale>
<asrwt>0</asrwt>
<pdfrwt beam="1">  1        1 0.29460722E+00 0.32592153E+04</pdfrwt>
<pdfrwt beam="2">  1       -1 0.21335165E+00 0.32592153E+04</pdfrwt>
<totfact> 0.34570942E-01</totfact>
</mgrwt>
</event>
<event>
12    1  0.1549527E-007  0.1716541E+04  0.7818608E-02  0.8751987E-01
         -1   -1    0    0    0  501 -0.00000000000E+00  0.00000000000E+00  0.17225974039E+04  0.17225974039E+04  0.00000000000E+00 0.  1.
          1   -1    0    0  501    0  0.00000000000E+00 -0.00000000000E+00 -0.42762625731E+03  0.42762625731E+03  0.00000000000E+00 0. -1.
         23    2    1    2    0    0 -0.28316675599E+03  0.35531232464E+03  0.99489224732E+03  0.10977952903E+04  0.94412159252E+02 0.  0.
        254    2    1    2    0    0  0.28316675599E+03 -0.35531232464E+03  0.30007889929E+03  0.10524283710E+04  0.90062637673E+03 0.  0.
        -24    2    4    4    0    0 -0.22015371512E+03 -0.38319028468E+03 -0.21490986662E+02  0.44910032646E+03  0.76985636136E+02 0.  0.
         24    2    4    4    0    0  0.50332047110E+03  0.27877960040E+02  0.32156988595E+03  0.60332804449E+03  0.80553463192E+02 0.  0.
         13    1    3    3    0    0 -0.25288049864E+03  0.32332238729E+03  0.95007155948E+03  0.10349501828E+04  0.00000000000E+00 0.  1.
        -13    1    3    3    0    0 -0.30286257347E+02  0.31989937352E+02  0.44820687843E+02  0.62845107483E+02  0.00000000000E+00 0. -1.
          4    1    6    6  502    0  0.44762432292E+03  0.23159276223E+02  0.31320463788E+03  0.54680986799E+03  0.00000000000E+00 0. -1.
          3    1    5    5  503    0 -0.18169963741E+03 -0.24460377687E+03 -0.17946260057E+02  0.30523406452E+03  0.00000000000E+00 0. -1.
         -4    1    5    5    0  503 -0.38454077708E+02 -0.13858650781E+03 -0.35447266046E+01  0.14386626195E+03  0.00000000000E+00 0.  1.
         -3    1    6    6    0  502  0.55696148183E+02  0.47186838170E+01  0.83652480693E+01  0.56518176498E+02  0.00000000000E+00 0.  1.
<mgrwt>
<rscale>  0 0.17165406E+04</rscale>
<asrwt>0</asrwt>
<pdfrwt beam="1">  1        1 0.65788656E-01 0.17165406E+04</pdfrwt>
<pdfrwt beam="2">  1       -1 0.26501498E+00 0.17165406E+04</pdfrwt>
<totfact> 0.29034148E+00</totfact>
</mgrwt>
</event>
<event>
12    1  0.1549527E-007  0.1791564E+04  0.7818608E-02  0.8710799E-01
          2   -1    0    0  501    0  0.00000000000E+00  0.00000000000E+00  0.33429348333E+03  0.33429348333E+03  0.00000000000E+00 0.  1.
         -2   -1    0    0    0  501 -0.00000000000E+00 -0.00000000000E+00 -0.24003610608E+04  0.24003610608E+04  0.00000000000E+00 0. -1.
         23    2    1    2    0    0  0.44711797882E+03 -0.46630381214E+03 -0.51729008991E+03  0.83287368439E+03  0.93465527525E+02 0.  0.
        254    2    1    2    0    0 -0.44711797882E+03  0.46630381214E+03 -0.15487774876E+04  0.19017808598E+04  0.89482121137E+03 0.  0.
        -24    2    4    4    0    0 -0.42127323915E+03  0.55691586702E+03 -0.54264750120E+03  0.88787190305E+03  0.78890941769E+02 0.  0.
         24    2    4    4    0    0 -0.25844739669E+02 -0.90612054884E+02 -0.10061299864E+04  0.10139089567E+04  0.82676042135E+02 0.  0.
         11    1    3    3    0    0  0.24526475245E+03 -0.27033472678E+03 -0.34920059687E+03  0.50515019563E+03  0.00000000000E+00 0. -1.
        -11    1    3    3    0    0  0.20185322637E+03 -0.19596908536E+03 -0.16808949305E+03  0.32772348876E+03  0.00000000000E+00 0.  1.
          2    1    6    6  502    0 -0.44117215292E+02 -0.17248443306E+02 -0.48770842050E+03  0.49000340908E+03  0.00000000000E+00 0. -1.
          3    1    5    5  503    0 -0.27704482748E+03  0.41852920358E+03 -0.36698625060E+03  0.62177121098E+03  0.00000000000E+00 0. -1.
         -4    1    5    5    0  503 -0.14422841167E+03  0.13838666345E+03 -0.17566125060E+03  0.26610069206E+03  0.00000000000E+00 0.  1.
         -1    1    6    6    0  502  0.18272475623E+02 -0.73363611577E+02 -0.51842156591E+03  0.52390554766E+03  0.00000000000E+00 0.  1.
<mgrwt>
<rscale>  0 0.17915636E+04</rscale>
<asrwt>0</asrwt>
<pdfrwt beam="1">  1        2 0.51429768E-01 0.17915636E+04</pdfrwt>
<pdfrwt beam="2">  1       -2 0.36928630E+00 0.17915636E+04</pdfrwt>
<totfact> 0.10830447E+00</totfact>
</mgrwt>
</event>
<event>
12    1  0.1549527E-007  0.2579176E+04  0.7818608E-02  0.8375309E-01
         -2   -1    0    0    0  501 -0.00000000000E+00  0.00000000000E+00  0.81663449513E+03  0.81663449513E+03  0.00000000000E+00 0.  1.
          2   -1    0    0  501    0  0.00000000000E+00 -0.00000000000E+00 -0.20364527362E+04  0.20364527362E+04  0.00000000000E+00 0. -1.
         23    2    1    2    0    0  0.90524849677E+03 -0.66789231740E+03 -0.64890059300E+03  0.13018106452E+04  0.89910999476E+02 0.  0.
        254    2    1    2    0    0 -0.90524849677E+03  0.66789231740E+03 -0.57091764804E+03  0.15512765861E+04  0.90274974227E+03 0.  0.
        -24    2    4    4    0    0 -0.85833429238E+03  0.37327876580E+03 -0.74303857296E+03  0.11972379372E+04  0.72094125212E+02 0.  0.
         24    2    4    4    0    0 -0.46914204392E+02  0.29461355160E+03  0.17212092492E+03  0.35403864889E+03  0.81973561315E+02 0.  0.
         11    1    3    3    0    0  0.72032282181E+03 -0.53936110449E+03 -0.55872964147E+03  0.10592233857E+04  0.00000000000E+00 0.  1.
        -11    1    3    3    0    0  0.18492567496E+03 -0.12853121291E+03 -0.90170951532E+02  0.24258725946E+03  0.00000000000E+00 0. -1.
          2    1    6    6  502    0  0.21035251603E+02  0.80760212922E+02  0.31352345294E+02  0.89149668293E+02  0.00000000000E+00 0. -1.
          1    1    5    5  503    0 -0.24761314201E+02 -0.15107768233E+01 -0.19745618212E+02  0.31706380527E+02  0.00000000000E+00 0. -1.
         -2    1    5    5    0  503 -0.83357297818E+03  0.37478954262E+03 -0.72329295475E+03  0.11655315567E+04  0.00000000000E+00 0.  1.
         -3    1    6    6    0  502 -0.67949455995E+02  0.21385333868E+03  0.14076857963E+03  0.26488898060E+03  0.00000000000E+00 0.  1.
<mgrwt>
<rscale>  0 0.25791763E+04</rscale>
<asrwt>0</asrwt>
<pdfrwt beam="1">  1        2 0.31330042E+00 0.25791763E+04</pdfrwt>
<pdfrwt beam="2">  1       -2 0.12563608E+00 0.25791763E+04</pdfrwt>
<totfact> 0.26745826E+00</totfact>
</mgrwt>
</event>
<event>
12    1  0.1549527E-007  0.1876088E+04  0.7818608E-02  0.8666851E-01
         -1   -1    0    0    0  501 -0.00000000000E+00  0.00000000000E+00  0.54989986210E+03  0.54989986210E+03  0.00000000000E+00 0.  1.
          1   -1    0    0  501    0  0.00000000000E+00 -0.00000000000E+00 -0.16001574512E+04  0.16001574512E+04  0.00000000000E+00 0. -1.
         23    2    1    2    0    0  0.27595404046E+03  0.63172723017E+03 -0.62739461214E+03  0.93777679165E+03  0.10281724486E+03 0.  0.
        254    2    1    2    0    0 -0.27595404046E+03 -0.63172723017E+03 -0.42286297694E+03  0.12122805216E+04  0.90309525526E+03 0.  0.
        -24    2    4    4    0    0 -0.28399880778E+03 -0.47370685116E+03  0.17815313189E+03  0.58556580205E+03  0.78072187593E+02 0.  0.
         24    2    4    4    0    0  0.80447673210E+01 -0.15802037901E+03 -0.60101610883E+03  0.62671471958E+03  0.80720618152E+02 0.  0.
         13    1    3    3    0    0  0.17818411159E+03  0.50638426699E+03 -0.50667630990E+03  0.73817036414E+03  0.00000000000E+00 0. -1.
        -13    1    3    3    0    0  0.97769928871E+02  0.12534296318E+03 -0.12071830224E+03  0.19960642751E+03  0.00000000000E+00 0.  1.
          2    1    6    6  502    0 -0.32898450221E+02 -0.38213122169E+02 -0.14895175701E+03  0.15725513235E+03  0.00000000000E+00 0. -1.
          3    1    5    5  503    0 -0.28814674285E+03 -0.45451558502E+03  0.17106784296E+03  0.56469210136E+03  0.00000000000E+00 0. -1.
         -4    1    5    5    0  503  0.41479350730E+01 -0.19191266140E+02  0.70852889302E+01  0.20873700694E+02  0.00000000000E+00 0.  1.
         -1    1    6    6    0  502  0.40943217542E+02 -0.11980725684E+03 -0.45206435182E+03  0.46945958723E+03  0.00000000000E+00 0.  1.
<mgrwt>
<rscale>  0 0.18760878E+04</rscale>
<asrwt>0</asrwt>
<pdfrwt beam="1">  1        1 0.24617806E+00 0.18760878E+04</pdfrwt>
<pdfrwt beam="2">  1       -1 0.84599981E-01 0.18760878E+04</pdfrwt>
<totfact> 0.72337051E+00</totfact>
</mgrwt>
</event>
<event>
12    1  0.1549527E-007  0.1405569E+04  0.7818608E-02  0.8949797E-01
         -2   -1    0    0    0  501 -0.00000000000E+00  0.00000000000E+00  0.53858268588E+03  0.53858268588E+03  0.00000000000E+00 0.  1.
          2   -1    0    0  501    0  0.00000000000E+00 -0.00000000000E+00 -0.91704760451E+03  0.91704760451E+03  0.00000000000E+00 0. -1.
         23    2    1    2    0    0 -0.53020038969E+02 -0.47568253311E+03  0.51324884418E+02  0.49012175722E+03  0.92195966794E+02 0.  0.
        254    2    1    2    0    0  0.53020038969E+02  0.47568253311E+03 -0.42978980305E+03  0.96550853317E+03  0.72000170554E+03 0.  0.
        -24    2    4    4    0    0 -0.68787219099E+02  0.61571243132E+02 -0.50548068952E+03  0.51990496521E+03  0.79169096728E+02 0.  0.
         24    2    4    4    0    0  0.12180725807E+03  0.41411128998E+03  0.75690886473E+02  0.44560356796E+03  0.80673793006E+02 0.  0.
         11    1    3    3    0    0  0.56075418186E+01 -0.29487103640E+03  0.54991963007E+02  0.30000748096E+03  0.00000000000E+00 0.  1.
        -11    1    3    3    0    0 -0.58627580787E+02 -0.18081149671E+03 -0.36670785894E+01  0.19011427626E+03  0.00000000000E+00 0. -1.
          4    1    6    6  502    0  0.13554056857E+02  0.49455199851E+02  0.37045205801E+02  0.63260386676E+02  0.00000000000E+00 0. -1.
          3    1    5    5  503    0  0.13694147738E+02  0.30330327836E+02 -0.12769284130E+03  0.13195802434E+03  0.00000000000E+00 0. -1.
         -4    1    5    5    0  503 -0.82481366836E+02  0.31240915296E+02 -0.37778784822E+03  0.38794694087E+03  0.00000000000E+00 0.  1.
         -3    1    6    6    0  502  0.10825320121E+03  0.36465609013E+03  0.38645680672E+02  0.38234318129E+03  0.00000000000E+00 0.  1.
<mgrwt>
<rscale>  0 0.14055689E+04</rscale>
<asrwt>0</asrwt>
<pdfrwt beam="1">  1        2 0.14108425E+00 0.14055689E+04</pdfrwt>
<pdfrwt beam="2">  1       -2 0.82858876E-01 0.14055689E+04</pdfrwt>
<totfact> 0.35484612E+01</totfact>
</mgrwt>
</event>
<event>
12    1  0.1549527E-007  0.1044463E+04  0.7818608E-02  0.9261079E-01
          1   -1    0    0  501    0  0.00000000000E+00  0.00000000000E+00  0.82096885720E+03  0.82096885720E+03  0.00000000000E+00 0. -1.
         -1   -1    0    0    0  501 -0.00000000000E+00 -0.00000000000E+00 -0.33219984317E+03  0.33219984317E+03  0.00000000000E+00 0.  1.
         23    2    1    2    0    0 -0.71217628893E+02  0.66274681136E+01  0.17283322508E+03  0.20557696430E+03  0.85291796564E+02 0.  0.
        254    2    1    2    0    0  0.71217628893E+02 -0.66274681136E+01  0.31593578895E+03  0.94759173607E+03  0.89050480152E+03 0.  0.
        -24    2    4    4    0    0  0.37575974372E+02 -0.37572491378E+03  0.40345649420E+03  0.55839078204E+03  0.80261809509E+02 0.  0.
         24    2    4    4    0    0  0.33641654522E+02  0.36909744566E+03 -0.87520705251E+02  0.38920095403E+03  0.80329468179E+02 0.  0.
         11    1    3    3    0    0 -0.59318996417E+02  0.21055908363E+02  0.17571995599E+03  0.18665368345E+03  0.00000000000E+00 0. -1.
        -11    1    3    3    0    0 -0.11898632476E+02 -0.14428440250E+02 -0.28867309084E+01  0.18923280851E+02  0.00000000000E+00 0.  1.
          2    1    6    6  502    0  0.69584070443E+01  0.85533802379E+01  0.98530003201E+01  0.14787202487E+02  0.00000000000E+00 0. -1.
          3    1    5    5  503    0  0.74008401008E+01 -0.25659006579E+03  0.22283850554E+03  0.33992680661E+03  0.00000000000E+00 0. -1.
         -4    1    5    5    0  503  0.30175134271E+02 -0.11913484799E+03  0.18061798866E+03  0.21846397543E+03  0.00000000000E+00 0.  1.
         -1    1    6    6    0  502  0.26683247477E+02  0.36054406543E+03 -0.97373705571E+02  0.37441375155E+03  0.00000000000E+00 0.  1.
<mgrwt>
<rscale>  0 0.10444630E+04</rscale>
<asrwt>0</asrwt>
<pdfrwt beam="1">  1        1 0.12630290E+00 0.10444630E+04</pdfrwt>
<pdfrwt beam="2">  1       -1 0.51107668E-01 0.10444630E+04</pdfrwt>
<totfact> 0.81590065E+01</totfact>
</mgrwt>
</event>
<event>
12    1  0.1549527E-007  0.2346918E+04  0.7818608E-02  0.8459648E-01
          2   -1    0    0  501    0  0.00000000000E+00  0.00000000000E+00  0.12487684465E+04  0.12487684465E+04  0.00000000000E+00 0. -1.
         -2   -1    0    0    0  501 -0.00000000000E+00 -0.00000000000E+00 -0.11026910727E+04  0.11026910727E+04  0.00000000000E+00 0.  1.
         23    2    1    2    0    0 -0.86496495440E+02 -0.98933868798E+03 -0.39298439564E+02  0.99806041691E+03  0.91145735966E+02 0.  0.
        254    2    1    2    0    0  0.86496495440E+02  0.98933868798E+03  0.18537581336E+03  0.13533991023E+04  0.90058439620E+03 0.  0.
        -24    2    4    4    0    0 -0.32977569640E+03  0.80763901029E+03  0.73867452104E+02  0.87921934411E+03  0.80854645540E+02 0.  0.
         24    2    4    4    0    0  0.41627219184E+03  0.18169967769E+03  0.11150836125E+03  0.47417975819E+03  0.78198579743E+02 0.  0.
         13    1    3    3    0    0 -0.67156594733E+02 -0.95823721568E+03 -0.35555323967E+02  0.96124541653E+03  0.00000000000E+00 0. -1.
        -13    1    3    3    0    0 -0.19339900707E+02 -0.31101472300E+02 -0.37431155973E+01  0.36815000380E+02  0.00000000000E+00 0.  1.
          4    1    6    6  502    0  0.26268111157E+03  0.81362078805E+02  0.90590674670E+02  0.28953035174E+03  0.00000000000E+00 0. -1.
          3    1    5    5  503    0 -0.33137398860E+03  0.80281129566E+03  0.67587816885E+02  0.87113880051E+03  0.00000000000E+00 0. -1.
         -4    1    5    5    0  503  0.15982921955E+01  0.48277146293E+01  0.62796352198E+01  0.80805436066E+01  0.00000000000E+00 0.  1.
         -3    1    6    6    0  502  0.15359108028E+03  0.10033759889E+03  0.20917686583E+02  0.18464940645E+03  0.00000000000E+00 0.  1.
<mgrwt>
<rscale>  0 0.23469178E+04</rscale>
<asrwt>0</asrwt>
<pdfrwt beam="1">  1        2 0.19211822E+00 0.23469178E+04</pdfrwt>
<pdfrwt beam="2">  1       -2 0.16964478E+00 0.23469178E+04</pdfrwt>
<totfact> 0.34305584E+00</totfact>
</mgrwt>
</event>
<event>
12    1  0.1549527E-007  0.2028891E+04  0.7818608E-02  0.8593231E-01
          2   -1    0    0  501    0  0.00000000000E+00  0.00000000000E+00  0.97584677590E+03  0.97584677590E+03  0.00000000000E+00 0.  1.
         -2   -1    0    0    0  501 -0.00000000000E+00 -0.00000000000E+00 -0.10545709465E+04  0.10545709465E+04  0.00000000000E+00 0. -1.
         23    2    1    2    0    0  0.18835079579E+03 -0.14227089614E+03  0.74774312757E+03  0.78995595654E+03  0.95883253453E+02 0.  0.
        254    2    1    2    0    0 -0.18835079579E+03  0.14227089614E+03 -0.82646729818E+03  0.12404617659E+04  0.89441610421E+03 0.  0.
        -24    2    4    4    0    0  0.34403497743E+03  0.38604477902E+02 -0.45874427522E+03  0.58026911522E+03  0.80097219746E+02 0.  0.
         24    2    4    4    0    0 -0.53238577323E+03  0.10366641823E+03 -0.36772302295E+03  0.66019265065E+03  0.80329176297E+02 0.  0.
         13    1    3    3    0    0  0.12721642764E+03 -0.14585049462E+03  0.56820700346E+03  0.60026292991E+03  0.00000000000E+00 0.  1.
        -13    1    3    3    0    0  0.61134368155E+02  0.35795984802E+01  0.17953612411E+03  0.18969302664E+03  0.00000000000E+00 0. -1.
          2    1    6    6  502    0 -0.90145375316E+02  0.10180987222E+02 -0.28639448122E+02  0.95131798997E+02  0.00000000000E+00 0. -1.
          1    1    5    5  503    0  0.20490407589E+02 -0.81454900319E+01 -0.79937215882E+01  0.23454325739E+02  0.00000000000E+00 0. -1.
         -2    1    5    5    0  503  0.32354456984E+03  0.46749967934E+02 -0.45075055364E+03  0.55681478948E+03  0.00000000000E+00 0.  1.
         -1    1    6    6    0  502 -0.44224039791E+03  0.93485431012E+02 -0.33908357483E+03  0.56506085166E+03  0.00000000000E+00 0.  1.
<mgrwt>
<rscale>  0 0.20288910E+04</rscale>
<asrwt>0</asrwt>
<pdfrwt beam="1">  1        2 0.15013027E+00 0.20288910E+04</pdfrwt>
<pdfrwt beam="2">  1       -2 0.16224168E+00 0.20288910E+04</pdfrwt>
<totfact> 0.58679025E+00</totfact>
</mgrwt>
</event>
<event>
12    1  0.1549527E-007  0.1139292E+04  0.7818608E-02  0.9167719E-01
          2   -1    0    0  501    0  0.00000000000E+00  0.00000000000E+00  0.20276819105E+04  0.20276819105E+04  0.00000000000E+00 0. -1.
         -2   -1    0    0    0  501 -0.00000000000E+00 -0.00000000000E+00 -0.16003340084E+03  0.16003340084E+03  0.00000000000E+00 0.  1.
         23    2    1    2    0    0  0.18685428666E+03 -0.54863085429E+02  0.25317689956E+03  0.33230979712E+03  0.91688473706E+02 0.  0.
        254    2    1    2    0    0 -0.18685428666E+03  0.54863085429E+02  0.16144716101E+04  0.18554055142E+04  0.89335690501E+03 0.  0.
        -24    2    4    4    0    0 -0.42484571896E+03 -0.21860043294E+03  0.12247420035E+04  0.13170613719E+04  0.79860178174E+02 0.  0.
         24    2    4    4    0    0  0.23799143231E+03  0.27346351837E+03  0.38972960659E+03  0.53834414228E+03  0.80641376124E+02 0.  0.
         13    1    3    3    0    0  0.19403435245E+03 -0.55773581157E+02  0.22102247250E+03  0.29935089049E+03  0.00000000000E+00 0.  1.
        -13    1    3    3    0    0 -0.71800657931E+01  0.91049572841E+00  0.32154427060E+02  0.32958906639E+02  0.00000000000E+00 0. -1.
          4    1    6    6  502    0  0.61246232480E+01  0.26599343951E+02  0.58802069233E+02  0.64828384637E+02  0.00000000000E+00 0. -1.
          1    1    5    5  503    0 -0.11586142187E+02 -0.24918372302E+02  0.85208718776E+02  0.89530384364E+02  0.00000000000E+00 0. -1.
         -2    1    5    5    0  503 -0.41325957678E+03 -0.19368206063E+03  0.11395332847E+04  0.12275309876E+04  0.00000000000E+00 0.  1.
         -3    1    6    6    0  502  0.23186680906E+03  0.24686417442E+03  0.33092753736E+03  0.47351575764E+03  0.00000000000E+00 0.  1.
<mgrwt>
<rscale>  0 0.11392925E+04</rscale>
<asrwt>0</asrwt>
<pdfrwt beam="1">  1        2 0.31195104E+00 0.11392925E+04</pdfrwt>
<pdfrwt beam="2">  1       -2 0.24620525E-01 0.11392925E+04</pdfrwt>
<totfact> 0.94400318E+01</totfact>
</mgrwt>
</event>
<event>
12    1  0.1549527E-007  0.3679086E+04  0.7818608E-02  0.8072613E-01
         -1   -1    0    0    0  501 -0.00000000000E+00  0.00000000000E+00  0.92167884305E+03  0.92167884305E+03  0.00000000000E+00 0.  1.
          1   -1    0    0  501    0  0.00000000000E+00 -0.00000000000E+00 -0.36714722219E+04  0.36714722219E+04  0.00000000000E+00 0. -1.
         23    2    1    2    0    0  0.93662414379E+03 -0.14235642561E+04 -0.16709978065E+04  0.23883843987E+04  0.91358571667E+02 0.  0.
        254    2    1    2    0    0 -0.93662414379E+03  0.14235642561E+04 -0.10787955724E+04  0.22047666663E+04  0.89072789776E+03 0.  0.
        -24    2    4    4    0    0 -0.38673185022E+03  0.17802489286E+02 -0.34448238201E+03  0.52425399802E+03  0.79345386264E+02 0.  0.
         24    2    4    4    0    0 -0.54989229357E+03  0.14057617668E+04 -0.73431319041E+03  0.16805126683E+04  0.79745138644E+02 0.  0.
         13    1    3    3    0    0  0.85255252001E+03 -0.12960374799E+04 -0.14826174635E+04  0.21458596161E+04  0.00000000000E+00 0. -1.
        -13    1    3    3    0    0  0.84071623777E+02 -0.12752677615E+03 -0.18838034292E+03  0.24252478257E+03  0.00000000000E+00 0.  1.
          4    1    6    6  502    0 -0.46678182067E+03  0.11801831494E+04 -0.64873317298E+03  0.14253323346E+04  0.00000000000E+00 0. -1.
          1    1    5    5  503    0 -0.33955743544E+03 -0.79277169737E+01 -0.27901843167E+03  0.43956044621E+03  0.00000000000E+00 0. -1.
         -2    1    5    5    0  503 -0.47174414786E+02  0.25730206260E+02 -0.65463950339E+02  0.84693551812E+02  0.00000000000E+00 0.  1.
         -3    1    6    6    0  502 -0.83110472897E+02  0.22557861740E+03 -0.85580017421E+02  0.25518033372E+03  0.00000000000E+00 0.  1.
<mgrwt>
<rscale>  0 0.36790859E+04</rscale>
<asrwt>0</asrwt>
<pdfrwt beam="1">  1        1 0.56484187E+00 0.36790859E+04</pdfrwt>
<pdfrwt beam="2">  1       -1 0.14179675E+00 0.36790859E+04</pdfrwt>
<totfact> 0.59196449E-02</totfact>
</mgrwt>
</event>
<event>
12    1  0.1549527E-007  0.1568254E+04  0.7818608E-02  0.8840291E-01
          2   -1    0    0  501    0  0.00000000000E+00  0.00000000000E+00  0.28411279842E+04  0.28411279842E+04  0.00000000000E+00 0. -1.
         -2   -1    0    0    0  501 -0.00000000000E+00 -0.00000000000E+00 -0.21641245253E+03  0.21641245253E+03  0.00000000000E+00 0.  1.
         23    2    1    2    0    0 -0.42781526516E+03 -0.29491633399E+03  0.10140933974E+04  0.11432063032E+04  0.92377961889E+02 0.  0.
        254    2    1    2    0    0  0.42781526516E+03  0.29491633399E+03  0.16106221342E+04  0.19143341335E+04  0.89474575734E+03 0.  0.
        -24    2    4    4    0    0 -0.91048409381E+02 -0.22445225662E+03  0.20771359981E+03  0.32900182581E+03  0.80178759593E+02 0.  0.
         24    2    4    4    0    0  0.51886367454E+03  0.51936859061E+03  0.14029085344E+04  0.15853323077E+04  0.78504294131E+02 0.  0.
         11    1    3    3    0    0 -0.42361931281E+03 -0.27347028917E+03  0.98754245147E+03  0.11088189278E+04  0.00000000000E+00 0. -1.
        -11    1    3    3    0    0 -0.41959523445E+01 -0.21446044825E+02  0.26550945932E+02  0.34387375366E+02  0.00000000000E+00 0.  1.
          4    1    6    6  502    0  0.17969119900E+03  0.15006966627E+03  0.38424170266E+03  0.44994612766E+03  0.00000000000E+00 0. -1.
          1    1    5    5  503    0 -0.42202346226E+01 -0.13126984558E+01  0.31255314438E+02  0.31566251569E+02  0.00000000000E+00 0. -1.
         -2    1    5    5    0  503 -0.86828174758E+02 -0.22313955816E+03  0.17645828537E+03  0.29743557424E+03  0.00000000000E+00 0.  1.
         -3    1    6    6    0  502  0.33917247554E+03  0.36929892433E+03  0.10186668318E+04  0.11353861800E+04  0.00000000000E+00 0.  1.
<mgrwt>
<rscale>  0 0.15682544E+04</rscale>
<asrwt>0</asrwt>
<pdfrwt beam="1">  1        2 0.43709659E+00 0.15682544E+04</pdfrwt>
<pdfrwt beam="2">  1       -2 0.33294226E-01 0.15682544E+04</pdfrwt>
<totfact> 0.17770261E+01</totfact>
</mgrwt>
</event>
<event>
12    1  0.1549527E-007  0.1666041E+04  0.7818608E-02  0.8780973E-01
         -2   -1    0    0    0  501 -0.00000000000E+00  0.00000000000E+00  0.56473473934E+03  0.56473473934E+03  0.00000000000E+00 0.  1.
          2   -1    0    0  501    0  0.00000000000E+00 -0.00000000000E+00 -0.12287594786E+04  0.12287594786E+04  0.00000000000E+00 0. -1.
         23    2    1    2    0    0  0.25871837549E+03 -0.35025244702E+03 -0.65523034482E+03  0.79202537305E+03  0.91462628002E+02 0.  0.
        254    2    1    2    0    0 -0.25871837549E+03  0.35025244702E+03 -0.87943944165E+01  0.10014688449E+04  0.90180404269E+03 0.  0.
        -24    2    4    4    0    0 -0.45239818831E+03  0.43032465634E+03 -0.24561956905E+03  0.67567453683E+03  0.79772654314E+02 0.  0.
         24    2    4    4    0    0  0.19367981282E+03 -0.80072209321E+02  0.23682517463E+03  0.32579430804E+03  0.78309253693E+02 0.  0.
         11    1    3    3    0    0  0.16406574130E+03 -0.28076186646E+03 -0.44392113314E+03  0.55028244164E+03  0.00000000000E+00 0. -1.
        -11    1    3    3    0    0  0.94652634195E+02 -0.69490580553E+02 -0.21130921168E+03  0.24174293141E+03  0.00000000000E+00 0.  1.
          2    1    6    6  502    0  0.19340886705E+03 -0.89547531452E+02  0.21892238884E+03  0.30553684324E+03  0.00000000000E+00 0. -1.
          1    1    5    5  503    0 -0.30266468390E+03  0.33675745576E+03 -0.17118475971E+03  0.48406168703E+03  0.00000000000E+00 0. -1.
         -2    1    5    5    0  503 -0.14973350441E+03  0.93567200577E+02 -0.74434809343E+02  0.19161284980E+03  0.00000000000E+00 0.  1.
         -1    1    6    6    0  502  0.27094577236E+00  0.94753221310E+01  0.17902785794E+02  0.20257464804E+02  0.00000000000E+00 0.  1.
<mgrwt>
<rscale>  0 0.16660410E+04</rscale>
<asrwt>0</asrwt>
<pdfrwt beam="1">  1        2 0.18903992E+00 0.16660410E+04</pdfrwt>
<pdfrwt beam="2">  1       -2 0.86882269E-01 0.16660410E+04</pdfrwt>
<totfact> 0.19911767E+01</totfact>
</mgrwt>
</event>
<event>
12    1  0.1549527E-007  0.2596825E+04  0.7818608E-02  0.8369280E-01
         -1   -1    0    0    0  501 -0.00000000000E+00  0.00000000000E+00  0.66853364239E+03  0.66853364239E+03  0.00000000000E+00 0.  1.
          1   -1    0    0  501    0  0.00000000000E+00 -0.00000000000E+00 -0.25217511663E+04  0.25217511663E+04  0.00000000000E+00 0. -1.
         23    2    1    2    0    0 -0.73164340145E+03 -0.83014369408E+03 -0.11682891083E+04  0.16116001775E+04  0.88966688859E+02 0.  0.
        254    2    1    2    0    0  0.73164340145E+03  0.83014369408E+03 -0.68492841555E+03  0.15786846312E+04  0.89368764711E+03 0.  0.
        -24    2    4    4    0    0  0.78063936630E+03  0.38871534709E+03 -0.70925840691E+03  0.11267423932E+04  0.77482201634E+02 0.  0.
         24    2    4    4    0    0 -0.48995964855E+02  0.44142834700E+03  0.24329991354E+02  0.45194223799E+03  0.80001549348E+02 0.  0.
         13    1    3    3    0    0 -0.34204766568E+02 -0.69486374237E+02 -0.67890465687E+02  0.10299241521E+03  0.00000000000E+00 0.  1.
        -13    1    3    3    0    0 -0.69743863488E+03 -0.76065731985E+03 -0.11003986426E+04  0.15086077623E+04  0.00000000000E+00 0. -1.
          2    1    6    6  502    0 -0.38938704426E+02  0.27055104105E+03 -0.23118351364E+02  0.27431468551E+03  0.00000000000E+00 0. -1.
          1    1    5    5  503    0  0.24324585137E+03  0.10180337668E+03 -0.17506817736E+03  0.31651435740E+03  0.00000000000E+00 0. -1.
         -2    1    5    5    0  503  0.53739351493E+03  0.28691197040E+03 -0.53419022954E+03  0.81022803580E+03  0.00000000000E+00 0.  1.
         -1    1    6    6    0  502 -0.10057260429E+02  0.17087730595E+03  0.47448342718E+02  0.17762755248E+03  0.00000000000E+00 0.  1.
<mgrwt>
<rscale>  0 0.25968254E+04</rscale>
<asrwt>0</asrwt>
<pdfrwt beam="1">  1        1 0.38796172E+00 0.25968254E+04</pdfrwt>
<pdfrwt beam="2">  1       -1 0.10285133E+00 0.25968254E+04</pdfrwt>
<totfact> 0.10292686E+00</totfact>
</mgrwt>
</event>
<event>
12    1  0.1549527E-007  0.2147811E+04  0.7818608E-02  0.8540470E-01
         -2   -1    0    0    0  501 -0.00000000000E+00  0.00000000000E+00  0.34270950837E+03  0.34270950837E+03  0.00000000000E+00 0. -1.
          2   -1    0    0  501    0  0.00000000000E+00 -0.00000000000E+00 -0.33651611998E+04  0.33651611998E+04  0.00000000000E+00 0.  1.
         23    2    1    2    0    0 -0.44619312041E+03  0.75076470753E+03 -0.14693986364E+04  0.17115594604E+04  0.86991303564E+02 0.  0.
        254    2    1    2    0    0  0.44619312041E+03 -0.75076470753E+03 -0.15530530550E+04  0.19963112478E+04  0.90030487042E+03 0.  0.
        -24    2    4    4    0    0  0.27455864467E+03 -0.60862416239E+03 -0.16166644302E+04  0.17509531604E+04  0.80170253623E+02 0.  0.
         24    2    4    4    0    0  0.17163447574E+03 -0.14214054514E+03  0.63611375183E+02  0.24535808744E+03  0.80572055841E+02 0.  0.
         11    1    3    3    0    0 -0.10114984521E+03  0.12066418454E+03 -0.22364532377E+03  0.27351118344E+03  0.00000000000E+00 0. -1.
        -11    1    3    3    0    0 -0.34504327520E+03  0.63010052298E+03 -0.12457533126E+04  0.14380482769E+04  0.00000000000E+00 0.  1.
          2    1    6    6  502    0  0.99851333440E+02 -0.31606811551E+02  0.20780731142E+02  0.10677601844E+03  0.00000000000E+00 0. -1.
          3    1    5    5  503    0  0.10354804932E+03 -0.30829317707E+03 -0.84531277621E+03  0.90571550233E+03  0.00000000000E+00 0. -1.
         -4    1    5    5    0  503  0.17101059536E+03 -0.30033098532E+03 -0.77135165400E+03  0.84523765806E+03  0.00000000000E+00 0.  1.
         -1    1    6    6    0  502  0.71783142300E+02 -0.11053373359E+03  0.42830644041E+02  0.13858206900E+03  0.00000000000E+00 0.  1.
<mgrwt>
<rscale>  0 0.21478107E+04</rscale>
<asrwt>0</asrwt>
<pdfrwt beam="1">  1        2 0.51771709E+00 0.21478107E+04</pdfrwt>
<pdfrwt beam="2">  1       -2 0.52724542E-01 0.21478107E+04</pdfrwt>
<totfact> 0.31468224E+00</totfact>
</mgrwt>
</event>
<event>
12    1  0.1910588E-007  0.2334831E+04  0.7818608E-02  0.8464313E-01
          1   -1    0    0  501    0  0.00000000000E+00  0.00000000000E+00  0.16342025971E+04  0.16342025971E+04  0.00000000000E+00 0. -1.
         -1   -1    0    0    0  501 -0.00000000000E+00 -0.00000000000E+00 -0.83395960959E+03  0.83395960959E+03  0.00000000000E+00 0.  1.
         23    2    1    2    0    0  0.26295214715E+02 -0.14408232427E+03  0.13284595708E+04  0.13395371889E+04  0.90021634773E+02 0.  0.
        254    2    1    2    0    0 -0.26295214715E+02  0.14408232427E+03 -0.52821658327E+03  0.11286250178E+04  0.98657514538E+03 0.  0.
        -24    2    4    4    0    0 -0.28974223635E+03 -0.17914198094E+03  0.10512374972E+03  0.36561873775E+03  0.81139668368E+02 0.  0.
         24    2    4    4    0    0  0.26344702163E+03  0.32322430521E+03 -0.63334033300E+03  0.76300628005E+03  0.84736776559E+02 0.  0.
         11    1    3    3    0    0 -0.15601846673E+02 -0.79213573567E+02  0.41239773172E+03  0.42022624500E+03  0.00000000000E+00 0.  1.
        -11    1    3    3    0    0  0.41897061388E+02 -0.64868750704E+02  0.91606183910E+03  0.91931094393E+03  0.00000000000E+00 0. -1.
          4    1    6    6  502    0  0.25063238588E+03  0.28564386519E+03 -0.60414470405E+03  0.71372251891E+03  0.00000000000E+00 0. -1.
          3    1    5    5  503    0 -0.11879911022E+03 -0.40229079846E+02  0.66584368448E+02  0.14200382240E+03  0.00000000000E+00 0. -1.
         -4    1    5    5    0  503 -0.17094312613E+03 -0.13891290109E+03  0.38539381276E+02  0.22361491535E+03  0.00000000000E+00 0.  1.
         -1    1    6    6    0  502  0.12814635749E+02  0.37580440022E+02 -0.29195628949E+02  0.49283761132E+02  0.00000000000E+00 0.  1.
<mgrwt>
<rscale>  0 0.23348310E+04</rscale>
<asrwt>0</asrwt>
<pdfrwt beam="1">  1        1 0.25141578E+00 0.23348310E+04</pdfrwt>
<pdfrwt beam="2">  1       -1 0.12830148E+00 0.23348310E+04</pdfrwt>
<totfact> 0.24974993E+00</totfact>
</mgrwt>
</event>
<event>
12    1  0.1549527E-007  0.2379696E+04  0.7818608E-02  0.8447144E-01
         -1   -1    0    0    0  501 -0.00000000000E+00  0.00000000000E+00  0.15256885681E+04  0.15256885681E+04  0.00000000000E+00 0.  1.
          1   -1    0    0  501    0  0.00000000000E+00 -0.00000000000E+00 -0.92793383737E+03  0.92793383737E+03  0.00000000000E+00 0. -1.
         23    2    1    2    0    0  0.65748547421E+03  0.16673249997E+03  0.10386469913E+04  0.12439134471E+04  0.91903296568E+02 0.  0.
        254    2    1    2    0    0 -0.65748547421E+03 -0.16673249997E+03 -0.44089226058E+03  0.12097089584E+04  0.89940141386E+03 0.  0.
        -24    2    4    4    0    0 -0.20344484373E+03  0.28922125123E+03  0.85114264306E+02  0.37469468817E+03  0.90071831036E+02 0.  0.
         24    2    4    4    0    0 -0.45404063048E+03 -0.45595375120E+03 -0.52600652488E+03  0.83501427024E+03  0.80741872170E+02 0.  0.
         13    1    3    3    0    0  0.79775838389E+02  0.16188286755E+02  0.77170409408E+02  0.11216736204E+03  0.00000000000E+00 0. -1.
        -13    1    3    3    0    0  0.57770963582E+03  0.15054421322E+03  0.96147658190E+03  0.11317460850E+04  0.00000000000E+00 0.  1.
          2    1    6    6  502    0 -0.18025460509E+03 -0.23336243087E+03 -0.25996535705E+03  0.39310524502E+03  0.00000000000E+00 0. -1.
          3    1    5    5  503    0 -0.67183862171E+02  0.54355221925E+02 -0.99811792575E+01  0.86993019410E+02  0.00000000000E+00 0. -1.
         -4    1    5    5    0  503 -0.13626098156E+03  0.23486602931E+03  0.95095443564E+02  0.28770166876E+03  0.00000000000E+00 0.  1.
         -1    1    6    6    0  502 -0.27378602539E+03 -0.22259132033E+03 -0.26604116783E+03  0.44190902521E+03  0.00000000000E+00 0.  1.
<mgrwt>
<rscale>  0 0.23796958E+04</rscale>
<asrwt>0</asrwt>
<pdfrwt beam="1">  1        1 0.14275905E+00 0.23796958E+04</pdfrwt>
<pdfrwt beam="2">  1       -1 0.23472132E+00 0.23796958E+04</pdfrwt>
<totfact> 0.13614024E+00</totfact>
</mgrwt>
</event>
<event>
12    1  0.1549527E-007  0.2108087E+04  0.7818608E-02  0.8557690E-01
          1   -1    0    0  501    0  0.00000000000E+00  0.00000000000E+00  0.24612199743E+04  0.24612199743E+04  0.00000000000E+00 0. -1.
         -1   -1    0    0    0  501 -0.00000000000E+00 -0.00000000000E+00 -0.45140507580E+03  0.45140507580E+03  0.00000000000E+00 0.  1.
         23    2    1    2    0    0  0.88207502559E+02 -0.82285097289E+03  0.55725513624E+03  0.10015519866E+04  0.87799816905E+02 0.  0.
        254    2    1    2    0    0 -0.88207502559E+02  0.82285097289E+03  0.14525597623E+04  0.19110730636E+04  0.92596225849E+03 0.  0.
        -24    2    4    4    0    0 -0.99853098243E+02 -0.61729655891E+01  0.90529084041E+03  0.91423631114E+03  0.79169313125E+02 0.  0.
         24    2    4    4    0    0  0.11645595683E+02  0.82902393847E+03  0.54726892190E+03  0.99683675243E+03  0.82243101022E+02 0.  0.
         11    1    3    3    0    0  0.98445872319E+01 -0.19500978015E+03  0.89968551258E+02  0.21498853566E+03  0.00000000000E+00 0. -1.
        -11    1    3    3    0    0  0.78362915327E+02 -0.62784119274E+03  0.46728658498E+03  0.78656345091E+03  0.00000000000E+00 0.  1.
          4    1    6    6  502    0  0.29189111125E+02  0.27512681252E+03  0.14763524571E+03  0.31359676808E+03  0.00000000000E+00 0. -1.
          1    1    5    5  503    0 -0.85422017359E+02  0.12596116839E+02  0.84597395610E+03  0.85036904789E+03  0.00000000000E+00 0. -1.
         -2    1    5    5    0  503 -0.14431080883E+02 -0.18769082428E+02  0.59316884311E+02  0.63867263249E+02  0.00000000000E+00 0.  1.
         -3    1    6    6    0  502 -0.17543515441E+02  0.55389712596E+03  0.39963367619E+03  0.68323998435E+03  0.00000000000E+00 0.  1.
<mgrwt>
<rscale>  0 0.21080865E+04</rscale>
<asrwt>0</asrwt>
<pdfrwt beam="1">  1        1 0.37864922E+00 0.21080865E+04</pdfrwt>
<pdfrwt beam="2">  1       -1 0.69446936E-01 0.21080865E+04</pdfrwt>
<totfact> 0.27782994E+00</totfact>
</mgrwt>
</event>
<event>
12    1  0.1549527E-007  0.1181816E+04  0.7818608E-02  0.9128924E-01
         -2   -1    0    0    0  501 -0.00000000000E+00  0.00000000000E+00  0.42689213598E+03  0.42689213598E+03  0.00000000000E+00 0.  1.
          2   -1    0    0  501    0  0.00000000000E+00 -0.00000000000E+00 -0.81793983037E+03  0.81793983037E+03  0.00000000000E+00 0. -1.
         23    2    1    2    0    0 -0.12761620496E+03  0.63007686032E+02 -0.29469684800E+03  0.33764546803E+03  0.83080476578E+02 0.  0.
        254    2    1    2    0    0  0.12761620496E+03 -0.63007686032E+02 -0.96350846388E+02  0.90718649832E+03  0.89075697745E+03 0.  0.
        -24    2    4    4    0    0  0.49740915228E+03 -0.38617857667E+02 -0.14394919987E+03  0.52500231451E+03  0.77452271708E+02 0.  0.
         24    2    4    4    0    0 -0.36979294732E+03 -0.24389828365E+02  0.47598353480E+02  0.38218418381E+03  0.80358319325E+02 0.  0.
         11    1    3    3    0    0 -0.12815469466E+03  0.37749357715E+02 -0.20689119459E+03  0.24627749830E+03  0.00000000000E+00 0. -1.
        -11    1    3    3    0    0  0.53848969625E+00  0.25258328317E+02 -0.87805653412E+02  0.91367969725E+02  0.00000000000E+00 0.  1.
          2    1    6    6  502    0 -0.53539515591E+02 -0.55318478194E+01 -0.21434066260E+02  0.57935311050E+02  0.00000000000E+00 0. -1.
          3    1    5    5  503    0  0.21454328981E+03 -0.75166442048E+00 -0.98273908773E+02  0.23598124787E+03  0.00000000000E+00 0. -1.
         -4    1    5    5    0  503  0.28286586248E+03 -0.37866193246E+02 -0.45675291094E+02  0.28902106664E+03  0.00000000000E+00 0.  1.
         -1    1    6    6    0  502 -0.31625343173E+03 -0.18857980545E+02  0.69032419739E+02  0.32424887276E+03  0.00000000000E+00 0.  1.
<mgrwt>
<rscale>  0 0.11818157E+04</rscale>
<asrwt>0</asrwt>
<pdfrwt beam="1">  1        2 0.12583690E+00 0.11818157E+04</pdfrwt>
<pdfrwt beam="2">  1       -2 0.65675713E-01 0.11818157E+04</pdfrwt>
<totfact> 0.70555053E+01</totfact>
</mgrwt>
</event>
<event>
12    1  0.1549527E-007  0.1527139E+04  0.7818608E-02  0.8866604E-01
         -2   -1    0    0    0  501 -0.00000000000E+00  0.00000000000E+00  0.27151657922E+03  0.27151657922E+03  0.00000000000E+00 0.  1.
          2   -1    0    0  501    0  0.00000000000E+00 -0.00000000000E+00 -0.21473404334E+04  0.21473404334E+04  0.00000000000E+00 0. -1.
         23    2    1    2    0    0 -0.14143826849E+03  0.48286294197E+03 -0.88576942929E+03  0.10229626959E+04  0.93294109064E+02 0.  0.
        254    2    1    2    0    0  0.14143826849E+03 -0.48286294197E+03 -0.99005442487E+03  0.13958943167E+04  0.84566646778E+03 0.  0.
        -24    2    4    4    0    0  0.32919550041E+03 -0.51537364769E+03 -0.10148068519E+04  0.11875362002E+04  0.80184823273E+02 0.  0.
         24    2    4    4    0    0 -0.18775723192E+03  0.32510705717E+02  0.24752426987E+02  0.20835811656E+03  0.80564868090E+02 0.  0.
         11    1    3    3    0    0 -0.10916144020E+03  0.43462249993E+03 -0.82550023448E+03  0.93928886643E+03  0.00000000000E+00 0. -1.
        -11    1    3    3    0    0 -0.32276828291E+02  0.48240442040E+02 -0.60269194812E+02  0.83673829457E+02  0.00000000000E+00 0.  1.
          2    1    6    6  502    0 -0.74780200292E+02 -0.24685011078E+02  0.21729203617E+02  0.81692021749E+02  0.00000000000E+00 0. -1.
          3    1    5    5  503    0  0.29872180323E+03 -0.45090130664E+03 -0.93768911252E+03  0.10825006124E+04  0.00000000000E+00 0. -1.
         -4    1    5    5    0  503  0.30473697185E+02 -0.64472341048E+02 -0.77117739340E+02  0.10503558778E+03  0.00000000000E+00 0.  1.
         -1    1    6    6    0  502 -0.11297703163E+03  0.57195716795E+02  0.30232233701E+01  0.12666609481E+03  0.00000000000E+00 0.  1.
<mgrwt>
<rscale>  0 0.15271392E+04</rscale>
<asrwt>0</asrwt>
<pdfrwt beam="1">  1        2 0.33036007E+00 0.15271392E+04</pdfrwt>
<pdfrwt beam="2">  1       -2 0.41771781E-01 0.15271392E+04</pdfrwt>
<totfact> 0.28968748E+01</totfact>
</mgrwt>
</event>
<event>
12    1  0.1549527E-007  0.1266871E+04  0.7818608E-02  0.9056257E-01
         -2   -1    0    0    0  501 -0.00000000000E+00  0.00000000000E+00  0.14454738367E+04  0.14454738367E+04  0.00000000000E+00 0.  1.
          2   -1    0    0  501    0  0.00000000000E+00 -0.00000000000E+00 -0.27758419050E+03  0.27758419050E+03  0.00000000000E+00 0. -1.
         23    2    1    2    0    0  0.29494364691E+03  0.82900984261E+02  0.32716547733E+03  0.45761990553E+03  0.92273508321E+02 0.  0.
        254    2    1    2    0    0 -0.29494364691E+03 -0.82900984261E+02  0.84072416888E+03  0.12654381217E+04  0.89479169844E+03 0.  0.
        -24    2    4    4    0    0  0.27783435759E+03  0.62426124328E+02  0.95561696632E+02  0.31106130421E+03  0.80858801986E+02 0.  0.
         24    2    4    4    0    0 -0.57277800449E+03 -0.14532710859E+03  0.74516247224E+03  0.95437681746E+03  0.79833506433E+02 0.  0.
         11    1    3    3    0    0  0.20918191312E+03  0.84482926842E+02  0.28052152183E+03  0.35998161330E+03  0.00000000000E+00 0.  1.
        -11    1    3    3    0    0  0.85761733789E+02 -0.15819425809E+01  0.46643955497E+02  0.97638292228E+02  0.00000000000E+00 0. -1.
          2    1    6    6  502    0 -0.26142303092E+03 -0.60707322554E+02  0.27595011336E+03  0.38493615727E+03  0.00000000000E+00 0. -1.
          3    1    5    5  503    0  0.50420546382E+02 -0.11604958396E+02  0.40344950077E+02  0.65609614795E+02  0.00000000000E+00 0. -1.
         -4    1    5    5    0  503  0.22741381120E+03  0.74031082724E+02  0.55216746555E+02  0.24545168941E+03  0.00000000000E+00 0.  1.
         -1    1    6    6    0  502 -0.31135497357E+03 -0.84619786035E+02  0.46921235888E+03  0.56944066020E+03  0.00000000000E+00 0.  1.
<mgrwt>
<rscale>  0 0.12668712E+04</rscale>
<asrwt>0</asrwt>
<pdfrwt beam="1">  1        2 0.42705261E-01 0.12668712E+04</pdfrwt>
<pdfrwt beam="2">  1       -2 0.22238059E+00 0.12668712E+04</pdfrwt>
<totfact> 0.11231147E+01</totfact>
</mgrwt>
</event>
<event>
12    1  0.1549527E-007  0.1472008E+04  0.7818608E-02  0.8903284E-01
          1   -1    0    0  501    0  0.00000000000E+00  0.00000000000E+00  0.46191210497E+03  0.46191210497E+03  0.00000000000E+00 0. -1.
         -1   -1    0    0    0  501 -0.00000000000E+00 -0.00000000000E+00 -0.11727382434E+04  0.11727382434E+04  0.00000000000E+00 0.  1.
         23    2    1    2    0    0 -0.17792484111E+03  0.53684066332E+02  0.23999296933E+03  0.31658265802E+03  0.89937344672E+02 0.  0.
        254    2    1    2    0    0  0.17792484111E+03 -0.53684066332E+02 -0.95081910778E+03  0.13180676904E+04  0.89370366039E+03 0.  0.
        -24    2    4    4    0    0 -0.17806561802E+03  0.26088428575E+03 -0.10083009361E+03  0.34105305761E+03  0.79890584252E+02 0.  0.
         24    2    4    4    0    0  0.35599045913E+03 -0.31456835209E+03 -0.84998901417E+03  0.97701463275E+03  0.79961323608E+02 0.  0.
         11    1    3    3    0    0 -0.10634058371E+03  0.42490965434E+02  0.20787140801E+03  0.23732746186E+03  0.00000000000E+00 0. -1.
        -11    1    3    3    0    0 -0.71584257403E+02  0.11193100898E+02  0.32121561323E+02  0.79255196155E+02  0.00000000000E+00 0.  1.
          4    1    6    6  502    0  0.28422442329E+03 -0.28916107812E+03 -0.72440402159E+03  0.83015591210E+03  0.00000000000E+00 0. -1.
          1    1    5    5  503    0 -0.64459447140E+02  0.16088753016E+03 -0.39576128708E+02  0.17778101037E+03  0.00000000000E+00 0. -1.
         -2    1    5    5    0  503 -0.11360617088E+03  0.99996755597E+02 -0.61253964902E+02  0.16327204724E+03  0.00000000000E+00 0.  1.
         -3    1    6    6    0  502  0.71766035838E+02 -0.25407273963E+02 -0.12558499258E+03  0.14685872065E+03  0.00000000000E+00 0.  1.
<mgrwt>
<rscale>  0 0.14720081E+04</rscale>
<asrwt>0</asrwt>
<pdfrwt beam="1">  1        1 0.71063402E-01 0.14720081E+04</pdfrwt>
<pdfrwt beam="2">  1       -1 0.18042127E+00 0.14720081E+04</pdfrwt>
<totfact> 0.99000328E+00</totfact>
</mgrwt>
</event>
<event>
12    1  0.1549527E-007  0.1635569E+04  0.7818608E-02  0.8798990E-01
          3   -1    0    0  501    0  0.00000000000E+00  0.00000000000E+00  0.67702996882E+03  0.67702996882E+03  0.00000000000E+00 0. -1.
         -3   -1    0    0    0  501 -0.00000000000E+00 -0.00000000000E+00 -0.98780160285E+03  0.98780160285E+03  0.00000000000E+00 0.  1.
         23    2    1    2    0    0  0.11949885924E+03  0.19011583143E+03 -0.62256528418E+03  0.66806199046E+03  0.91078445925E+02 0.  0.
        254    2    1    2    0    0 -0.11949885924E+03 -0.19011583143E+03  0.31179365015E+03  0.99676958121E+03  0.91973382619E+03 0.  0.
        -24    2    4    4    0    0 -0.11080390779E+03 -0.54338581291E+03  0.78285372163E+02  0.56602593525E+03  0.81921378328E+02 0.  0.
         24    2    4    4    0    0 -0.86949514499E+01  0.35326998147E+03  0.23350827798E+03  0.43074364597E+03  0.78349796827E+02 0.  0.
         13    1    3    3    0    0  0.21614711315E+02  0.18969904797E+02 -0.19646073601E+03  0.19855446061E+03  0.00000000000E+00 0. -1.
        -13    1    3    3    0    0  0.97884147922E+02  0.17114592664E+03 -0.42610454817E+03  0.46950752985E+03  0.00000000000E+00 0.  1.
          2    1    6    6  502    0  0.85248023805E-01  0.31501336665E+03  0.23242451840E+03  0.39147743892E+03  0.00000000000E+00 0. -1.
          3    1    5    5  503    0 -0.12231131813E+03 -0.45326244604E+03  0.71872984686E+02  0.47494486992E+03  0.00000000000E+00 0. -1.
         -4    1    5    5    0  503  0.11507410344E+02 -0.90123366868E+02  0.64123874767E+01  0.91081065330E+02  0.00000000000E+00 0.  1.
         -1    1    6    6    0  502 -0.87801994737E+01  0.38256614827E+02  0.10837595870E+01  0.39266207045E+02  0.00000000000E+00 0.  1.
<mgrwt>
<rscale>  0 0.16355688E+04</rscale>
<asrwt>0</asrwt>
<pdfrwt beam="1">  1        3 0.10415846E+00 0.16355688E+04</pdfrwt>
<pdfrwt beam="2">  1       -3 0.15196948E+00 0.16355688E+04</pdfrwt>
<totfact> 0.62038714E-01</totfact>
</mgrwt>
</event>
<event>
12    1  0.1549527E-007  0.1301415E+04  0.7818608E-02  0.9028444E-01
         -1   -1    0    0    0  501 -0.00000000000E+00  0.00000000000E+00  0.19668161856E+03  0.19668161856E+03  0.00000000000E+00 0.  1.
          1   -1    0    0  501    0  0.00000000000E+00 -0.00000000000E+00 -0.21528199805E+04  0.21528199805E+04  0.00000000000E+00 0. -1.
         23    2    1    2    0    0  0.46713998354E+02  0.31716976498E+03 -0.38666839334E+03  0.51068198553E+03  0.92221399191E+02 0.  0.
        254    2    1    2    0    0 -0.46713998354E+02 -0.31716976498E+03 -0.15694699685E+04  0.18388196135E+04  0.90290793069E+03 0.  0.
        -24    2    4    4    0    0 -0.28736205486E+03 -0.38306604154E+03 -0.14866163755E+04  0.15639671700E+04  0.81538445270E+02 0.  0.
         24    2    4    4    0    0  0.24064805651E+03  0.65896276557E+02 -0.82853593032E+02  0.27485244351E+03  0.80158227650E+02 0.  0.
         13    1    3    3    0    0 -0.22751226382E+02  0.27672824509E+02 -0.38761209029E+02  0.52781008361E+02  0.00000000000E+00 0. -1.
        -13    1    3    3    0    0  0.69465224737E+02  0.28949694047E+03 -0.34790718431E+03  0.45790097717E+03  0.00000000000E+00 0.  1.
          2    1    6    6  502    0 -0.50540212326E+01  0.53836650946E+01  0.25077222749E+01  0.77984390411E+01  0.00000000000E+00 0. -1.
          1    1    5    5  503    0 -0.11533768949E+03 -0.22146604778E+03 -0.77418576997E+03  0.81345780429E+03  0.00000000000E+00 0. -1.
         -2    1    5    5    0  503 -0.17202436537E+03 -0.16159999376E+03 -0.71243060555E+03  0.75050936569E+03  0.00000000000E+00 0.  1.
         -1    1    6    6    0  502  0.24570207774E+03  0.60512611463E+02 -0.85361315306E+02  0.26705400447E+03  0.00000000000E+00 0.  1.
<mgrwt>
<rscale>  0 0.13014148E+04</rscale>
<asrwt>0</asrwt>
<pdfrwt beam="1">  1        1 0.33120306E+00 0.13014148E+04</pdfrwt>
<pdfrwt beam="2">  1       -1 0.30258712E-01 0.13014148E+04</pdfrwt>
<totfact> 0.23213689E+01</totfact>
</mgrwt>
</event>
<event>
12    1  0.1549527E-007  0.1508220E+04  0.7818608E-02  0.8879005E-01
          1   -1    0    0  501    0  0.00000000000E+00  0.00000000000E+00  0.57142522135E+03  0.57142522135E+03  0.00000000000E+00 0. -1.
         -1   -1    0    0    0  501 -0.00000000000E+00 -0.00000000000E+00 -0.99519950314E+03  0.99519950314E+03  0.00000000000E+00 0.  1.
         23    2    1    2    0    0  0.10030670396E+03  0.32242898912E+03  0.21422288548E+03  0.41025749849E+03  0.91639961393E+02 0.  0.
        254    2    1    2    0    0 -0.10030670396E+03 -0.32242898912E+03 -0.63799716727E+03  0.11563672260E+04  0.90339520036E+03 0.  0.
        -24    2    4    4    0    0 -0.44472688601E+03  0.43375850767E+02 -0.26324074712E+03  0.52444218984E+03  0.77977252898E+02 0.  0.
         24    2    4    4    0    0  0.34442018205E+03 -0.36580483988E+03 -0.37475642015E+03  0.63192503616E+03  0.80302143182E+02 0.  0.
         11    1    3    3    0    0  0.84294327588E+02  0.26117014178E+03  0.21220267740E+03  0.34690827739E+03  0.00000000000E+00 0. -1.
        -11    1    3    3    0    0  0.16012376376E+02  0.61258847336E+02  0.20202080728E+01  0.63349221106E+02  0.00000000000E+00 0.  1.
          2    1    6    6  502    0  0.26014090350E+03 -0.26722657036E+03 -0.23276192817E+03  0.43961510983E+03  0.00000000000E+00 0. -1.
          1    1    5    5  503    0 -0.36271146200E+03  0.21611179425E+02 -0.24326216249E+03  0.43726779831E+03  0.00000000000E+00 0. -1.
         -2    1    5    5    0  503 -0.82015424009E+02  0.21764671342E+02 -0.19978584629E+02  0.87174391525E+02  0.00000000000E+00 0.  1.
         -1    1    6    6    0  502  0.84279278543E+02 -0.98578269522E+02 -0.14199449198E+03  0.19230992633E+03  0.00000000000E+00 0.  1.
<mgrwt>
<rscale>  0 0.15082203E+04</rscale>
<asrwt>0</asrwt>
<pdfrwt beam="1">  1        1 0.87911572E-01 0.15082203E+04</pdfrwt>
<pdfrwt beam="2">  1       -1 0.15310762E+00 0.15082203E+04</pdfrwt>
<totfact> 0.11721594E+01</totfact>
</mgrwt>
</event>
<event>
12    1  0.1549527E-007  0.1568262E+04  0.7818608E-02  0.8840287E-01
         -3   -1    0    0    0  501 -0.00000000000E+00  0.00000000000E+00  0.32575693388E+03  0.32575693388E+03  0.00000000000E+00 0.  1.
          3   -1    0    0  501    0  0.00000000000E+00 -0.00000000000E+00 -0.18874845628E+04  0.18874845628E+04  0.00000000000E+00 0. -1.
         23    2    1    2    0    0  0.73138044170E+02 -0.42806911854E+03 -0.12656929453E+03  0.46144255616E+03  0.91198150008E+02 0.  0.
        254    2    1    2    0    0 -0.73138044170E+02  0.42806911854E+03 -0.14351583344E+04  0.17517989405E+04  0.90582986231E+03 0.  0.
        -24    2    4    4    0    0 -0.35553905549E+03  0.50409629470E+02 -0.11205446554E+04  0.11793598985E+04  0.79500282256E+02 0.  0.
         24    2    4    4    0    0  0.28240101132E+03  0.37765948907E+03 -0.31461367901E+03  0.57243904197E+03  0.79546645853E+02 0.  0.
         11    1    3    3    0    0  0.81858320274E+02 -0.25190680117E+03 -0.51900066801E+02  0.26991005540E+03  0.00000000000E+00 0.  1.
        -11    1    3    3    0    0 -0.87202761036E+01 -0.17616231737E+03 -0.74669227729E+02  0.19153250076E+03  0.00000000000E+00 0. -1.
          2    1    6    6  502    0  0.17627892811E+03  0.26620095244E+03 -0.17218251263E+03  0.36274512434E+03  0.00000000000E+00 0. -1.
          3    1    5    5  503    0 -0.31938265722E+03  0.64434581393E+02 -0.10421971576E+04  0.10919395644E+04  0.00000000000E+00 0. -1.
         -2    1    5    5    0  503 -0.36156398269E+02 -0.14024951924E+02 -0.78347497765E+02  0.87420334124E+02  0.00000000000E+00 0.  1.
         -1    1    6    6    0  502  0.10612208321E+03  0.11145853663E+03 -0.14243116639E+03  0.20969391763E+03  0.00000000000E+00 0.  1.
<mgrwt>
<rscale>  0 0.15682617E+04</rscale>
<asrwt>0</asrwt>
<pdfrwt beam="1">  1        3 0.29038224E+00 0.15682617E+04</pdfrwt>
<pdfrwt beam="2">  1       -3 0.50116452E-01 0.15682617E+04</pdfrwt>
<totfact> 0.43615855E-01</totfact>
</mgrwt>
</event>
<event>
12    1  0.1549527E-007  0.2118536E+04  0.7818608E-02  0.8553122E-01
         -2   -1    0    0    0  501 -0.00000000000E+00  0.00000000000E+00  0.37298153942E+03  0.37298153942E+03  0.00000000000E+00 0.  1.
          2   -1    0    0  501    0  0.00000000000E+00 -0.00000000000E+00 -0.30083230565E+04  0.30083230565E+04  0.00000000000E+00 0. -1.
         23    2    1    2    0    0  0.66945861669E+03  0.22292917933E+03 -0.27466935164E+03  0.76244133680E+03  0.89449879115E+02 0.  0.
        254    2    1    2    0    0 -0.66945861669E+03 -0.22292917933E+03 -0.23606721654E+04  0.26188632591E+04  0.88758066607E+03 0.  0.
        -24    2    4    4    0    0 -0.64314377318E+03 -0.40253556600E+03 -0.10779560249E+04  0.13209281797E+04  0.84813143384E+02 0.  0.
         24    2    4    4    0    0 -0.26314843502E+02  0.17960638666E+03 -0.12827161405E+04  0.12979350794E+04  0.79522626947E+02 0.  0.
         11    1    3    3    0    0  0.76350317399E+02 -0.28371157590E+01 -0.35465508742E+02  0.84233143732E+02  0.00000000000E+00 0. -1.
        -11    1    3    3    0    0  0.59310829929E+03  0.22576629509E+03 -0.23920384290E+03  0.67820819307E+03  0.00000000000E+00 0.  1.
          4    1    6    6  502    0  0.28473621391E+02  0.71995140126E+02 -0.49854434807E+03  0.50452008316E+03  0.00000000000E+00 0. -1.
          3    1    5    5  503    0 -0.22159095348E+03 -0.11233600450E+03 -0.41082719834E+03  0.48010510877E+03  0.00000000000E+00 0. -1.
         -4    1    5    5    0  503 -0.42155281971E+03 -0.29019956150E+03 -0.66712882659E+03  0.84082307090E+03  0.00000000000E+00 0.  1.
         -3    1    6    6    0  502 -0.54788464893E+02  0.10761124654E+03 -0.78417179241E+03  0.79341499625E+03  0.00000000000E+00 0.  1.
<mgrwt>
<rscale>  0 0.21185363E+04</rscale>
<asrwt>0</asrwt>
<pdfrwt beam="1">  1        2 0.46281893E+00 0.21185363E+04</pdfrwt>
<pdfrwt beam="2">  1       -2 0.57381775E-01 0.21185363E+04</pdfrwt>
<totfact> 0.45117794E+00</totfact>
</mgrwt>
</event>
<event>
12    1  0.1549527E-007  0.2540895E+04  0.7818608E-02  0.8388559E-01
         -4   -1    0    0    0  501 -0.00000000000E+00  0.00000000000E+00  0.11469506067E+04  0.11469506067E+04  0.00000000000E+00 0.  1.
          4   -1    0    0  501    0  0.00000000000E+00 -0.00000000000E+00 -0.14072422666E+04  0.14072422666E+04  0.00000000000E+00 0. -1.
         23    2    1    2    0    0 -0.74087536652E+03 -0.80917391028E+03  0.32305026211E+02  0.11049028457E+04  0.12691712993E+03 0.  0.
        254    2    1    2    0    0  0.74087536652E+03  0.80917391028E+03 -0.29259668605E+03  0.14492900277E+04  0.90064978642E+03 0.  0.
        -24    2    4    4    0    0  0.90264379326E+03  0.81440893493E+03 -0.33487513607E+03  0.12635968210E+04  0.80671174449E+02 0.  0.
         24    2    4    4    0    0 -0.16176842673E+03 -0.52350246468E+01  0.42278450015E+02  0.18569320670E+03  0.80610609153E+02 0.  0.
         11    1    3    3    0    0 -0.66854473078E+03 -0.70074408071E+03 -0.77965396295E+01  0.96853245157E+03  0.00000000000E+00 0. -1.
        -11    1    3    3    0    0 -0.72330635742E+02 -0.10842982957E+03  0.40101565840E+02  0.13637039411E+03  0.00000000000E+00 0.  1.
          4    1    6    6  502    0 -0.10305032267E+03  0.11806474774E+01 -0.14125697493E+02  0.10402066266E+03  0.00000000000E+00 0. -1.
          3    1    5    5  503    0  0.27383394697E+03  0.26590753555E+03 -0.69317790582E+02  0.38793917573E+03  0.00000000000E+00 0. -1.
         -4    1    5    5    0  503  0.62880984628E+03  0.54850139938E+03 -0.26555734549E+03  0.87565764523E+03  0.00000000000E+00 0.  1.
         -3    1    6    6    0  502 -0.58718104063E+02 -0.64156721242E+01  0.56404147508E+02  0.81672544038E+02  0.00000000000E+00 0.  1.
<mgrwt>
<rscale>  0 0.25408954E+04</rscale>
<asrwt>0</asrwt>
<pdfrwt beam="1">  1        4 0.21649881E+00 0.25408954E+04</pdfrwt>
<pdfrwt beam="2">  1       -4 0.17645394E+00 0.25408954E+04</pdfrwt>
<totfact> 0.34651296E-02</totfact>
</mgrwt>
</event>
<event>
12    1  0.1549527E-007  0.2076428E+04  0.7818608E-02  0.8571699E-01
         -1   -1    0    0    0  501 -0.00000000000E+00  0.00000000000E+00  0.44672160502E+03  0.44672160502E+03  0.00000000000E+00 0.  1.
          1   -1    0    0  501    0  0.00000000000E+00 -0.00000000000E+00 -0.24128860114E+04  0.24128860114E+04  0.00000000000E+00 0. -1.
         23    2    1    2    0    0 -0.54319310742E+03  0.59692394986E+03 -0.50777666682E+03  0.95793980806E+03  0.91839962080E+02 0.  0.
        254    2    1    2    0    0  0.54319310742E+03 -0.59692394986E+03 -0.14583877395E+04  0.19016678083E+04  0.91546092247E+03 0.  0.
        -24    2    4    4    0    0  0.25671897049E+03  0.16085322271E+03 -0.78548183797E+03  0.84559851062E+03  0.79225843700E+02 0.  0.
         24    2    4    4    0    0  0.28647413692E+03 -0.75777717257E+03 -0.67290590154E+03  0.10560692977E+04  0.78653256903E+02 0.  0.
         11    1    3    3    0    0 -0.39098562169E+03  0.46387465074E+03 -0.34151171305E+03  0.69618941253E+03  0.00000000000E+00 0.  1.
        -11    1    3    3    0    0 -0.15220748573E+03  0.13304929912E+03 -0.16626495377E+03  0.26175039553E+03  0.00000000000E+00 0. -1.
          2    1    6    6  502    0  0.54114305486E+02 -0.74976957822E+02 -0.68997808237E+02  0.11537157277E+03  0.00000000000E+00 0. -1.
          1    1    5    5  503    0  0.63648929271E+02  0.13461943828E+02 -0.23641946685E+03  0.24520720714E+03  0.00000000000E+00 0. -1.
         -2    1    5    5    0  503  0.19307004122E+03  0.14739127888E+03 -0.54906237112E+03  0.60039130348E+03  0.00000000000E+00 0.  1.
         -1    1    6    6    0  502  0.23235983144E+03 -0.68280021475E+03 -0.60390809331E+03  0.94069772493E+03  0.00000000000E+00 0.  1.
<mgrwt>
<rscale>  0 0.20764280E+04</rscale>
<asrwt>0</asrwt>
<pdfrwt beam="1">  1        1 0.37121323E+00 0.20764280E+04</pdfrwt>
<pdfrwt beam="2">  1       -1 0.68726401E-01 0.20764280E+04</pdfrwt>
<totfact> 0.30737384E+00</totfact>
</mgrwt>
</event>
<event>
12    1  0.1549527E-007  0.1184854E+04  0.7818608E-02  0.9126218E-01
         -1   -1    0    0    0  501 -0.00000000000E+00  0.00000000000E+00  0.32168972438E+03  0.32168972438E+03  0.00000000000E+00 0.  1.
          1   -1    0    0  501    0  0.00000000000E+00 -0.00000000000E+00 -0.10910202882E+04  0.10910202882E+04  0.00000000000E+00 0. -1.
         23    2    1    2    0    0  0.93545806372E+02  0.13080504033E+03 -0.37589954872E+03  0.41884958795E+03  0.90960046928E+02 0.  0.
        254    2    1    2    0    0 -0.93545806372E+02 -0.13080504033E+03 -0.39343101515E+03  0.99386042468E+03  0.89839290046E+03 0.  0.
        -24    2    4    4    0    0 -0.11093975196E+03  0.26266218829E+03 -0.49719194677E+03  0.57889677538E+03  0.81379302594E+02 0.  0.
         24    2    4    4    0    0  0.17393945588E+02 -0.39346722861E+03  0.10376093162E+03  0.41496364930E+03  0.79432298028E+02 0.  0.
         11    1    3    3    0    0  0.35123860252E+02  0.33406691725E+01 -0.32672679959E+02  0.48086896815E+02  0.00000000000E+00 0.  1.
        -11    1    3    3    0    0  0.58421946120E+02  0.12746437115E+03 -0.34322686876E+03  0.37076269114E+03  0.00000000000E+00 0. -1.
          2    1    6    6  502    0  0.25637254864E+02 -0.26794753785E+03  0.34519593445E+02  0.27137566989E+03  0.00000000000E+00 0. -1.
          1    1    5    5  503    0 -0.10606190624E+03  0.25662822391E+03 -0.43400610446E+03  0.51523632633E+03  0.00000000000E+00 0. -1.
         -2    1    5    5    0  503 -0.48778457251E+01  0.60339643817E+01 -0.63185842307E+02  0.63660449049E+02  0.00000000000E+00 0.  1.
         -1    1    6    6    0  502 -0.82433092762E+01 -0.12551969076E+03  0.69241338177E+02  0.14358797940E+03  0.00000000000E+00 0.  1.
<mgrwt>
<rscale>  0 0.11848544E+04</rscale>
<asrwt>0</asrwt>
<pdfrwt beam="1">  1        1 0.16784928E+00 0.11848544E+04</pdfrwt>
<pdfrwt beam="2">  1       -1 0.49490727E-01 0.11848544E+04</pdfrwt>
<totfact> 0.52207287E+01</totfact>
</mgrwt>
</event>
<event>
12    1  0.1549527E-007  0.1280376E+04  0.7818608E-02  0.9045274E-01
          1   -1    0    0  501    0  0.00000000000E+00  0.00000000000E+00  0.75555954893E+03  0.75555954893E+03  0.00000000000E+00 0. -1.
         -1   -1    0    0    0  501 -0.00000000000E+00 -0.00000000000E+00 -0.54243315610E+03  0.54243315610E+03  0.00000000000E+00 0.  1.
         23    2    1    2    0    0  0.15926017688E+03 -0.14895413448E+03 -0.17914926008E+03  0.29665323725E+03  0.91419624047E+02 0.  0.
        254    2    1    2    0    0 -0.15926017688E+03  0.14895413448E+03  0.39227565291E+03  0.10013394678E+04  0.89512535645E+03 0.  0.
        -24    2    4    4    0    0  0.21098405143E+03 -0.23115033616E+03 -0.23293268859E+02  0.32246952758E+03  0.74157076398E+02 0.  0.
         24    2    4    4    0    0 -0.37024422831E+03  0.38010447064E+03  0.41556892177E+03  0.67886994021E+03  0.81281423344E+02 0.  0.
         13    1    3    3    0    0  0.10811057591E+03 -0.14063202264E+03 -0.10481336236E+03  0.20603665535E+03  0.00000000000E+00 0.  1.
        -13    1    3    3    0    0  0.51149600975E+02 -0.83221118333E+01 -0.74335897722E+02  0.90616581900E+02  0.00000000000E+00 0. -1.
          4    1    6    6  502    0 -0.52539196730E+01  0.94224686006E+01 -0.29692575950E+01  0.11189418087E+02  0.00000000000E+00 0. -1.
          3    1    5    5  503    0  0.18983438456E+02  0.14999531261E+01 -0.73190373942E+01  0.20400713306E+02  0.00000000000E+00 0. -1.
         -4    1    5    5    0  503  0.19200061297E+03 -0.23265028929E+03 -0.15974231465E+02  0.30206881427E+03  0.00000000000E+00 0.  1.
         -3    1    6    6    0  502 -0.36499030864E+03  0.37068200204E+03  0.41853817936E+03  0.66768052212E+03  0.00000000000E+00 0.  1.
<mgrwt>
<rscale>  0 0.12803758E+04</rscale>
<asrwt>0</asrwt>
<pdfrwt beam="1">  1        1 0.11623993E+00 0.12803758E+04</pdfrwt>
<pdfrwt beam="2">  1       -1 0.83451254E-01 0.12803758E+04</pdfrwt>
<totfact> 0.33955866E+01</totfact>
</mgrwt>
</event>
<event>
12    1  0.1549527E-007  0.1449371E+04  0.7818608E-02  0.8918837E-01
         -1   -1    0    0    0  501 -0.00000000000E+00  0.00000000000E+00  0.54706522553E+03  0.54706522553E+03  0.00000000000E+00 0.  1.
          1   -1    0    0  501    0  0.00000000000E+00 -0.00000000000E+00 -0.95997460634E+03  0.95997460634E+03  0.00000000000E+00 0. -1.
         23    2    1    2    0    0 -0.40976092022E+03 -0.49539129015E+02  0.17240614412E+02  0.42437178006E+03  0.97139239676E+02 0.  0.
        254    2    1    2    0    0  0.40976092022E+03  0.49539129015E+02 -0.43014999522E+03  0.10826680518E+04  0.90376045220E+03 0.  0.
        -24    2    4    4    0    0 -0.63685994578E+02  0.38919068768E+03 -0.21217254557E+03  0.45501423678E+03  0.80594474334E+02 0.  0.
         24    2    4    4    0    0  0.47344691480E+03 -0.33965155866E+03 -0.21797744965E+03  0.62765381503E+03  0.83186420330E+02 0.  0.
         11    1    3    3    0    0 -0.39191264681E+03 -0.66179312292E+02  0.26329510194E+02  0.39833210668E+03  0.00000000000E+00 0.  1.
        -11    1    3    3    0    0 -0.17848273404E+02  0.16640183277E+02 -0.90888957827E+01  0.26039673376E+02  0.00000000000E+00 0. -1.
          4    1    6    6  502    0  0.14016536886E+03 -0.11461670867E+03 -0.29173393838E+02  0.18339685778E+03  0.00000000000E+00 0. -1.
          1    1    5    5  503    0 -0.42610337048E+01  0.86538703804E-01 -0.13389805916E+02  0.14051718744E+02  0.00000000000E+00 0. -1.
         -2    1    5    5    0  503 -0.59424960873E+02  0.38910414898E+03 -0.19878273966E+03  0.44096251803E+03  0.00000000000E+00 0.  1.
         -3    1    6    6    0  502  0.33328154593E+03 -0.22503484999E+03 -0.18880405581E+03  0.44425695725E+03  0.00000000000E+00 0.  1.
<mgrwt>
<rscale>  0 0.14493705E+04</rscale>
<asrwt>0</asrwt>
<pdfrwt beam="1">  1        1 0.14768840E+00 0.14493705E+04</pdfrwt>
<pdfrwt beam="2">  1       -1 0.84163882E-01 0.14493705E+04</pdfrwt>
<totfact> 0.22114965E+01</totfact>
</mgrwt>
</event>
<event>
12    1  0.1549527E-007  0.1425040E+04  0.7818608E-02  0.8935890E-01
         -2   -1    0    0    0  501 -0.00000000000E+00  0.00000000000E+00  0.18832123456E+03  0.18832123456E+03  0.00000000000E+00 0.  1.
          2   -1    0    0  501    0  0.00000000000E+00 -0.00000000000E+00 -0.26958442104E+04  0.26958442104E+04  0.00000000000E+00 0. -1.
         23    2    1    2    0    0 -0.23252780731E+03  0.61251325614E+02 -0.14335869569E+04  0.14565287318E+04  0.92105794584E+02 0.  0.
        254    2    1    2    0    0  0.23252780731E+03 -0.61251325614E+02 -0.10739360189E+04  0.14276367131E+04  0.90938831418E+03 0.  0.
        -24    2    4    4    0    0 -0.18625659230E+03  0.38576337887E+02 -0.95002270181E+03  0.97253374936E+03  0.84256202515E+02 0.  0.
         24    2    4    4    0    0  0.41878439961E+03 -0.99827663501E+02 -0.12391331708E+03  0.45510296378E+03  0.80114054558E+02 0.  0.
         11    1    3    3    0    0 -0.79948135808E+02  0.60365292087E+02 -0.70972155530E+03  0.71675683391E+03  0.00000000000E+00 0. -1.
        -11    1    3    3    0    0 -0.15257967150E+03  0.88603352745E+00 -0.72386540162E+03  0.73977189786E+03  0.00000000000E+00 0.  1.
          4    1    6    6  502    0  0.20457769682E+03 -0.47212703235E+02 -0.10206751912E+03  0.23344989150E+03  0.00000000000E+00 0. -1.
          1    1    5    5  503    0 -0.15141801206E+03  0.19940170719E+02 -0.86983310347E+03  0.88313909022E+03  0.00000000000E+00 0. -1.
         -2    1    5    5    0  503 -0.34838580241E+02  0.18636167168E+02 -0.80189598340E+02  0.89394659135E+02  0.00000000000E+00 0.  1.
         -1    1    6    6    0  502  0.21420670279E+03 -0.52614960266E+02 -0.21845797965E+02  0.22165307228E+03  0.00000000000E+00 0.  1.
<mgrwt>
<rscale>  0 0.14250399E+04</rscale>
<asrwt>0</asrwt>
<pdfrwt beam="1">  1        2 0.41474526E+00 0.14250399E+04</pdfrwt>
<pdfrwt beam="2">  1       -2 0.28972498E-01 0.14250399E+04</pdfrwt>
<totfact> 0.28540404E+01</totfact>
</mgrwt>
</event>
<event>
12    1  0.1549527E-007  0.1617771E+04  0.7818608E-02  0.8809704E-01
         -2   -1    0    0    0  501 -0.00000000000E+00  0.00000000000E+00  0.25891508417E+03  0.25891508417E+03  0.00000000000E+00 0.  1.
          2   -1    0    0  501    0  0.00000000000E+00 -0.00000000000E+00 -0.25270683293E+04  0.25270683293E+04  0.00000000000E+00 0. -1.
         23    2    1    2    0    0 -0.18353311427E+03  0.43462392806E+03 -0.30363327329E+03  0.57054419599E+03  0.10365882523E+03 0.  0.
        254    2    1    2    0    0  0.18353311427E+03 -0.43462392806E+03 -0.19645199719E+04  0.22154392175E+04  0.90898286217E+03 0.  0.
        -24    2    4    4    0    0 -0.29790100846E+03  0.58811030949E+02 -0.80120802607E+03  0.86073941629E+03  0.82062741329E+02 0.  0.
         24    2    4    4    0    0  0.48143412273E+03 -0.49343495901E+03 -0.11633119458E+04  0.13546998012E+04  0.81608791622E+02 0.  0.
         11    1    3    3    0    0 -0.15823257540E+03  0.25989831884E+03 -0.21809190349E+03  0.37436447804E+03  0.00000000000E+00 0. -1.
        -11    1    3    3    0    0 -0.25300538866E+02  0.17472560922E+03 -0.85541369806E+02  0.19617971794E+03  0.00000000000E+00 0.  1.
          4    1    6    6  502    0  0.28890501235E+03 -0.29532286235E+03 -0.61749504113E+03  0.74295479338E+03  0.00000000000E+00 0. -1.
          1    1    5    5  503    0 -0.25707070294E+02  0.25582779740E+02 -0.14655663968E+03  0.15097741790E+03  0.00000000000E+00 0. -1.
         -2    1    5    5    0  503 -0.27219393817E+03  0.33228251208E+02 -0.65465138639E+03  0.70976199839E+03  0.00000000000E+00 0.  1.
         -3    1    6    6    0  502  0.19252911038E+03 -0.19811209666E+03 -0.54581690467E+03  0.61174500784E+03  0.00000000000E+00 0.  1.
<mgrwt>
<rscale>  0 0.16177714E+04</rscale>
<asrwt>0</asrwt>
<pdfrwt beam="1">  1        2 0.38877973E+00 0.16177714E+04</pdfrwt>
<pdfrwt beam="2">  1       -2 0.39833091E-01 0.16177714E+04</pdfrwt>
<totfact> 0.19213439E+01</totfact>
</mgrwt>
</event>
<event>
12    1  0.1549527E-007  0.1722371E+04  0.7818608E-02  0.8748707E-01
         -1   -1    0    0    0  501 -0.00000000000E+00  0.00000000000E+00  0.52969390416E+03  0.52969390416E+03  0.00000000000E+00 0.  1.
          1   -1    0    0  501    0  0.00000000000E+00 -0.00000000000E+00 -0.14001295170E+04  0.14001295170E+04  0.00000000000E+00 0. -1.
         23    2    1    2    0    0  0.80627778038E+02 -0.39418986804E+03  0.21308175507E+03  0.46414307511E+03  0.90213464500E+02 0.  0.
        254    2    1    2    0    0 -0.80627778038E+02  0.39418986804E+03 -0.10835173679E+04  0.14656803460E+04  0.90128935394E+03 0.  0.
        -24    2    4    4    0    0 -0.12291757467E+03 -0.26595246732E+03 -0.47229776351E+03  0.56165301091E+03  0.80928871317E+02 0.  0.
         24    2    4    4    0    0  0.42289796636E+02  0.66014233536E+03 -0.61121960437E+03  0.90402733510E+03  0.78100499386E+02 0.  0.
         11    1    3    3    0    0  0.83420575586E+02 -0.18299038672E+03  0.10196523226E+03  0.22548033762E+03  0.00000000000E+00 0. -1.
        -11    1    3    3    0    0 -0.27927975480E+01 -0.21119948131E+03  0.11111652281E+03  0.23866273749E+03  0.00000000000E+00 0.  1.
          4    1    6    6  502    0 -0.17169874966E+02  0.20440774973E+03 -0.21582896437E+03  0.29775740900E+03  0.00000000000E+00 0. -1.
          1    1    5    5  503    0 -0.10370075178E+02 -0.56283482397E+02 -0.45967365388E+02  0.73405500684E+02  0.00000000000E+00 0. -1.
         -2    1    5    5    0  503 -0.11254749950E+03 -0.20966898493E+03 -0.42633039812E+03  0.48824751023E+03  0.00000000000E+00 0.  1.
         -3    1    6    6    0  502  0.59459671602E+02  0.45573458563E+03 -0.39539064000E+03  0.60626992610E+03  0.00000000000E+00 0.  1.
<mgrwt>
<rscale>  0 0.17223705E+04</rscale>
<asrwt>0</asrwt>
<pdfrwt beam="1">  1        1 0.21540453E+00 0.17223705E+04</pdfrwt>
<pdfrwt beam="2">  1       -1 0.81491372E-01 0.17223705E+04</pdfrwt>
<totfact> 0.10939934E+01</totfact>
</mgrwt>
</event>
<event>
12    1  0.1657329E-007  0.2434310E+04  0.7818608E-02  0.8426769E-01
         -1   -1    0    0    0  501 -0.00000000000E+00  0.00000000000E+00  0.56927239471E+03  0.56927239471E+03  0.00000000000E+00 0.  1.
          1   -1    0    0  501    0  0.00000000000E+00 -0.00000000000E+00 -0.26023865205E+04  0.26023865205E+04  0.00000000000E+00 0. -1.
         23    2    1    2    0    0 -0.70575660875E+03 -0.20448726897E+03 -0.18547589528E+04  0.19971289769E+04  0.92119179838E+02 0.  0.
        254    2    1    2    0    0  0.70575660875E+03  0.20448726897E+03 -0.17835517299E+03  0.11745299383E+04  0.89877837889E+03 0.  0.
        -24    2    4    4    0    0  0.87859218018E+03  0.14703452701E+03 -0.29749228374E+03  0.94264148573E+03  0.80795671449E+02 0.  0.
         24    2    4    4    0    0 -0.17283557143E+03  0.57452741966E+02  0.11913711075E+03  0.23188845262E+03  0.80035310889E+02 0.  0.
         11    1    3    3    0    0 -0.12928387027E+03 -0.38544439094E+02 -0.25297028532E+03  0.28669488686E+03  0.00000000000E+00 0.  1.
        -11    1    3    3    0    0 -0.57647273848E+03 -0.16594282988E+03 -0.16017886675E+04  0.17104340900E+04  0.00000000000E+00 0. -1.
          2    1    6    6  502    0 -0.15191357179E+03  0.40484155734E+02  0.12883143770E+03  0.20325904531E+03  0.00000000000E+00 0. -1.
          3    1    5    5  503    0  0.77771376111E+03  0.15029739415E+03 -0.24657723482E+03  0.82959528304E+03  0.00000000000E+00 0. -1.
         -4    1    5    5    0  503  0.10087841907E+03 -0.32628671404E+01 -0.50915048922E+02  0.11304620269E+03  0.00000000000E+00 0.  1.
         -1    1    6    6    0  502 -0.20921999640E+02  0.16968586232E+02 -0.96943269560E+01  0.28629407307E+02  0.00000000000E+00 0.  1.
<mgrwt>
<rscale>  0 0.24343104E+04</rscale>
<asrwt>0</asrwt>
<pdfrwt beam="1">  1        1 0.40036715E+00 0.24343104E+04</pdfrwt>
<pdfrwt beam="2">  1       -1 0.87580370E-01 0.24343104E+04</pdfrwt>
<totfact> 0.13169109E+00</totfact>
</mgrwt>
</event>
<event>
12    1  0.1549527E-007  0.1649248E+04  0.7818608E-02  0.8790851E-01
         -1   -1    0    0    0  501 -0.00000000000E+00  0.00000000000E+00  0.33801747621E+03  0.33801747621E+03  0.00000000000E+00 0.  1.
          1   -1    0    0  501    0  0.00000000000E+00 -0.00000000000E+00 -0.20117443225E+04  0.20117443225E+04  0.00000000000E+00 0. -1.
         23    2    1    2    0    0 -0.43244523687E+02  0.57935329866E+02  0.22301279797E+03  0.25142806460E+03  0.90855777666E+02 0.  0.
        254    2    1    2    0    0  0.43244523687E+02 -0.57935329866E+02 -0.18967396442E+04  0.20983337341E+04  0.89451472338E+03 0.  0.
        -24    2    4    4    0    0  0.12346372735E+03  0.31853042795E+03 -0.14957346700E+04  0.15363795028E+04  0.80838408205E+02 0.  0.
         24    2    4    4    0    0 -0.80219203664E+02 -0.37646575781E+03 -0.40100497426E+03  0.56195423127E+03  0.82619496572E+02 0.  0.
         13    1    3    3    0    0 -0.38495551379E+02 -0.16222892971E+02  0.82765032971E+02  0.92709980126E+02  0.00000000000E+00 0. -1.
        -13    1    3    3    0    0 -0.47489723085E+01  0.74158222837E+02  0.14024776499E+03  0.15871808447E+03  0.00000000000E+00 0.  1.
          4    1    6    6  502    0 -0.40593063541E+02 -0.50574884873E+02 -0.77477767314E+02  0.10103672706E+03  0.00000000000E+00 0. -1.
          1    1    5    5  503    0  0.89882002051E+02  0.12673028631E+03 -0.60759288443E+03  0.62714308811E+03  0.00000000000E+00 0. -1.
         -2    1    5    5    0  503  0.33581725301E+02  0.19180014164E+03 -0.88814178554E+03  0.90923641470E+03  0.00000000000E+00 0.  1.
         -3    1    6    6    0  502 -0.39626140124E+02 -0.32589087294E+03 -0.32352720694E+03  0.46091750420E+03  0.00000000000E+00 0.  1.
<mgrwt>
<rscale>  0 0.16492480E+04</rscale>
<asrwt>0</asrwt>
<pdfrwt beam="1">  1        1 0.30949913E+00 0.16492480E+04</pdfrwt>
<pdfrwt beam="2">  1       -1 0.52002689E-01 0.16492480E+04</pdfrwt>
<totfact> 0.10413956E+01</totfact>
</mgrwt>
</event>
<event>
12    1  0.1549527E-007  0.1297865E+04  0.7818608E-02  0.9031260E-01
         -2   -1    0    0    0  501 -0.00000000000E+00  0.00000000000E+00  0.47995088165E+03  0.47995088165E+03  0.00000000000E+00 0.  1.
          2   -1    0    0  501    0  0.00000000000E+00 -0.00000000000E+00 -0.87740986292E+03  0.87740986292E+03  0.00000000000E+00 0. -1.
         23    2    1    2    0    0  0.11630174439E+03 -0.27093238749E+03  0.43633182233E+02  0.31221122343E+03  0.92959879010E+02 0.  0.
        254    2    1    2    0    0 -0.11630174439E+03  0.27093238749E+03 -0.44109216351E+03  0.10451495211E+04  0.90046919463E+03 0.  0.
        -24    2    4    4    0    0  0.30369950515E+03  0.95881216376E+02 -0.47900999758E+03  0.58124362091E+03  0.83468389146E+02 0.  0.
         24    2    4    4    0    0 -0.42000124954E+03  0.17505117112E+03  0.37917834075E+02  0.46390590022E+03  0.82018046759E+02 0.  0.
         11    1    3    3    0    0  0.26852091632E+02 -0.61563692581E+02 -0.29102266799E+02  0.73198804649E+02  0.00000000000E+00 0. -1.
        -11    1    3    3    0    0  0.89449652755E+02 -0.20936869491E+03  0.72735449032E+02  0.23901241878E+03  0.00000000000E+00 0.  1.
          2    1    6    6  502    0 -0.67699945729E+02  0.32494948275E+01 -0.11829092435E+02  0.68802393099E+02  0.00000000000E+00 0. -1.
          3    1    5    5  503    0  0.60674841424E+02 -0.13910612265E+02 -0.10078930731E+03  0.11846276201E+03  0.00000000000E+00 0. -1.
         -4    1    5    5    0  503  0.24302466373E+03  0.10979182864E+03 -0.37822069027E+03  0.46278085890E+03  0.00000000000E+00 0.  1.
         -1    1    6    6    0  502 -0.35230130381E+03  0.17180167629E+03  0.49746926510E+02  0.39510350712E+03  0.00000000000E+00 0.  1.
<mgrwt>
<rscale>  0 0.12978654E+04</rscale>
<asrwt>0</asrwt>
<pdfrwt beam="1">  1        2 0.13498613E+00 0.12978654E+04</pdfrwt>
<pdfrwt beam="2">  1       -2 0.73838598E-01 0.12978654E+04</pdfrwt>
<totfact> 0.49248849E+01</totfact>
</mgrwt>
</event>
<event>
12    1  0.1549527E-007  0.1417329E+04  0.7818608E-02  0.8941370E-01
          2   -1    0    0  501    0  0.00000000000E+00  0.00000000000E+00  0.28588101936E+04  0.28588101936E+04  0.00000000000E+00 0. -1.
         -2   -1    0    0    0  501 -0.00000000000E+00 -0.00000000000E+00 -0.17566926021E+03  0.17566926021E+03  0.00000000000E+00 0.  1.
         23    2    1    2    0    0 -0.17884217870E+03 -0.12489515294E+02  0.16145955539E+04  0.16268318446E+04  0.86732548634E+02 0.  0.
        254    2    1    2    0    0  0.17884217870E+03  0.12489515294E+02  0.10685453794E+04  0.14076476092E+04  0.89863343517E+03 0.  0.
        -24    2    4    4    0    0  0.20199978657E+03  0.42795767856E+03  0.45030202629E+03  0.65803147602E+03  0.79257934287E+02 0.  0.
         24    2    4    4    0    0 -0.23157607871E+02 -0.41546816327E+03  0.61824335314E+03  0.74961613313E+03  0.80928572599E+02 0.  0.
         13    1    3    3    0    0 -0.13978537339E+03 -0.40279887682E+02  0.10221148242E+04  0.10324151945E+04  0.00000000000E+00 0.  1.
        -13    1    3    3    0    0 -0.39056805312E+02  0.27790372389E+02  0.59248072967E+03  0.59441665007E+03  0.00000000000E+00 0. -1.
          2    1    6    6  502    0 -0.26952796992E+02 -0.40958154472E+03  0.57889835115E+03  0.70965258825E+03  0.00000000000E+00 0. -1.
          3    1    5    5  503    0  0.16512962682E+03  0.31702888143E+03  0.37962243251E+03  0.52142909065E+03  0.00000000000E+00 0. -1.
         -4    1    5    5    0  503  0.36870159754E+02  0.11092879713E+03  0.70679593780E+02  0.13660238538E+03  0.00000000000E+00 0.  1.
         -1    1    6    6    0  502  0.37951891211E+01 -0.58866185447E+01  0.39345001986E+02  0.39963544883E+02  0.00000000000E+00 0.  1.
<mgrwt>
<rscale>  0 0.14173286E+04</rscale>
<asrwt>0</asrwt>
<pdfrwt beam="1">  1        2 0.43981692E+00 0.14173286E+04</pdfrwt>
<pdfrwt beam="2">  1       -2 0.27026042E-01 0.14173286E+04</pdfrwt>
<totfact> 0.25940480E+01</totfact>
</mgrwt>
</event>
<event>
12    1  0.1549527E-007  0.1966380E+04  0.7818608E-02  0.8622502E-01
          2   -1    0    0  501    0  0.00000000000E+00  0.00000000000E+00  0.40337895307E+04  0.40337895307E+04  0.00000000000E+00 0.  1.
         -2   -1    0    0    0  501 -0.00000000000E+00 -0.00000000000E+00 -0.23964132511E+03  0.23964132511E+03  0.00000000000E+00 0. -1.
         23    2    1    2    0    0 -0.29128555399E+03  0.45200648265E+02  0.30998685359E+04  0.31151881005E+04  0.91222745518E+02 0.  0.
        254    2    1    2    0    0  0.29128555399E+03 -0.45200648265E+02  0.69427966971E+03  0.11582427553E+04  0.87898330352E+03 0.  0.
        -24    2    4    4    0    0  0.38994424552E+03  0.31018032752E+03  0.56858253094E+03  0.76012513250E+03  0.78966906834E+02 0.  0.
         24    2    4    4    0    0 -0.98658691533E+02 -0.35538097578E+03  0.12569713877E+03  0.39811762280E+03  0.81662081318E+02 0.  0.
         13    1    3    3    0    0 -0.16654965300E+03 -0.17718942251E+02  0.18347963867E+04  0.18424251759E+04  0.00000000000E+00 0. -1.
        -13    1    3    3    0    0 -0.12473590099E+03  0.62919590516E+02  0.12650721491E+04  0.12727629247E+04  0.00000000000E+00 0.  1.
          4    1    6    6  502    0 -0.95525181496E+02 -0.19716325469E+03  0.82216001354E+02  0.23400401744E+03  0.00000000000E+00 0. -1.
          3    1    5    5  503    0  0.28609738290E+03  0.24056991974E+03  0.37349635917E+03  0.52841757077E+03  0.00000000000E+00 0. -1.
         -4    1    5    5    0  503  0.10384686262E+03  0.69610407781E+02  0.19508617177E+03  0.23170756173E+03  0.00000000000E+00 0.  1.
         -3    1    6    6    0  502 -0.31335100376E+01 -0.15821772109E+03  0.43481137415E+02  0.16411360536E+03  0.00000000000E+00 0.  1.
<mgrwt>
<rscale>  0 0.19663801E+04</rscale>
<asrwt>0</asrwt>
<pdfrwt beam="1">  1        2 0.62058296E+00 0.19663801E+04</pdfrwt>
<pdfrwt beam="2">  1       -2 0.36867899E-01 0.19663801E+04</pdfrwt>
<totfact> 0.20976080E+00</totfact>
</mgrwt>
</event>
<event>
12    1  0.1549527E-007  0.1961327E+04  0.7818608E-02  0.8624918E-01
         -1   -1    0    0    0  501 -0.00000000000E+00  0.00000000000E+00  0.12443546468E+04  0.12443546468E+04  0.00000000000E+00 0.  1.
          1   -1    0    0  501    0  0.00000000000E+00 -0.00000000000E+00 -0.77285150360E+03  0.77285150360E+03  0.00000000000E+00 0. -1.
         23    2    1    2    0    0 -0.72333325566E+03  0.27762173039E+03  0.21216522610E+03  0.80844205900E+03  0.90992613206E+02 0.  0.
        254    2    1    2    0    0  0.72333325566E+03 -0.27762173039E+03  0.25933791710E+03  0.12087640914E+04  0.89082526316E+03 0.  0.
        -24    2    4    4    0    0  0.84748846549E+03 -0.37161875567E+03  0.42354856099E+02  0.92978870323E+03  0.79849233667E+02 0.  0.
         24    2    4    4    0    0 -0.12415520983E+03  0.93997025278E+02  0.21698306101E+03  0.27897538818E+03  0.80595667106E+02 0.  0.
         13    1    3    3    0    0 -0.51692308548E+03  0.19439163050E+03  0.10806030743E+03  0.56273849376E+03  0.00000000000E+00 0. -1.
        -13    1    3    3    0    0 -0.20641017018E+03  0.83230099894E+02  0.10410491866E+03  0.24570356524E+03  0.00000000000E+00 0.  1.
          2    1    6    6  502    0 -0.10388774759E+03  0.52122409490E+02  0.19615365720E+03  0.22800365546E+03  0.00000000000E+00 0. -1.
          1    1    5    5  503    0  0.69122497067E+03 -0.29495742353E+03  0.39020471302E+01  0.75153647133E+03  0.00000000000E+00 0. -1.
         -2    1    5    5    0  503  0.15626349482E+03 -0.76661332139E+02  0.38452808969E+02  0.17825223190E+03  0.00000000000E+00 0.  1.
         -1    1    6    6    0  502 -0.20267462236E+02  0.41874615788E+02  0.20829403801E+02  0.50971732712E+02  0.00000000000E+00 0.  1.
<mgrwt>
<rscale>  0 0.19613275E+04</rscale>
<asrwt>0</asrwt>
<pdfrwt beam="1">  1        1 0.11890023E+00 0.19613275E+04</pdfrwt>
<pdfrwt beam="2">  1       -1 0.19143918E+00 0.19613275E+04</pdfrwt>
<totfact> 0.37535224E+00</totfact>
</mgrwt>
</event>
<event>
12    1  0.1549527E-007  0.1981619E+04  0.7818608E-02  0.8615263E-01
         -1   -1    0    0    0  501 -0.00000000000E+00  0.00000000000E+00  0.74553661692E+03  0.74553661692E+03  0.00000000000E+00 0.  1.
          1   -1    0    0  501    0  0.00000000000E+00 -0.00000000000E+00 -0.13167742569E+04  0.13167742569E+04  0.00000000000E+00 0. -1.
         23    2    1    2    0    0 -0.45230884676E+03  0.13093776263E+03  0.39038635531E+03  0.61852830263E+03  0.91911719634E+02 0.  0.
        254    2    1    2    0    0  0.45230884676E+03 -0.13093776263E+03 -0.96162399525E+03  0.14437825712E+04  0.96853467361E+03 0.  0.
        -24    2    4    4    0    0  0.21749908440E+03 -0.45602501141E+03 -0.89319875193E+03  0.10292662800E+04  0.79500955792E+02 0.  0.
         24    2    4    4    0    0  0.23480976236E+03  0.32508724878E+03 -0.68425243320E+02  0.41451629114E+03  0.79526083027E+02 0.  0.
         11    1    3    3    0    0 -0.93670189985E+02 -0.76470211127E+01  0.59208173187E+02  0.11107740182E+03  0.00000000000E+00 0. -1.
        -11    1    3    3    0    0 -0.35863865678E+03  0.13858478374E+03  0.33117818212E+03  0.50745090081E+03  0.00000000000E+00 0.  1.
          2    1    6    6  502    0  0.20865097992E+03  0.23342365414E+03 -0.44447041939E+02  0.31622361277E+03  0.00000000000E+00 0. -1.
          1    1    5    5  503    0  0.11336283341E+03 -0.30450702324E+03 -0.61967720126E+03  0.69969671499E+03  0.00000000000E+00 0. -1.
         -2    1    5    5    0  503  0.10413625099E+03 -0.15151798816E+03 -0.27352155067E+03  0.32956956502E+03  0.00000000000E+00 0.  1.
         -1    1    6    6    0  502  0.26158782439E+02  0.91663594641E+02 -0.23978201381E+02  0.98292678377E+02  0.00000000000E+00 0.  1.
<mgrwt>
<rscale>  0 0.19816190E+04</rscale>
<asrwt>0</asrwt>
<pdfrwt beam="1">  1        1 0.20258066E+00 0.19816190E+04</pdfrwt>
<pdfrwt beam="2">  1       -1 0.11469794E+00 0.19816190E+04</pdfrwt>
<totfact> 0.56476507E+00</totfact>
</mgrwt>
</event>
<event>
12    1  0.1549527E-007  0.2379059E+04  0.7818608E-02  0.8447385E-01
         -1   -1    0    0    0  501 -0.00000000000E+00  0.00000000000E+00  0.88292571143E+03  0.88292571143E+03  0.00000000000E+00 0.  1.
          1   -1    0    0  501    0  0.00000000000E+00 -0.00000000000E+00 -0.16026042637E+04  0.16026042637E+04  0.00000000000E+00 0. -1.
         23    2    1    2    0    0 -0.70717742126E+03  0.59428499763E+02  0.44498894979E+03  0.84270670838E+03  0.92237623488E+02 0.  0.
        254    2    1    2    0    0  0.70717742126E+03 -0.59428499763E+02 -0.11646675020E+04  0.16428232667E+04  0.91585274125E+03 0.  0.
        -24    2    4    4    0    0  0.51117411814E+03  0.21335847454E+03 -0.11703693245E+04  0.12972457791E+04  0.79129247026E+02 0.  0.
         24    2    4    4    0    0  0.19600330312E+03 -0.27278697431E+03  0.57018225187E+01  0.34557748766E+03  0.81001611150E+02 0.  0.
         11    1    3    3    0    0 -0.55219056543E+03  0.77211540510E+02  0.32045250543E+03  0.64309085732E+03  0.00000000000E+00 0.  1.
        -11    1    3    3    0    0 -0.15498685583E+03 -0.17783040747E+02  0.12453644436E+03  0.19961585106E+03  0.00000000000E+00 0. -1.
          4    1    6    6  502    0  0.43936324488E+02 -0.28629613092E+02  0.23331543581E+02  0.57397005855E+02  0.00000000000E+00 0. -1.
          3    1    5    5  503    0  0.21519267566E+03  0.48367990390E+02 -0.44863814221E+03  0.49992352695E+03  0.00000000000E+00 0. -1.
         -4    1    5    5    0  503  0.29598144248E+03  0.16499048416E+03 -0.72173118233E+03  0.79732225211E+03  0.00000000000E+00 0.  1.
         -3    1    6    6    0  502  0.15206697863E+03 -0.24415736122E+03 -0.17629721062E+02  0.28818048180E+03  0.00000000000E+00 0.  1.
<mgrwt>
<rscale>  0 0.23790591E+04</rscale>
<asrwt>0</asrwt>
<pdfrwt beam="1">  1        1 0.24655450E+00 0.23790591E+04</pdfrwt>
<pdfrwt beam="2">  1       -1 0.13583473E+00 0.23790591E+04</pdfrwt>
<totfact> 0.22619564E+00</totfact>
</mgrwt>
</event>
<event>
12    1  0.1549527E-007  0.3669008E+04  0.7818608E-02  0.8074865E-01
         -1   -1    0    0    0  501 -0.00000000000E+00  0.00000000000E+00  0.14319284012E+04  0.14319284012E+04  0.00000000000E+00 0.  1.
          1   -1    0    0  501    0  0.00000000000E+00 -0.00000000000E+00 -0.23502606385E+04  0.23502606385E+04  0.00000000000E+00 0. -1.
         23    2    1    2    0    0  0.45609509391E+03  0.16559208373E+04 -0.27293711015E+03  0.17413863209E+04  0.88516091427E+02 0.  0.
        254    2    1    2    0    0 -0.45609509391E+03 -0.16559208373E+04 -0.64539512714E+03  0.20408027189E+04  0.89344519311E+03 0.  0.
        -24    2    4    4    0    0 -0.63842241152E+03 -0.68202261886E+03 -0.38212801427E+03  0.10124638249E+04  0.79518232447E+02 0.  0.
         24    2    4    4    0    0  0.18232731761E+03 -0.97389821845E+03 -0.26326711288E+03  0.10283388940E+04  0.80313868488E+02 0.  0.
         11    1    3    3    0    0  0.34268794403E+03  0.12605094390E+04 -0.16937064222E+03  0.13171960702E+04  0.00000000000E+00 0. -1.
        -11    1    3    3    0    0  0.11340714988E+03  0.39541139830E+03 -0.10356646793E+03  0.42419025074E+03  0.00000000000E+00 0.  1.
          4    1    6    6  502    0  0.16403335334E+03 -0.92366935684E+03 -0.23189971878E+03  0.96635888848E+03  0.00000000000E+00 0. -1.
          1    1    5    5  503    0 -0.17047572526E+03 -0.14371363098E+03 -0.11439803282E+03  0.25060425085E+03  0.00000000000E+00 0. -1.
         -2    1    5    5    0  503 -0.46794668627E+03 -0.53830898788E+03 -0.26772998145E+03  0.76185957406E+03  0.00000000000E+00 0.  1.
         -3    1    6    6    0  502  0.18293964272E+02 -0.50228861605E+02 -0.31367394100E+02  0.61980005482E+02  0.00000000000E+00 0.  1.
<mgrwt>
<rscale>  0 0.36690080E+04</rscale>
<asrwt>0</asrwt>
<pdfrwt beam="1">  1        1 0.36157856E+00 0.36690080E+04</pdfrwt>
<pdfrwt beam="2">  1       -1 0.22029668E+00 0.36690080E+04</pdfrwt>
<totfact> 0.15148421E-01</totfact>
</mgrwt>
</event>
<event>
12    1  0.1549527E-007  0.2074805E+04  0.7818608E-02  0.8572424E-01
         -2   -1    0    0    0  501 -0.00000000000E+00  0.00000000000E+00  0.13673552766E+04  0.13673552766E+04  0.00000000000E+00 0.  1.
          2   -1    0    0  501    0  0.00000000000E+00 -0.00000000000E+00 -0.78706986524E+03  0.78706986524E+03  0.00000000000E+00 0. -1.
         23    2    1    2    0    0 -0.55915889858E+02 -0.32759384994E+03  0.10344828440E+04  0.10916142690E+04  0.10498876365E+03 0.  0.
        254    2    1    2    0    0  0.55915889858E+02  0.32759384994E+03 -0.45419743256E+03  0.10628108729E+04  0.90156936870E+03 0.  0.
        -24    2    4    4    0    0  0.21230557140E+03  0.59523006403E+03 -0.34345511666E+03  0.72371970491E+03  0.80226612441E+02 0.  0.
         24    2    4    4    0    0 -0.15638968154E+03 -0.26763621409E+03 -0.11074231590E+03  0.33909116800E+03  0.81437608642E+02 0.  0.
         11    1    3    3    0    0  0.30425711063E+02 -0.11531929804E+03  0.36617017600E+03  0.38510370316E+03  0.00000000000E+00 0. -1.
        -11    1    3    3    0    0 -0.86341600920E+02 -0.21227455190E+03  0.66831266796E+03  0.70651056580E+03  0.00000000000E+00 0.  1.
          2    1    6    6  502    0 -0.64323913411E+02 -0.42071015528E+02 -0.27523612391E+02  0.81639974419E+02  0.00000000000E+00 0. -1.
          1    1    5    5  503    0  0.17406450562E+02  0.23261043452E+02 -0.34339419586E+02  0.44980622507E+02  0.00000000000E+00 0. -1.
         -2    1    5    5    0  503  0.19489912084E+03  0.57196902058E+03 -0.30911569707E+03  0.67873908241E+03  0.00000000000E+00 0.  1.
         -1    1    6    6    0  502 -0.92065768129E+02 -0.22556519856E+03 -0.83218703510E+02  0.25745119358E+03  0.00000000000E+00 0.  1.
<mgrwt>
<rscale>  0 0.20748052E+04</rscale>
<asrwt>0</asrwt>
<pdfrwt beam="1">  1        2 0.12108767E+00 0.20748052E+04</pdfrwt>
<pdfrwt beam="2">  1       -2 0.21036235E+00 0.20748052E+04</pdfrwt>
<totfact> 0.37004226E+00</totfact>
</mgrwt>
</event>
<event>
12    1  0.1549527E-007  0.1297618E+04  0.7818608E-02  0.9031456E-01
          2   -1    0    0  501    0  0.00000000000E+00  0.00000000000E+00  0.66891274886E+03  0.66891274886E+03  0.00000000000E+00 0. -1.
         -2   -1    0    0    0  501 -0.00000000000E+00 -0.00000000000E+00 -0.62930942709E+03  0.62930942709E+03  0.00000000000E+00 0.  1.
         23    2    1    2    0    0  0.24670096689E+03 -0.55432678371E+02  0.11062493028E+03  0.29170079048E+03  0.94431599964E+02 0.  0.
        254    2    1    2    0    0 -0.24670096689E+03  0.55432678371E+02 -0.71021608505E+02  0.10065213855E+04  0.97165172856E+03 0.  0.
        -24    2    4    4    0    0 -0.46634402816E+03 -0.18570484091E+03  0.22801048370E+03  0.55689133388E+03  0.78588399498E+02 0.  0.
         24    2    4    4    0    0  0.21964306127E+03  0.24113751928E+03 -0.29903209221E+03  0.44963005158E+03  0.79728373527E+02 0.  0.
         11    1    3    3    0    0  0.22563421018E+03 -0.75660539248E+02  0.84568590923E+02  0.25256120164E+03  0.00000000000E+00 0. -1.
        -11    1    3    3    0    0  0.21066756705E+02  0.20227860877E+02  0.26056339352E+02  0.39139588835E+02  0.00000000000E+00 0.  1.
          4    1    6    6  502    0  0.20745979527E+03  0.18392337852E+03 -0.24457359574E+03  0.36970747836E+03  0.00000000000E+00 0. -1.
          1    1    5    5  503    0 -0.36055075962E+03 -0.11004139163E+03  0.15374221750E+03  0.40711500534E+03  0.00000000000E+00 0. -1.
         -2    1    5    5    0  503 -0.10579326854E+03 -0.75663449279E+02  0.74268266203E+02  0.14977632854E+03  0.00000000000E+00 0.  1.
         -3    1    6    6    0  502  0.12183266004E+02  0.57214140760E+02 -0.54458496466E+02  0.79922573224E+02  0.00000000000E+00 0.  1.
<mgrwt>
<rscale>  0 0.12976180E+04</rscale>
<asrwt>0</asrwt>
<pdfrwt beam="1">  1        2 0.10290965E+00 0.12976180E+04</pdfrwt>
<pdfrwt beam="2">  1       -2 0.96816835E-01 0.12976180E+04</pdfrwt>
<totfact> 0.37929606E+01</totfact>
</mgrwt>
</event>
<event>
12    1  0.1549527E-007  0.2396816E+04  0.7818608E-02  0.8440697E-01
         -2   -1    0    0    0  501 -0.00000000000E+00  0.00000000000E+00  0.64227841381E+03  0.64227841381E+03  0.00000000000E+00 0.  1.
          2   -1    0    0  501    0  0.00000000000E+00 -0.00000000000E+00 -0.22360734683E+04  0.22360734683E+04  0.00000000000E+00 0. -1.
         23    2    1    2    0    0 -0.83918903525E+03 -0.45337983911E+03 -0.23647670078E+03  0.98592193877E+03  0.79557048283E+02 0.  0.
        254    2    1    2    0    0  0.83918903525E+03  0.45337983911E+03 -0.13573183537E+04  0.18924299433E+04  0.91059676135E+03 0.  0.
        -24    2    4    4    0    0 -0.52804048849E+02 -0.14565876501E+03 -0.45036097591E+03  0.48411687464E+03  0.86829697007E+02 0.  0.
         24    2    4    4    0    0  0.89199308410E+03  0.59903860413E+03 -0.90695737779E+03  0.14083130687E+04  0.79215548069E+02 0.  0.
         13    1    3    3    0    0 -0.16646410316E+03 -0.78660562045E+02 -0.15342117662E+02  0.18475162309E+03  0.00000000000E+00 0.  1.
        -13    1    3    3    0    0 -0.67272493209E+03 -0.37471927707E+03 -0.22113458312E+03  0.80117031567E+03  0.00000000000E+00 0. -1.
          4    1    6    6  502    0  0.69943788796E+03  0.49912873577E+03 -0.69696247059E+03  0.11063903196E+04  0.00000000000E+00 0. -1.
          3    1    5    5  503    0 -0.12482563999E+02 -0.13448046604E+03 -0.32454465192E+03  0.35152530669E+03  0.00000000000E+00 0. -1.
         -4    1    5    5    0  503 -0.40321484850E+02 -0.11178298971E+02 -0.12581632399E+03  0.13259156795E+03  0.00000000000E+00 0.  1.
         -3    1    6    6    0  502  0.19255519614E+03  0.99909868360E+02 -0.20999490720E+03  0.30192274907E+03  0.00000000000E+00 0.  1.
<mgrwt>
<rscale>  0 0.23968160E+04</rscale>
<asrwt>0</asrwt>
<pdfrwt beam="1">  1        2 0.34401130E+00 0.23968160E+04</pdfrwt>
<pdfrwt beam="2">  1       -2 0.98812064E-01 0.23968160E+04</pdfrwt>
<totfact> 0.37655050E+00</totfact>
</mgrwt>
</event>
<event>
12    1  0.1549527E-007  0.1239072E+04  0.7818608E-02  0.9079328E-01
          1   -1    0    0  501    0  0.00000000000E+00  0.00000000000E+00  0.13992123325E+04  0.13992123325E+04  0.00000000000E+00 0. -1.
         -1   -1    0    0    0  501 -0.00000000000E+00 -0.00000000000E+00 -0.27431509229E+03  0.27431509229E+03  0.00000000000E+00 0.  1.
         23    2    1    2    0    0  0.28184330177E+03  0.37165611751E+02  0.18372457113E+03  0.35052858112E+03  0.91096864359E+02 0.  0.
        254    2    1    2    0    0 -0.28184330177E+03 -0.37165611751E+02  0.94117266907E+03  0.13229988437E+04  0.88527002541E+03 0.  0.
        -24    2    4    4    0    0 -0.42531482555E+03 -0.13049856317E+03  0.10211455869E+04  0.11166366427E+04  0.78844824645E+02 0.  0.
         24    2    4    4    0    0  0.14347152378E+03  0.93332951416E+02 -0.79972917799E+02  0.20636220099E+03  0.83033562256E+02 0.  0.
         13    1    3    3    0    0  0.24332574039E+03  0.16539923053E+02  0.11633057399E+03  0.27021063531E+03  0.00000000000E+00 0.  1.
        -13    1    3    3    0    0  0.38517561383E+02  0.20625688698E+02  0.67393997134E+02  0.80317945808E+02  0.00000000000E+00 0. -1.
          4    1    6    6  502    0  0.46330235050E+02  0.10692591441E+01 -0.51713925795E+02  0.69440363738E+02  0.00000000000E+00 0. -1.
          3    1    5    5  503    0 -0.41187540151E+03 -0.10978357996E+03  0.94761573052E+03  0.10390713900E+04  0.00000000000E+00 0. -1.
         -4    1    5    5    0  503 -0.13439424035E+02 -0.20714983204E+02  0.73529856351E+02  0.77565252675E+02  0.00000000000E+00 0.  1.
         -3    1    6    6    0  502  0.97141288726E+02  0.92263692272E+02 -0.28258992004E+02  0.13692183725E+03  0.00000000000E+00 0.  1.
<mgrwt>
<rscale>  0 0.12390723E+04</rscale>
<asrwt>0</asrwt>
<pdfrwt beam="1">  1        1 0.21526343E+00 0.12390723E+04</pdfrwt>
<pdfrwt beam="2">  1       -1 0.42202323E-01 0.12390723E+04</pdfrwt>
<totfact> 0.41884619E+01</totfact>
</mgrwt>
</event>
<event>
12    1  0.1549527E-007  0.1209739E+04  0.7818608E-02  0.9104374E-01
         -2   -1    0    0    0  501 -0.00000000000E+00  0.00000000000E+00  0.37020400473E+03  0.37020400473E+03  0.00000000000E+00 0.  1.
          2   -1    0    0  501    0  0.00000000000E+00 -0.00000000000E+00 -0.98828549619E+03  0.98828549619E+03  0.00000000000E+00 0. -1.
         23    2    1    2    0    0 -0.85362845295E+02  0.13326293193E+03  0.95844037246E+02  0.20240850969E+03  0.82081063203E+02 0.  0.
        254    2    1    2    0    0  0.85362845295E+02 -0.13326293193E+03 -0.71392552870E+03  0.11560809912E+04  0.89542602898E+03 0.  0.
        -24    2    4    4    0    0 -0.22209892377E+03  0.90713041000E+02  0.85401432111E+02  0.26694749181E+03  0.80067290627E+02 0.  0.
         24    2    4    4    0    0  0.30746176906E+03 -0.22397597293E+03 -0.79932696081E+03  0.88913349942E+03  0.83287535864E+02 0.  0.
         11    1    3    3    0    0 -0.62852016995E+02  0.13232950663E+03  0.56391535313E+02  0.15697604792E+03  0.00000000000E+00 0.  1.
        -11    1    3    3    0    0 -0.22510828299E+02  0.93342529349E+00  0.39452501933E+02  0.45432461767E+02  0.00000000000E+00 0. -1.
          2    1    6    6  502    0  0.20276753694E+03 -0.13470865798E+03 -0.59425676549E+03  0.64218548714E+03  0.00000000000E+00 0. -1.
          1    1    5    5  503    0 -0.20676881532E+03  0.10501318768E+03  0.76901884424E+02  0.24432562780E+03  0.00000000000E+00 0. -1.
         -2    1    5    5    0  503 -0.15330108452E+02 -0.14300146676E+02  0.84995476875E+01  0.22621864004E+02  0.00000000000E+00 0.  1.
         -1    1    6    6    0  502  0.10469423212E+03 -0.89267314948E+02 -0.20507019533E+03  0.24694801228E+03  0.00000000000E+00 0.  1.
<mgrwt>
<rscale>  0 0.12097392E+04</rscale>
<asrwt>0</asrwt>
<pdfrwt beam="1">  1        2 0.15204392E+00 0.12097392E+04</pdfrwt>
<pdfrwt beam="2">  1       -2 0.56954463E-01 0.12097392E+04</pdfrwt>
<totfact> 0.73056045E+01</totfact>
</mgrwt>
</event>
<event>
12    1  0.1549527E-007  0.1383238E+04  0.7818608E-02  0.8966042E-01
          2   -1    0    0  501    0  0.00000000000E+00  0.00000000000E+00  0.21622606640E+04  0.21622606640E+04  0.00000000000E+00 0. -1.
         -2   -1    0    0    0  501 -0.00000000000E+00 -0.00000000000E+00 -0.22122057599E+03  0.22122057599E+03  0.00000000000E+00 0.  1.
         23    2    1    2    0    0 -0.10402160141E+03 -0.21618133309E+03  0.12531785012E+04  0.12792550822E+04  0.92099658528E+02 0.  0.
        254    2    1    2    0    0  0.10402160141E+03  0.21618133309E+03  0.68786158684E+03  0.11042261578E+04  0.82982346475E+03 0.  0.
        -24    2    4    4    0    0  0.10670022913E+03  0.17237080624E+03  0.87189136916E+03  0.89861997723E+03  0.78909252422E+02 0.  0.
         24    2    4    4    0    0 -0.26786277267E+01  0.43810526850E+02 -0.18402978232E+03  0.20560618060E+03  0.80500952870E+02 0.  0.
         13    1    3    3    0    0 -0.60273130473E+02 -0.16528830049E+03  0.10657364324E+04  0.10801607361E+04  0.00000000000E+00 0. -1.
        -13    1    3    3    0    0 -0.43748470933E+02 -0.50893032605E+02  0.18744206882E+03  0.19909434608E+03  0.00000000000E+00 0.  1.
          2    1    6    6  502    0  0.34577679005E+02  0.31089826628E+01 -0.91608444717E+02  0.97966263591E+02  0.00000000000E+00 0. -1.
          3    1    5    5  503    0  0.94359571440E+02  0.17030527880E+03  0.85846619639E+03  0.88026804273E+03  0.00000000000E+00 0. -1.
         -4    1    5    5    0  503  0.12340657693E+02  0.20655274419E+01  0.13425172770E+02  0.18351934498E+02  0.00000000000E+00 0.  1.
         -1    1    6    6    0  502 -0.37256306731E+02  0.40701544188E+02 -0.92421337603E+02  0.10763991701E+03  0.00000000000E+00 0.  1.
<mgrwt>
<rscale>  0 0.13832376E+04</rscale>
<asrwt>0</asrwt>
<pdfrwt beam="1">  1        2 0.33265547E+00 0.13832376E+04</pdfrwt>
<pdfrwt beam="2">  1       -2 0.34033936E-01 0.13832376E+04</pdfrwt>
<totfact> 0.42764315E+01</totfact>
</mgrwt>
</event>
<event>
12    1  0.1549527E-007  0.1120126E+04  0.7818608E-02  0.9185794E-01
         -1   -1    0    0    0  501 -0.00000000000E+00  0.00000000000E+00  0.20399860579E+03  0.20399860579E+03  0.00000000000E+00 0.  1.
          1   -1    0    0  501    0  0.00000000000E+00 -0.00000000000E+00 -0.15376126258E+04  0.15376126258E+04  0.00000000000E+00 0. -1.
         23    2    1    2    0    0 -0.71535639439E+02  0.93584989370E+02 -0.18220756341E+02  0.15022750755E+03  0.91437465620E+02 0.  0.
        254    2    1    2    0    0  0.71535639439E+02 -0.93584989370E+02 -0.13153932637E+04  0.15913837241E+04  0.88790045676E+03 0.  0.
        -24    2    4    4    0    0 -0.20598779604E+03  0.18279554650E+03 -0.87065202453E+02  0.29961693128E+03  0.79654077697E+02 0.  0.
         24    2    4    4    0    0  0.27752343547E+03 -0.27638053587E+03 -0.12283280612E+04  0.12917667928E+04  0.80412456030E+02 0.  0.
         11    1    3    3    0    0 -0.70080898380E+02  0.60067768020E+02  0.24892819731E+02  0.95598752851E+02  0.00000000000E+00 0.  1.
        -11    1    3    3    0    0 -0.14547410586E+01  0.33517221350E+02 -0.43113576072E+02  0.54628754702E+02  0.00000000000E+00 0. -1.
          2    1    6    6  502    0  0.23078755301E+03 -0.24043772362E+03 -0.93630094879E+03  0.99384740291E+03  0.00000000000E+00 0. -1.
          3    1    5    5  503    0 -0.20140453136E+03  0.14521259580E+03 -0.81618554268E+02  0.26136578130E+03  0.00000000000E+00 0. -1.
         -2    1    5    5    0  503 -0.45832646726E+01  0.37582950697E+02 -0.54466481855E+01  0.38251149978E+02  0.00000000000E+00 0.  1.
         -1    1    6    6    0  502  0.46735882462E+02 -0.35942812246E+02 -0.29202711244E+03  0.29791938987E+03  0.00000000000E+00 0.  1.
<mgrwt>
<rscale>  0 0.11201265E+04</rscale>
<asrwt>0</asrwt>
<pdfrwt beam="1">  1        1 0.23655579E+00 0.11201265E+04</pdfrwt>
<pdfrwt beam="2">  1       -1 0.31384401E-01 0.11201265E+04</pdfrwt>
<totfact> 0.57769511E+01</totfact>
</mgrwt>
</event>
<event>
12    1  0.1549527E-007  0.1083969E+04  0.7818608E-02  0.9220959E-01
          1   -1    0    0  501    0  0.00000000000E+00  0.00000000000E+00  0.11855828369E+04  0.11855828369E+04  0.00000000000E+00 0. -1.
         -1   -1    0    0    0  501 -0.00000000000E+00 -0.00000000000E+00 -0.24776617163E+03  0.24776617163E+03  0.00000000000E+00 0.  1.
         23    2    1    2    0    0 -0.67273275063E+02 -0.29156919131E+02  0.33121693106E+03  0.35113929883E+03  0.90655018025E+02 0.  0.
        254    2    1    2    0    0  0.67273275063E+02  0.29156919131E+02  0.60659973422E+03  0.10822097097E+04  0.89321822572E+03 0.  0.
        -24    2    4    4    0    0  0.28147044825E+03 -0.13236669486E+03 -0.87255506102E+02  0.33304740211E+03  0.80996873784E+02 0.  0.
         24    2    4    4    0    0 -0.21419717318E+03  0.16152361399E+03  0.69385524032E+03  0.74916230759E+03  0.88536781754E+02 0.  0.
         13    1    3    3    0    0 -0.75210087381E+02 -0.12861273332E+02  0.14327988377E+03  0.16233020264E+03  0.00000000000E+00 0.  1.
        -13    1    3    3    0    0  0.79368123182E+01 -0.16295645799E+02  0.18793704728E+03  0.18880909619E+03  0.00000000000E+00 0. -1.
          4    1    6    6  502    0  0.16433871969E+01  0.27572234079E+02  0.87160980731E+02  0.91432846262E+02  0.00000000000E+00 0. -1.
          3    1    5    5  503    0  0.20366343890E+02  0.10678098109E+02 -0.72384805946E+00  0.23007253176E+02  0.00000000000E+00 0. -1.
         -4    1    5    5    0  503  0.26110410436E+03 -0.14304479297E+03 -0.86531658042E+02  0.31004014893E+03  0.00000000000E+00 0.  1.
         -3    1    6    6    0  502 -0.21584056038E+03  0.13395137992E+03  0.60669425959E+03  0.65772946133E+03  0.00000000000E+00 0.  1.
<mgrwt>
<rscale>  0 0.10839692E+04</rscale>
<asrwt>0</asrwt>
<pdfrwt beam="1">  1        1 0.18239736E+00 0.10839692E+04</pdfrwt>
<pdfrwt beam="2">  1       -1 0.38117873E-01 0.10839692E+04</pdfrwt>
<totfact> 0.72585935E+01</totfact>
</mgrwt>
</event>
<event>
12    1  0.1549527E-007  0.1321696E+04  0.7818608E-02  0.9012535E-01
          1   -1    0    0  501    0  0.00000000000E+00  0.00000000000E+00  0.16964223216E+04  0.16964223216E+04  0.00000000000E+00 0. -1.
         -1   -1    0    0    0  501 -0.00000000000E+00 -0.00000000000E+00 -0.25743602687E+03  0.25743602687E+03  0.00000000000E+00 0.  1.
         23    2    1    2    0    0  0.20574104716E+03  0.53741413289E+02 -0.15611063632E+02  0.23113017382E+03  0.89218461948E+02 0.  0.
        254    2    1    2    0    0 -0.20574104716E+03 -0.53741413289E+02  0.14545973584E+04  0.17227281747E+04  0.89817669241E+03 0.  0.
        -24    2    4    4    0    0 -0.31477866974E+03 -0.22019029179E+03  0.14565464404E+04  0.15084891770E+04  0.80266361211E+02 0.  0.
         24    2    4    4    0    0  0.10903762258E+03  0.16644887850E+03 -0.19490819627E+01  0.21423899766E+03  0.79373275761E+02 0.  0.
         11    1    3    3    0    0  0.25862199517E+02  0.42006176602E+02  0.55090400637E+01  0.49635891842E+02  0.00000000000E+00 0. -1.
        -11    1    3    3    0    0  0.17987884764E+03  0.11735236687E+02 -0.21120103695E+02  0.18149428198E+03  0.00000000000E+00 0.  1.
          2    1    6    6  502    0  0.72043217563E+02  0.40188304652E+02 -0.48684879425E+01  0.82637928354E+02  0.00000000000E+00 0. -1.
          1    1    5    5  503    0 -0.27148902785E+03 -0.15690390029E+03  0.11018423616E+04  0.11455922992E+04  0.00000000000E+00 0. -1.
         -2    1    5    5    0  503 -0.43289641896E+02 -0.63286391495E+02  0.35470407876E+03  0.36289687782E+03  0.00000000000E+00 0.  1.
         -1    1    6    6    0  502  0.36994405019E+02  0.12626057385E+03  0.29194059797E+01  0.13160106930E+03  0.00000000000E+00 0.  1.
<mgrwt>
<rscale>  0 0.13216962E+04</rscale>
<asrwt>0</asrwt>
<pdfrwt beam="1">  1        1 0.26098804E+00 0.13216962E+04</pdfrwt>
<pdfrwt beam="2">  1       -1 0.39605544E-01 0.13216962E+04</pdfrwt>
<totfact> 0.29166188E+01</totfact>
</mgrwt>
</event>
<event>
12    1  0.1549527E-007  0.1004530E+04  0.7818608E-02  0.9303590E-01
          1   -1    0    0  501    0  0.00000000000E+00  0.00000000000E+00  0.91984374242E+03  0.91984374242E+03  0.00000000000E+00 0. -1.
         -1   -1    0    0    0  501 -0.00000000000E+00 -0.00000000000E+00 -0.27425350820E+03  0.27425350820E+03  0.00000000000E+00 0.  1.
         23    2    1    2    0    0 -0.23100533402E+02  0.19317097363E+02  0.23492592248E+02  0.98788060008E+02  0.91106498207E+02 0.  0.
        254    2    1    2    0    0  0.23100533402E+02 -0.19317097363E+02  0.62209764197E+03  0.10953091906E+04  0.90099387455E+03 0.  0.
        -24    2    4    4    0    0 -0.12100774574E+03  0.24787370774E+03  0.71262661216E+03  0.76822791028E+03  0.79077077988E+02 0.  0.
         24    2    4    4    0    0  0.14410827914E+03 -0.26719080510E+03 -0.90528970183E+02  0.32708128033E+03  0.81415889416E+02 0.  0.
         11    1    3    3    0    0 -0.15586882903E+02  0.92617816814E+01 -0.34756747533E+02  0.39201569071E+02  0.00000000000E+00 0.  1.
        -11    1    3    3    0    0 -0.75136504998E+01  0.10055315682E+02  0.58249339781E+02  0.59586490937E+02  0.00000000000E+00 0. -1.
          2    1    6    6  502    0  0.15026026197E+03 -0.22646695363E+03 -0.88566468007E+02  0.28584864294E+03  0.00000000000E+00 0. -1.
          3    1    5    5  503    0 -0.86505000316E+02  0.98026693887E+02  0.37777699256E+03  0.39975968269E+03  0.00000000000E+00 0. -1.
         -4    1    5    5    0  503 -0.34502745423E+02  0.14984701385E+03  0.33484961959E+03  0.36846822759E+03  0.00000000000E+00 0.  1.
         -1    1    6    6    0  502 -0.61519828271E+01 -0.40723851468E+02 -0.19625021757E+01  0.41232637386E+02  0.00000000000E+00 0.  1.
<mgrwt>
<rscale>  0 0.10045305E+04</rscale>
<asrwt>0</asrwt>
<pdfrwt beam="1">  1        1 0.14151442E+00 0.10045305E+04</pdfrwt>
<pdfrwt beam="2">  1       -1 0.42192848E-01 0.10045305E+04</pdfrwt>
<totfact> 0.96925241E+01</totfact>
</mgrwt>
</event>
<event>
12    1  0.1549527E-007  0.1344924E+04  0.7818608E-02  0.8994679E-01
          1   -1    0    0  501    0  0.00000000000E+00  0.00000000000E+00  0.32076521686E+04  0.32076521686E+04  0.00000000000E+00 0. -1.
         -1   -1    0    0    0  501 -0.00000000000E+00 -0.00000000000E+00 -0.14097707043E+03  0.14097707043E+03  0.00000000000E+00 0.  1.
         23    2    1    2    0    0  0.18125344704E+03 -0.16196659314E+02  0.16406604363E+04  0.16531137983E+04  0.88901174978E+02 0.  0.
        254    2    1    2    0    0 -0.18125344704E+03  0.16196659314E+02  0.14260146619E+04  0.16955154408E+04  0.89896587821E+03 0.  0.
        -24    2    4    4    0    0 -0.12095332269E+03 -0.12262068781E+03 -0.60298420836E+02  0.19917112933E+03  0.79797868726E+02 0.  0.
         24    2    4    4    0    0 -0.60300124353E+02  0.13881734712E+03  0.14863130827E+04  0.14963443114E+04  0.83745792185E+02 0.  0.
         13    1    3    3    0    0  0.47220524419E+02 -0.15538604314E+02  0.19438827838E+03  0.20064403535E+03  0.00000000000E+00 0.  1.
        -13    1    3    3    0    0  0.13403292263E+03 -0.65805499998E+00  0.14462721580E+04  0.14524697629E+04  0.00000000000E+00 0. -1.
          4    1    6    6  502    0 -0.48311532901E+02  0.14853075660E+03  0.12889002842E+04  0.12983294391E+04  0.00000000000E+00 0. -1.
          1    1    5    5  503    0 -0.11324040166E+03 -0.13192735388E+03 -0.44846963407E+02  0.17955351681E+03  0.00000000000E+00 0. -1.
         -2    1    5    5    0  503 -0.77129210317E+01  0.93066660760E+01 -0.15451457429E+02  0.19617612520E+02  0.00000000000E+00 0.  1.
         -3    1    6    6    0  502 -0.11988591452E+02 -0.97134094780E+01  0.19741279847E+03  0.19801487229E+03  0.00000000000E+00 0.  1.
<mgrwt>
<rscale>  0 0.13449244E+04</rscale>
<asrwt>0</asrwt>
<pdfrwt beam="1">  1        1 0.49348489E+00 0.13449244E+04</pdfrwt>
<pdfrwt beam="2">  1       -1 0.21688783E-01 0.13449244E+04</pdfrwt>
<totfact> 0.74168070E+00</totfact>
</mgrwt>
</event>
<event>
12    1  0.1549527E-007  0.2121298E+04  0.7818608E-02  0.8551919E-01
         -3   -1    0    0    0  501 -0.00000000000E+00  0.00000000000E+00  0.15899962452E+04  0.15899962452E+04  0.00000000000E+00 0.  1.
          3   -1    0    0  501    0  0.00000000000E+00 -0.00000000000E+00 -0.70753419322E+03  0.70753419322E+03  0.00000000000E+00 0. -1.
         23    2    1    2    0    0  0.29803629119E+03  0.59165883609E+03  0.97477646285E+03  0.11821079445E+04  0.91127551529E+02 0.  0.
        254    2    1    2    0    0 -0.29803629119E+03 -0.59165883609E+03 -0.92314410840E+02  0.11154224940E+04  0.89261390335E+03 0.  0.
        -24    2    4    4    0    0 -0.12098999104E+03 -0.77588478894E+03 -0.21883152266E+03  0.81907075607E+03  0.79711257018E+02 0.  0.
         24    2    4    4    0    0 -0.17704630014E+03  0.18422595285E+03  0.12651711182E+03  0.29635173792E+03  0.80828082295E+02 0.  0.
         13    1    3    3    0    0  0.20012645527E+03  0.42116295359E+03  0.61102509893E+03  0.76862247111E+03  0.00000000000E+00 0.  1.
        -13    1    3    3    0    0  0.97909835911E+02  0.17049588250E+03  0.36375136392E+03  0.41348547335E+03  0.00000000000E+00 0. -1.
          4    1    6    6  502    0 -0.18350932761E+03  0.18482551874E+03  0.11880140463E+03  0.28626896346E+03  0.00000000000E+00 0. -1.
          3    1    5    5  503    0 -0.82738977426E+02 -0.28902135738E+03 -0.94405387951E+02  0.31510547548E+03  0.00000000000E+00 0. -1.
         -4    1    5    5    0  503 -0.38251013616E+02 -0.48686343157E+03 -0.12442613471E+03  0.50396528059E+03  0.00000000000E+00 0.  1.
         -3    1    6    6    0  502  0.64630274706E+01 -0.59956589286E+00  0.77157071886E+01  0.10082774458E+02  0.00000000000E+00 0.  1.
<mgrwt>
<rscale>  0 0.21212984E+04</rscale>
<asrwt>0</asrwt>
<pdfrwt beam="1">  1        3 0.10885142E+00 0.21212984E+04</pdfrwt>
<pdfrwt beam="2">  1       -3 0.24461481E+00 0.21212984E+04</pdfrwt>
<totfact> 0.13519202E-01</totfact>
</mgrwt>
</event>
<event>
12    1  0.1549527E-007  0.3055870E+04  0.7818608E-02  0.8227954E-01
          1   -1    0    0  501    0  0.00000000000E+00  0.00000000000E+00  0.14458932553E+04  0.14458932553E+04  0.00000000000E+00 0. -1.
         -1   -1    0    0    0  501 -0.00000000000E+00 -0.00000000000E+00 -0.16146317538E+04  0.16146317538E+04  0.00000000000E+00 0.  1.
         23    2    1    2    0    0  0.10405626179E+04 -0.48328790085E+03 -0.86109051958E+03  0.14373031687E+04  0.89586600310E+02 0.  0.
        254    2    1    2    0    0 -0.10405626179E+04  0.48328790085E+03  0.69235202112E+03  0.16232218404E+04  0.91605680230E+03 0.  0.
        -24    2    4    4    0    0 -0.65619639599E+02 -0.10266329791E+03 -0.14752297417E+03  0.20695026783E+03  0.78865046800E+02 0.  0.
         24    2    4    4    0    0 -0.97494297835E+03  0.58595119876E+03  0.83987499529E+03  0.14162715726E+04  0.81132861493E+02 0.  0.
         11    1    3    3    0    0  0.15658508950E+03 -0.10910852658E+03 -0.13781390935E+03  0.23540653014E+03  0.00000000000E+00 0. -1.
        -11    1    3    3    0    0  0.88397752845E+03 -0.37417937427E+03 -0.72327661024E+03  0.12018966386E+04  0.00000000000E+00 0.  1.
          4    1    6    6  502    0 -0.74309437123E+03  0.43169946004E+03  0.59305045585E+03  0.10441563635E+04  0.00000000000E+00 0. -1.
          3    1    5    5  503    0  0.50311398224E+01 -0.60485667306E+02 -0.80547772100E+02  0.10085520268E+03  0.00000000000E+00 0. -1.
         -4    1    5    5    0  503 -0.70650779422E+02 -0.42177630603E+02 -0.66975202074E+02  0.10609506515E+03  0.00000000000E+00 0.  1.
         -3    1    6    6    0  502 -0.23184860712E+03  0.15425173872E+03  0.24682453944E+03  0.37211520903E+03  0.00000000000E+00 0.  1.
<mgrwt>
<rscale>  0 0.30558699E+04</rscale>
<asrwt>0</asrwt>
<pdfrwt beam="1">  1        1 0.22244512E+00 0.30558699E+04</pdfrwt>
<pdfrwt beam="2">  1       -1 0.24840488E+00 0.30558699E+04</pdfrwt>
<totfact> 0.43154648E-01</totfact>
</mgrwt>
</event>
<event>
12    1  0.1549527E-007  0.1331927E+04  0.7818608E-02  0.9004623E-01
         -2   -1    0    0    0  501 -0.00000000000E+00  0.00000000000E+00  0.32032281586E+03  0.32032281586E+03  0.00000000000E+00 0. -1.
          2   -1    0    0  501    0  0.00000000000E+00 -0.00000000000E+00 -0.13845642411E+04  0.13845642411E+04  0.00000000000E+00 0.  1.
         23    2    1    2    0    0 -0.33417208396E+02 -0.34878067782E+03 -0.22808978516E+03  0.42783757480E+03  0.90859062765E+02 0.  0.
        254    2    1    2    0    0  0.33417208396E+02  0.34878067782E+03 -0.83615164008E+03  0.12770494821E+04  0.89941155408E+03 0.  0.
        -24    2    4    4    0    0 -0.36309015381E+03  0.41178301021E+03 -0.49736036758E+03  0.74499583674E+03  0.79068035506E+02 0.  0.
         24    2    4    4    0    0  0.39650736221E+03 -0.63002332397E+02 -0.33879127250E+03  0.53205364540E+03  0.84345557599E+02 0.  0.
         11    1    3    3    0    0 -0.32816380857E+02 -0.10810593503E+03 -0.11739051473E+03  0.16292434131E+03  0.00000000000E+00 0.  1.
        -11    1    3    3    0    0 -0.60082753948E+00 -0.24067474279E+03 -0.11069927042E+03  0.26491323350E+03  0.00000000000E+00 0. -1.
          2    1    6    6  502    0  0.23337480618E+03 -0.65297770551E+02 -0.24135857538E+03  0.34202567288E+03  0.00000000000E+00 0. -1.
          1    1    5    5  503    0 -0.17001167356E+03  0.25174644717E+03 -0.26518859443E+03  0.40324339229E+03  0.00000000000E+00 0. -1.
         -2    1    5    5    0  503 -0.19307848025E+03  0.16003656304E+03 -0.23217177315E+03  0.34175244446E+03  0.00000000000E+00 0.  1.
         -1    1    6    6    0  502  0.16313255602E+03  0.22954381548E+01 -0.97432697126E+02  0.19002797252E+03  0.00000000000E+00 0.  1.
<mgrwt>
<rscale>  0 0.13319272E+04</rscale>
<asrwt>0</asrwt>
<pdfrwt beam="1">  1        2 0.21300988E+00 0.13319272E+04</pdfrwt>
<pdfrwt beam="2">  1       -2 0.49280434E-01 0.13319272E+04</pdfrwt>
<totfact> 0.56285012E+01</totfact>
</mgrwt>
</event>
<event>
12    1  0.1639814E-007  0.2416884E+04  0.7818608E-02  0.8433209E-01
          2   -1    0    0  501    0  0.00000000000E+00  0.00000000000E+00  0.23750711910E+04  0.23750711910E+04  0.00000000000E+00 0. -1.
         -2   -1    0    0    0  501 -0.00000000000E+00 -0.00000000000E+00 -0.61485839762E+03  0.61485839762E+03  0.00000000000E+00 0.  1.
         23    2    1    2    0    0  0.79182797108E+03 -0.61402411042E+03  0.11032752657E+04  0.14932622727E+04  0.92729495605E+02 0.  0.
        254    2    1    2    0    0 -0.79182797108E+03  0.61402411042E+03  0.65693752771E+03  0.14966673159E+04  0.89689965726E+03 0.  0.
        -24    2    4    4    0    0 -0.91035271981E+03  0.30799849318E+03  0.31220588055E+03  0.10135656697E+04  0.78979165877E+02 0.  0.
         24    2    4    4    0    0  0.11852474873E+03  0.30602561725E+03  0.34473164716E+03  0.48310164622E+03  0.82749607567E+02 0.  0.
         11    1    3    3    0    0  0.34617144789E+03 -0.28895993907E+03  0.56073440601E+03  0.71955235515E+03  0.00000000000E+00 0.  1.
        -11    1    3    3    0    0  0.44565652319E+03 -0.32506417136E+03  0.54254085968E+03  0.77370991759E+03  0.00000000000E+00 0. -1.
          2    1    6    6  502    0 -0.19556374909E+00 -0.48656050601E+01  0.16684328991E+01  0.51474290787E+01  0.00000000000E+00 0. -1.
          3    1    5    5  503    0 -0.82554597544E+02  0.52223453702E+01  0.31511175761E+02  0.88518295649E+02  0.00000000000E+00 0. -1.
         -4    1    5    5    0  503 -0.82779812226E+03  0.30277614781E+03  0.28069470479E+03  0.92504737403E+03  0.00000000000E+00 0.  1.
         -1    1    6    6    0  502  0.11872031248E+03  0.31089122231E+03  0.34306321426E+03  0.47795421714E+03  0.00000000000E+00 0.  1.
<mgrwt>
<rscale>  0 0.24168843E+04</rscale>
<asrwt>0</asrwt>
<pdfrwt beam="1">  1        2 0.36539556E+00 0.24168843E+04</pdfrwt>
<pdfrwt beam="2">  1       -2 0.94593601E-01 0.24168843E+04</pdfrwt>
<totfact> 0.34725309E+00</totfact>
</mgrwt>
</event>
<event>
12    1  0.1549527E-007  0.1484114E+04  0.7818608E-02  0.8895086E-01
         -2   -1    0    0    0  501 -0.00000000000E+00  0.00000000000E+00  0.26836332579E+03  0.26836332579E+03  0.00000000000E+00 0.  1.
          2   -1    0    0  501    0  0.00000000000E+00 -0.00000000000E+00 -0.20518779049E+04  0.20518779049E+04  0.00000000000E+00 0. -1.
         23    2    1    2    0    0  0.14225068200E+03 -0.43003457345E+03 -0.73739776167E+03  0.87010479507E+03  0.90343259841E+02 0.  0.
        254    2    1    2    0    0 -0.14225068200E+03  0.43003457345E+03 -0.10461168174E+04  0.14501364356E+04  0.89630926318E+03 0.  0.
        -24    2    4    4    0    0 -0.36008425078E+03 -0.13019045494E+03 -0.32625962233E+03  0.50934911413E+03  0.79880890601E+02 0.  0.
         24    2    4    4    0    0  0.21783356878E+03  0.56022502839E+03 -0.71985719510E+03  0.94078732147E+03  0.74718516943E+02 0.  0.
         11    1    3    3    0    0  0.10113108855E+03 -0.31249144720E+03 -0.60459460813E+03  0.68805017391E+03  0.00000000000E+00 0.  1.
        -11    1    3    3    0    0  0.41119593447E+02 -0.11754312626E+03 -0.13280315354E+03  0.18205462116E+03  0.00000000000E+00 0. -1.
          4    1    6    6  502    0  0.19927316315E+03  0.45619463847E+03 -0.56143271465E+03  0.75035327333E+03  0.00000000000E+00 0. -1.
          3    1    5    5  503    0 -0.27062066190E+03 -0.62897111362E+02 -0.25129136947E+03  0.37461839468E+03  0.00000000000E+00 0. -1.
         -4    1    5    5    0  503 -0.89463588881E+02 -0.67293343581E+02 -0.74968252860E+02  0.13473071945E+03  0.00000000000E+00 0.  1.
         -3    1    6    6    0  502  0.18560405638E+02  0.10403038993E+03 -0.15842448045E+03  0.19043404814E+03  0.00000000000E+00 0.  1.
<mgrwt>
<rscale>  0 0.14841143E+04</rscale>
<asrwt>0</asrwt>
<pdfrwt beam="1">  1        2 0.31567352E+00 0.14841143E+04</pdfrwt>
<pdfrwt beam="2">  1       -2 0.41286666E-01 0.14841143E+04</pdfrwt>
<totfact> 0.33623505E+01</totfact>
</mgrwt>
</event>
<event>
12    1  0.1549527E-007  0.1077926E+04  0.7818608E-02  0.9226978E-01
         -2   -1    0    0    0  501 -0.00000000000E+00  0.00000000000E+00  0.27519372932E+03  0.27519372932E+03  0.00000000000E+00 0. -1.
          2   -1    0    0  501    0  0.00000000000E+00 -0.00000000000E+00 -0.10555504581E+04  0.10555504581E+04  0.00000000000E+00 0.  1.
         23    2    1    2    0    0  0.93386492215E+02  0.10427037327E+03 -0.90741364099E+02  0.18999629445E+03  0.90946407718E+02 0.  0.
        254    2    1    2    0    0 -0.93386492215E+02 -0.10427037327E+03 -0.68961536465E+03  0.11407478929E+04  0.89785469672E+03 0.  0.
        -24    2    4    4    0    0 -0.38176585581E+03  0.22232122923E+03 -0.23595870296E+03  0.50700498242E+03  0.78775916835E+02 0.  0.
         24    2    4    4    0    0  0.28837936359E+03 -0.32659160249E+03 -0.45365666169E+03  0.63374291052E+03  0.77465978166E+02 0.  0.
         13    1    3    3    0    0 -0.15901253755E+02  0.17349392939E+00 -0.68130367286E+01  0.17300215044E+02  0.00000000000E+00 0.  1.
        -13    1    3    3    0    0  0.10928774597E+03  0.10409687934E+03 -0.83928327371E+02  0.17269607941E+03  0.00000000000E+00 0. -1.
          2    1    6    6  502    0  0.14890164674E+03 -0.14117595879E+03 -0.16437133339E+03  0.26290737339E+03  0.00000000000E+00 0. -1.
          1    1    5    5  503    0 -0.37809301129E+03  0.22594284997E+03 -0.23889038755E+03  0.50107196479E+03  0.00000000000E+00 0. -1.
         -2    1    5    5    0  503 -0.36728445172E+01 -0.36216207447E+01  0.29316845869E+01  0.59330176288E+01  0.00000000000E+00 0.  1.
         -3    1    6    6    0  502  0.13947771685E+03 -0.18541564370E+03 -0.28928532830E+03  0.37083553713E+03  0.00000000000E+00 0.  1.
<mgrwt>
<rscale>  0 0.10779255E+04</rscale>
<asrwt>0</asrwt>
<pdfrwt beam="1">  1        2 0.16239238E+00 0.10779255E+04</pdfrwt>
<pdfrwt beam="2">  1       -2 0.42337497E-01 0.10779255E+04</pdfrwt>
<totfact> 0.12199351E+02</totfact>
</mgrwt>
</event>
<event>
12    1  0.1549527E-007  0.1592561E+04  0.7818608E-02  0.8825131E-01
          1   -1    0    0  501    0  0.00000000000E+00  0.00000000000E+00  0.17308931863E+04  0.17308931863E+04  0.00000000000E+00 0. -1.
         -1   -1    0    0    0  501 -0.00000000000E+00 -0.00000000000E+00 -0.36632104895E+03  0.36632104895E+03  0.00000000000E+00 0.  1.
         23    2    1    2    0    0 -0.27923427653E+03 -0.17291337711E+03 -0.95373094281E+02  0.35292414745E+03  0.87112625751E+02 0.  0.
        254    2    1    2    0    0  0.27923427653E+03  0.17291337711E+03  0.14599452316E+04  0.17442900878E+04  0.89623490998E+03 0.  0.
        -24    2    4    4    0    0 -0.25077631464E+03  0.18590383518E+03  0.21130769301E+03  0.38529550885E+03  0.79703777191E+02 0.  0.
         24    2    4    4    0    0  0.53001059117E+03 -0.12990458078E+02  0.12486375386E+04  0.13589945790E+04  0.81795990056E+02 0.  0.
         11    1    3    3    0    0 -0.13841875675E+03 -0.12774222851E+03 -0.78582620619E+02  0.20409080682E+03  0.00000000000E+00 0.  1.
        -11    1    3    3    0    0 -0.14081551978E+03 -0.45171148600E+02 -0.16790473662E+02  0.14883334063E+03  0.00000000000E+00 0. -1.
          2    1    6    6  502    0  0.35237035553E+03 -0.29917584547E+02  0.74484244209E+03  0.82453028620E+03  0.00000000000E+00 0. -1.
          3    1    5    5  503    0 -0.24076073241E+03  0.19095706866E+03  0.19020874872E+03  0.36139964089E+03  0.00000000000E+00 0. -1.
         -4    1    5    5    0  503 -0.10015582225E+02 -0.50532334768E+01  0.21098944283E+02  0.23895867964E+02  0.00000000000E+00 0.  1.
         -1    1    6    6    0  502  0.17764023564E+03  0.16927126469E+02  0.50379509654E+03  0.53446429275E+03  0.00000000000E+00 0.  1.
<mgrwt>
<rscale>  0 0.15925610E+04</rscale>
<asrwt>0</asrwt>
<pdfrwt beam="1">  1        1 0.26629125E+00 0.15925610E+04</pdfrwt>
<pdfrwt beam="2">  1       -1 0.56357086E-01 0.15925610E+04</pdfrwt>
<totfact> 0.13889277E+01</totfact>
</mgrwt>
</event>
<event>
12    1  0.1549527E-007  0.2072439E+04  0.7818608E-02  0.8573482E-01
         -1   -1    0    0    0  501 -0.00000000000E+00  0.00000000000E+00  0.39821641721E+03  0.39821641721E+03  0.00000000000E+00 0.  1.
          1   -1    0    0  501    0  0.00000000000E+00 -0.00000000000E+00 -0.26963993177E+04  0.26963993177E+04  0.00000000000E+00 0. -1.
         23    2    1    2    0    0 -0.36732789018E+03  0.65551617911E+03 -0.37835309844E+03  0.84614720648E+03  0.90458763809E+02 0.  0.
        254    2    1    2    0    0  0.36732789018E+03 -0.65551617911E+03 -0.19198298020E+04  0.22484685284E+04  0.89734776677E+03 0.  0.
        -24    2    4    4    0    0  0.17078840219E+03 -0.58697701869E+03 -0.19293385148E+04  0.20256060643E+04  0.83798114773E+02 0.  0.
         24    2    4    4    0    0  0.19653948800E+03 -0.68539160418E+02  0.95087127861E+01  0.22286246415E+03  0.79068802029E+02 0.  0.
         13    1    3    3    0    0 -0.25225602591E+03  0.49546545622E+03 -0.24146610255E+03  0.60615592020E+03  0.00000000000E+00 0. -1.
        -13    1    3    3    0    0 -0.11507186427E+03  0.16005072289E+03 -0.13688699589E+03  0.23999128628E+03  0.00000000000E+00 0.  1.
          2    1    6    6  502    0  0.67755786767E+02 -0.36184117288E+02  0.40025372348E+02  0.86615053056E+02  0.00000000000E+00 0. -1.
          1    1    5    5  503    0  0.80237909672E+02 -0.14907556256E+03 -0.56959724570E+03  0.59422442546E+03  0.00000000000E+00 0. -1.
         -2    1    5    5    0  503  0.90550492513E+02 -0.43790145613E+03 -0.13597412691E+04  0.14313816388E+04  0.00000000000E+00 0.  1.
         -3    1    6    6    0  502  0.12878370123E+03 -0.32355043131E+02 -0.30516659562E+02  0.13624741109E+03  0.00000000000E+00 0.  1.
<mgrwt>
<rscale>  0 0.20724386E+04</rscale>
<asrwt>0</asrwt>
<pdfrwt beam="1">  1        1 0.41483068E+00 0.20724386E+04</pdfrwt>
<pdfrwt beam="2">  1       -1 0.61264062E-01 0.20724386E+04</pdfrwt>
<totfact> 0.24607454E+00</totfact>
</mgrwt>
</event>
<event>
12    1  0.1549527E-007  0.1601917E+04  0.7818608E-02  0.8819371E-01
         -2   -1    0    0    0  501 -0.00000000000E+00  0.00000000000E+00  0.48320159335E+03  0.48320159335E+03  0.00000000000E+00 0.  1.
          2   -1    0    0  501    0  0.00000000000E+00 -0.00000000000E+00 -0.13276750256E+04  0.13276750256E+04  0.00000000000E+00 0. -1.
         23    2    1    2    0    0 -0.86704322703E+02  0.43437927226E+03 -0.64236344274E+03  0.78405238042E+03  0.76839774337E+02 0.  0.
        254    2    1    2    0    0  0.86704322703E+02 -0.43437927226E+03 -0.20210998947E+03  0.10268242385E+04  0.90405562724E+03 0.  0.
        -24    2    4    4    0    0 -0.13975314369E+03 -0.33730578785E+03  0.28848992908E+03  0.47228532062E+03  0.80751775277E+02 0.  0.
         24    2    4    4    0    0  0.22645746640E+03 -0.97073484413E+02 -0.49059991855E+03  0.55453891786E+03  0.78223307793E+02 0.  0.
         11    1    3    3    0    0  0.97183913194E+01  0.10036140591E+03 -0.16791790937E+03  0.19586547223E+03  0.00000000000E+00 0.  1.
        -11    1    3    3    0    0 -0.96422714023E+02  0.33401786635E+03 -0.47444553337E+03  0.58818690818E+03  0.00000000000E+00 0. -1.
          4    1    6    6  502    0  0.21708042040E+03 -0.70414818126E+02 -0.45553354434E+03  0.50950266491E+03  0.00000000000E+00 0. -1.
          1    1    5    5  503    0 -0.89102776206E+02 -0.27567627565E+03  0.25430477378E+03  0.38549660394E+03  0.00000000000E+00 0. -1.
         -2    1    5    5    0  503 -0.50650367489E+02 -0.61629512202E+02  0.34185155293E+02  0.86788716682E+02  0.00000000000E+00 0.  1.
         -3    1    6    6    0  502  0.93770459965E+01 -0.26658666287E+02 -0.35066374209E+02  0.45036252952E+02  0.00000000000E+00 0.  1.
<mgrwt>
<rscale>  0 0.16019172E+04</rscale>
<asrwt>0</asrwt>
<pdfrwt beam="1">  1        2 0.20425770E+00 0.16019172E+04</pdfrwt>
<pdfrwt beam="2">  1       -2 0.74338707E-01 0.16019172E+04</pdfrwt>
<totfact> 0.24872369E+01</totfact>
</mgrwt>
</event>
<event>
12    1  0.1549527E-007  0.2231016E+04  0.7818608E-02  0.8505628E-01
         -2   -1    0    0    0  501 -0.00000000000E+00  0.00000000000E+00  0.14236296442E+04  0.14236296442E+04  0.00000000000E+00 0.  1.
          2   -1    0    0  501    0  0.00000000000E+00 -0.00000000000E+00 -0.87407468229E+03  0.87407468229E+03  0.00000000000E+00 0. -1.
         23    2    1    2    0    0  0.17578997860E+03 -0.78752803008E+03 -0.26073988505E+03  0.85259633839E+03  0.88502620549E+02 0.  0.
        254    2    1    2    0    0 -0.17578997860E+03  0.78752803008E+03  0.81029484696E+03  0.14451079881E+04  0.88354787280E+03 0.  0.
        -24    2    4    4    0    0 -0.33417708763E+03  0.64111453432E+03  0.93449421754E+03  0.11842572807E+04  0.80521377108E+02 0.  0.
         24    2    4    4    0    0  0.15838710903E+03  0.14641349576E+03 -0.12419937058E+03  0.26085070744E+03  0.78065484522E+02 0.  0.
         13    1    3    3    0    0  0.60114338638E+02 -0.21961174130E+03 -0.11447386751E+03  0.25484763482E+03  0.00000000000E+00 0. -1.
        -13    1    3    3    0    0  0.11567563996E+03 -0.56791628878E+03 -0.14626601753E+03  0.59774870357E+03  0.00000000000E+00 0.  1.
          4    1    6    6  502    0  0.12665428946E+03  0.91430543243E+02 -0.51826904419E+02  0.16458092629E+03  0.00000000000E+00 0. -1.
          1    1    5    5  503    0 -0.27995506754E+03  0.58904349681E+03  0.83216922726E+03  0.10572855356E+04  0.00000000000E+00 0. -1.
         -2    1    5    5    0  503 -0.54222020089E+02  0.52071037510E+02  0.10232499028E+03  0.12697174507E+03  0.00000000000E+00 0.  1.
         -3    1    6    6    0  502  0.31732819570E+02  0.54982952514E+02 -0.72372466163E+02  0.96269781154E+02  0.00000000000E+00 0.  1.
<mgrwt>
<rscale>  0 0.22310165E+04</rscale>
<asrwt>0</asrwt>
<pdfrwt beam="1">  1        2 0.13447303E+00 0.22310165E+04</pdfrwt>
<pdfrwt beam="2">  1       -2 0.21901995E+00 0.22310165E+04</pdfrwt>
<totfact> 0.27908728E+00</totfact>
</mgrwt>
</event>
<event>
12    1  0.1549527E-007  0.1621121E+04  0.7818608E-02  0.8807677E-01
         -3   -1    0    0    0  501 -0.00000000000E+00  0.00000000000E+00  0.37554808791E+03  0.37554808791E+03  0.00000000000E+00 0.  1.
          3   -1    0    0  501    0  0.00000000000E+00 -0.00000000000E+00 -0.17494647776E+04  0.17494647776E+04  0.00000000000E+00 0. -1.
         23    2    1    2    0    0  0.45817949030E+03  0.15479600619E+03 -0.84403868215E+03  0.97718368719E+03  0.92716841383E+02 0.  0.
        254    2    1    2    0    0 -0.45817949030E+03 -0.15479600619E+03 -0.52987800753E+03  0.11478291783E+04  0.89601945897E+03 0.  0.
        -24    2    4    4    0    0 -0.49771749090E+03  0.27779316516E+03 -0.29707932455E+03  0.64843315424E+03  0.85543480714E+02 0.  0.
         24    2    4    4    0    0  0.39538000599E+02 -0.43258917135E+03 -0.23279868298E+03  0.49939602406E+03  0.80650588302E+02 0.  0.
         13    1    3    3    0    0  0.21381460926E+03  0.58256186254E+02 -0.47516729321E+03  0.52430375443E+03  0.00000000000E+00 0. -1.
        -13    1    3    3    0    0  0.24436488104E+03  0.96539819931E+02 -0.36887138894E+03  0.45287993276E+03  0.00000000000E+00 0.  1.
          4    1    6    6  502    0  0.41552583938E+02 -0.90056843307E+02 -0.56656958320E+02  0.11422286629E+03  0.00000000000E+00 0. -1.
          1    1    5    5  503    0 -0.27416237939E+03  0.10515689323E+03 -0.14123177253E+03  0.32583645597E+03  0.00000000000E+00 0. -1.
         -2    1    5    5    0  503 -0.22355511151E+03  0.17263627193E+03 -0.15584755201E+03  0.32259669827E+03  0.00000000000E+00 0.  1.
         -3    1    6    6    0  502 -0.20145833390E+01 -0.34253232804E+03 -0.17614172466E+03  0.38517315777E+03  0.00000000000E+00 0.  1.
<mgrwt>
<rscale>  0 0.16211208E+04</rscale>
<asrwt>0</asrwt>
<pdfrwt beam="1">  1        3 0.26914843E+00 0.16211208E+04</pdfrwt>
<pdfrwt beam="2">  1       -3 0.57776629E-01 0.16211208E+04</pdfrwt>
<totfact> 0.42447896E-01</totfact>
</mgrwt>
</event>
<event>
12    1  0.1549527E-007  0.1483592E+04  0.7818608E-02  0.8895438E-01
          2   -1    0    0  501    0  0.00000000000E+00  0.00000000000E+00  0.27690092441E+04  0.27690092441E+04  0.00000000000E+00 0. -1.
         -2   -1    0    0    0  501 -0.00000000000E+00 -0.00000000000E+00 -0.19872146883E+03  0.19872146883E+03  0.00000000000E+00 0.  1.
         23    2    1    2    0    0 -0.54399850420E+02 -0.17005054873E+03 -0.37034117025E+02  0.20310083237E+03  0.89453280754E+02 0.  0.
        254    2    1    2    0    0  0.54399850420E+02  0.17005054873E+03  0.26073218923E+04  0.27646298806E+04  0.90176182750E+03 0.  0.
        -24    2    4    4    0    0  0.31528480565E+02 -0.34331105030E+03  0.66053056229E+03  0.74941323428E+03  0.80393094517E+02 0.  0.
         24    2    4    4    0    0  0.22871369855E+02  0.51336159903E+03  0.19467913300E+04  0.20152166463E+04  0.83895279491E+02 0.  0.
         13    1    3    3    0    0  0.18028697931E+02 -0.89071421608E+02 -0.21094666563E+02  0.93293821091E+02  0.00000000000E+00 0.  1.
        -13    1    3    3    0    0 -0.72428548351E+02 -0.80979127123E+02 -0.15939450462E+02  0.10980701128E+03  0.00000000000E+00 0. -1.
          2    1    6    6  502    0 -0.24379431132E+02  0.67076042189E+02  0.29971000292E+03  0.30809030810E+03  0.00000000000E+00 0. -1.
          1    1    5    5  503    0 -0.25439416705E+02 -0.63375323420E+02  0.12298189340E+03  0.14067032965E+03  0.00000000000E+00 0. -1.
         -2    1    5    5    0  503  0.56967897270E+02 -0.27993572688E+03  0.53754866890E+03  0.60874290463E+03  0.00000000000E+00 0.  1.
         -1    1    6    6    0  502  0.47250800987E+02  0.44628555684E+03  0.16470813271E+04  0.17071263382E+04  0.00000000000E+00 0.  1.
<mgrwt>
<rscale>  0 0.14835924E+04</rscale>
<asrwt>0</asrwt>
<pdfrwt beam="1">  1        2 0.42600140E+00 0.14835924E+04</pdfrwt>
<pdfrwt beam="2">  1       -2 0.30572536E-01 0.14835924E+04</pdfrwt>
<totfact> 0.23237070E+01</totfact>
</mgrwt>
</event>
<event>
12    1  0.1549527E-007  0.1154268E+04  0.7818608E-02  0.9153855E-01
          1   -1    0    0  501    0  0.00000000000E+00  0.00000000000E+00  0.10295984568E+04  0.10295984568E+04  0.00000000000E+00 0.  1.
         -1   -1    0    0    0  501 -0.00000000000E+00 -0.00000000000E+00 -0.32350838828E+03  0.32350838828E+03  0.00000000000E+00 0. -1.
         23    2    1    2    0    0  0.10041147735E+03  0.14444106477E+03  0.13801423941E+02  0.19896768628E+03  0.91934623001E+02 0.  0.
        254    2    1    2    0    0 -0.10041147735E+03 -0.14444106477E+03  0.69228864455E+03  0.11541391588E+04  0.90654726541E+03 0.  0.
        -24    2    4    4    0    0  0.95876590769E+02 -0.48210207528E+03  0.24376351650E+03  0.55394855695E+03  0.76312647188E+02 0.  0.
         24    2    4    4    0    0 -0.19628806812E+03  0.33766101052E+03  0.44852512804E+03  0.60019060180E+03  0.80684597635E+02 0.  0.
         13    1    3    3    0    0  0.61304154040E+02  0.32926384954E+02  0.36585132552E+02  0.78618178893E+02  0.00000000000E+00 0.  1.
        -13    1    3    3    0    0  0.39107323314E+02  0.11151467982E+03 -0.22783708611E+02  0.12034950739E+03  0.00000000000E+00 0. -1.
          2    1    6    6  502    0 -0.16701022541E+03  0.32427573450E+03  0.39438690377E+03  0.53720405549E+03  0.00000000000E+00 0. -1.
          3    1    5    5  503    0  0.84266547053E+02 -0.43157345903E+03  0.24234632550E+03  0.50208390033E+03  0.00000000000E+00 0. -1.
         -4    1    5    5    0  503  0.11610043715E+02 -0.50528616260E+02  0.14171910015E+01  0.51864656622E+02  0.00000000000E+00 0.  1.
         -1    1    6    6    0  502 -0.29277842712E+02  0.13385276015E+02  0.54138224276E+02  0.62986546306E+02  0.00000000000E+00 0.  1.
<mgrwt>
<rscale>  0 0.11542681E+04</rscale>
<asrwt>0</asrwt>
<pdfrwt beam="1">  1        1 0.15839976E+00 0.11542681E+04</pdfrwt>
<pdfrwt beam="2">  1       -1 0.49770522E-01 0.11542681E+04</pdfrwt>
<totfact> 0.57671274E+01</totfact>
</mgrwt>
</event>
<event>
12    1  0.1549527E-007  0.2534403E+04  0.7818608E-02  0.8390831E-01
          1   -1    0    0  501    0  0.00000000000E+00  0.00000000000E+00  0.20790605366E+04  0.20790605366E+04  0.00000000000E+00 0. -1.
         -1   -1    0    0    0  501 -0.00000000000E+00 -0.00000000000E+00 -0.77236817310E+03  0.77236817310E+03  0.00000000000E+00 0.  1.
         23    2    1    2    0    0  0.47362390568E+03 -0.84195051001E+03  0.11774339678E+04  0.15258660134E+04  0.93359932907E+02 0.  0.
        254    2    1    2    0    0 -0.47362390568E+03  0.84195051001E+03  0.12925839573E+03  0.13255626963E+04  0.89844780795E+03 0.  0.
        -24    2    4    4    0    0 -0.28326038043E+03  0.81317535665E+03  0.42488796469E+03  0.96366338201E+03  0.81404714220E+02 0.  0.
         24    2    4    4    0    0 -0.19036352525E+03  0.28775153357E+02 -0.29562956896E+03  0.36189931429E+03  0.80672116894E+02 0.  0.
         13    1    3    3    0    0  0.22614483229E+02 -0.24047603394E+02  0.20075089804E+02  0.38635622311E+02  0.00000000000E+00 0.  1.
        -13    1    3    3    0    0  0.45100942245E+03 -0.81790290662E+03  0.11573588780E+04  0.14872303911E+04  0.00000000000E+00 0. -1.
          2    1    6    6  502    0 -0.64924883445E+02 -0.10327222230E+02 -0.16040184021E+03  0.17335121099E+03  0.00000000000E+00 0. -1.
          1    1    5    5  503    0 -0.26269497815E+03  0.79565360860E+03  0.41280321268E+03  0.93406627646E+03  0.00000000000E+00 0. -1.
         -2    1    5    5    0  503 -0.20565402278E+02  0.17521748059E+02  0.12084752007E+02  0.29597105550E+02  0.00000000000E+00 0.  1.
         -1    1    6    6    0  502 -0.12543864181E+03  0.39102375587E+02 -0.13522772875E+03  0.18854810330E+03  0.00000000000E+00 0.  1.
<mgrwt>
<rscale>  0 0.25344034E+04</rscale>
<asrwt>0</asrwt>
<pdfrwt beam="1">  1        1 0.31985546E+00 0.25344034E+04</pdfrwt>
<pdfrwt beam="2">  1       -1 0.11882587E+00 0.25344034E+04</pdfrwt>
<totfact> 0.14789362E+00</totfact>
</mgrwt>
</event>
<event>
12    1  0.1549527E-007  0.2265993E+04  0.7818608E-02  0.8491451E-01
          2   -1    0    0  501    0  0.00000000000E+00  0.00000000000E+00  0.18135312633E+04  0.18135312633E+04  0.00000000000E+00 0. -1.
         -2   -1    0    0    0  501 -0.00000000000E+00 -0.00000000000E+00 -0.70783535785E+03  0.70783535785E+03  0.00000000000E+00 0.  1.
         23    2    1    2    0    0  0.89822068149E+03 -0.23946827129E+03  0.67410901477E+03  0.11522974969E+04  0.96026620756E+02 0.  0.
        254    2    1    2    0    0 -0.89822068149E+03  0.23946827129E+03  0.43158689066E+03  0.13690691243E+04  0.90771007331E+03 0.  0.
        -24    2    4    4    0    0 -0.30644941661E+03  0.41307462269E+03  0.52590163758E+03  0.74003178316E+03  0.80824617715E+02 0.  0.
         24    2    4    4    0    0 -0.59177126488E+03 -0.17360635140E+03 -0.94314746923E+02  0.62903734109E+03  0.80376052493E+02 0.  0.
         13    1    3    3    0    0  0.82301817011E+03 -0.24302472768E+03  0.60377251687E+03  0.10492669721E+04  0.00000000000E+00 0. -1.
        -13    1    3    3    0    0  0.75202511376E+02  0.35564563879E+01  0.70336497897E+02  0.10303052478E+03  0.00000000000E+00 0.  1.
          2    1    6    6  502    0 -0.19497926758E+03 -0.87655919914E+02 -0.77502079880E+01  0.21391713537E+03  0.00000000000E+00 0. -1.
          1    1    5    5  503    0 -0.23525155637E+03  0.26150144012E+03  0.33005871861E+03  0.48235366246E+03  0.00000000000E+00 0. -1.
         -2    1    5    5    0  503 -0.71197860244E+02  0.15157318257E+03  0.19584291897E+03  0.25767812070E+03  0.00000000000E+00 0.  1.
         -1    1    6    6    0  502 -0.39679199730E+03 -0.85950431485E+02 -0.86564538936E+02  0.41512020572E+03  0.00000000000E+00 0.  1.
<mgrwt>
<rscale>  0 0.22659934E+04</rscale>
<asrwt>0</asrwt>
<pdfrwt beam="1">  1        2 0.27900481E+00 0.22659934E+04</pdfrwt>
<pdfrwt beam="2">  1       -2 0.10889775E+00 0.22659934E+04</pdfrwt>
<totfact> 0.51909566E+00</totfact>
</mgrwt>
</event>
<event>
12    1  0.1549527E-007  0.1427949E+04  0.7818608E-02  0.8933832E-01
         -1   -1    0    0    0  501 -0.00000000000E+00  0.00000000000E+00  0.61619053781E+03  0.61619053781E+03  0.00000000000E+00 0.  1.
          1   -1    0    0  501    0  0.00000000000E+00 -0.00000000000E+00 -0.82727633965E+03  0.82727633965E+03  0.00000000000E+00 0. -1.
         23    2    1    2    0    0  0.22896907395E+03 -0.23757751593E+03 -0.32624197029E+03  0.47318446892E+03  0.92735136520E+02 0.  0.
        254    2    1    2    0    0 -0.22896907395E+03  0.23757751593E+03  0.11515616845E+03  0.97028240855E+03  0.90516136479E+03 0.  0.
        -24    2    4    4    0    0 -0.79755863231E+02  0.18456112819E+03 -0.38390294163E+03  0.44062987173E+03  0.79683169577E+02 0.  0.
         24    2    4    4    0    0 -0.14921321072E+03  0.53016387737E+02  0.49905911007E+03  0.52965253682E+03  0.79978089447E+02 0.  0.
         13    1    3    3    0    0  0.65032636781E+01 -0.50216144323E+02 -0.63611996428E+02  0.81304610439E+02  0.00000000000E+00 0.  1.
        -13    1    3    3    0    0  0.22246581027E+03 -0.18736137161E+03 -0.26262997386E+03  0.39187985848E+03  0.00000000000E+00 0. -1.
          2    1    6    6  502    0 -0.15357666418E+02 -0.19198322305E+02  0.87540588411E+02  0.90927378256E+02  0.00000000000E+00 0. -1.
          3    1    5    5  503    0 -0.17748611723E+02  0.13326357079E+02 -0.92225372458E+01  0.24034562703E+02  0.00000000000E+00 0. -1.
         -4    1    5    5    0  503 -0.62007251508E+02  0.17123477111E+03 -0.37468040438E+03  0.41659530903E+03  0.00000000000E+00 0.  1.
         -1    1    6    6    0  502 -0.13385554430E+03  0.72214710042E+02  0.41151852166E+03  0.43872515856E+03  0.00000000000E+00 0.  1.
<mgrwt>
<rscale>  0 0.14279494E+04</rscale>
<asrwt>0</asrwt>
<pdfrwt beam="1">  1        1 0.12727328E+00 0.14279494E+04</pdfrwt>
<pdfrwt beam="2">  1       -1 0.94798544E-01 0.14279494E+04</pdfrwt>
<totfact> 0.21927505E+01</totfact>
</mgrwt>
</event>
<event>
12    1  0.1549527E-007  0.3482587E+04  0.7818608E-02  0.8117929E-01
          3   -1    0    0  501    0  0.00000000000E+00  0.00000000000E+00  0.15654309953E+04  0.15654309953E+04  0.00000000000E+00 0.  1.
         -3   -1    0    0    0  501 -0.00000000000E+00 -0.00000000000E+00 -0.19369127837E+04  0.19369127837E+04  0.00000000000E+00 0. -1.
         23    2    1    2    0    0 -0.18495416530E+03  0.95564810592E+03 -0.14607748936E+04  0.17577449729E+04  0.91283921111E+02 0.  0.
        254    2    1    2    0    0  0.18495416530E+03 -0.95564810592E+03  0.10892931052E+04  0.17445988062E+04  0.95372647019E+03 0.  0.
        -24    2    4    4    0    0  0.64692374926E+02 -0.43975470543E+03  0.11204664327E+04  0.12080047381E+04  0.79127215693E+02 0.  0.
         24    2    4    4    0    0  0.12026179037E+03 -0.51589340049E+03 -0.31173327478E+02  0.53659406807E+03  0.79702689077E+02 0.  0.
         13    1    3    3    0    0 -0.20218070590E+01  0.18694782949E+03 -0.25729218023E+03  0.31804535001E+03  0.00000000000E+00 0.  1.
        -13    1    3    3    0    0 -0.18293235824E+03  0.76870027643E+03 -0.12034827134E+04  0.14396996229E+04  0.00000000000E+00 0. -1.
          2    1    6    6  502    0  0.10917065920E+03 -0.40791456442E+03  0.46261454649E+01  0.42229601694E+03  0.00000000000E+00 0. -1.
          1    1    5    5  503    0 -0.17580377377E+02 -0.72919302572E+02  0.20881244673E+03  0.22187593891E+03  0.00000000000E+00 0. -1.
         -2    1    5    5    0  503  0.82272752303E+02 -0.36683540286E+03  0.91165398595E+03  0.98612879922E+03  0.00000000000E+00 0.  1.
         -1    1    6    6    0  502  0.11091131166E+02 -0.10797883607E+03 -0.35799472943E+02  0.11429805113E+03  0.00000000000E+00 0.  1.
<mgrwt>
<rscale>  0 0.34825871E+04</rscale>
<asrwt>0</asrwt>
<pdfrwt beam="1">  1        3 0.24083554E+00 0.34825871E+04</pdfrwt>
<pdfrwt beam="2">  1       -3 0.29798658E+00 0.34825871E+04</pdfrwt>
<totfact> 0.69194780E-03</totfact>
</mgrwt>
</event>
<event>
12    1  0.1549527E-007  0.1636106E+04  0.7818608E-02  0.8798669E-01
          1   -1    0    0  501    0  0.00000000000E+00  0.00000000000E+00  0.54976536513E+03  0.54976536513E+03  0.00000000000E+00 0. -1.
         -1   -1    0    0    0  501 -0.00000000000E+00 -0.00000000000E+00 -0.12172656460E+04  0.12172656460E+04  0.00000000000E+00 0.  1.
         23    2    1    2    0    0 -0.43862730075E+03 -0.36684358664E+03 -0.20917570097E+03  0.61416507221E+03  0.80474443329E+02 0.  0.
        254    2    1    2    0    0  0.43862730075E+03  0.36684358664E+03 -0.45832457989E+03  0.11528659389E+04  0.88998332937E+03 0.  0.
        -24    2    4    4    0    0 -0.15532146939E+03 -0.14811153762E+03 -0.24231118089E+03  0.33365043578E+03  0.80908086646E+02 0.  0.
         24    2    4    4    0    0  0.59394877014E+03  0.51495512425E+03 -0.21601339901E+03  0.81921550313E+03  0.80612222872E+02 0.  0.
         11    1    3    3    0    0 -0.61495436329E+02 -0.72523779509E+02 -0.62543572753E+02  0.11381162408E+03  0.00000000000E+00 0. -1.
        -11    1    3    3    0    0 -0.37713186442E+03 -0.29431980713E+03 -0.14663212821E+03  0.50035344813E+03  0.00000000000E+00 0.  1.
          2    1    6    6  502    0  0.51967772179E+03  0.48107523886E+03 -0.20176954735E+03  0.73634860645E+03  0.00000000000E+00 0. -1.
          3    1    5    5  503    0 -0.40273240617E+02 -0.66873359457E+02 -0.41603597980E+02  0.88458122746E+02  0.00000000000E+00 0. -1.
         -2    1    5    5    0  503 -0.11504822877E+03 -0.81238178158E+02 -0.20070758291E+03  0.24519231303E+03  0.00000000000E+00 0.  1.
         -1    1    6    6    0  502  0.74271048348E+02  0.33879885392E+02 -0.14243851653E+02  0.82866896689E+02  0.00000000000E+00 0.  1.
<mgrwt>
<rscale>  0 0.16361057E+04</rscale>
<asrwt>0</asrwt>
<pdfrwt beam="1">  1        1 0.84579288E-01 0.16361057E+04</pdfrwt>
<pdfrwt beam="2">  1       -1 0.18727164E+00 0.16361057E+04</pdfrwt>
<totfact> 0.68572426E+00</totfact>
</mgrwt>
</event>
<event>
12    1  0.1549527E-007  0.2285198E+04  0.7818608E-02  0.8483780E-01
          2   -1    0    0  501    0  0.00000000000E+00  0.00000000000E+00  0.12175774798E+04  0.12175774798E+04  0.00000000000E+00 0. -1.
         -2   -1    0    0    0  501 -0.00000000000E+00 -0.00000000000E+00 -0.10722377639E+04  0.10722377639E+04  0.00000000000E+00 0.  1.
         23    2    1    2    0    0 -0.62667962263E+03 -0.69199429815E+03  0.66818182454E+02  0.94031779182E+03  0.90274149235E+02 0.  0.
        254    2    1    2    0    0  0.62667962263E+03  0.69199429815E+03  0.78521533469E+02  0.13494974518E+04  0.97128486201E+03 0.  0.
        -24    2    4    4    0    0  0.44340995887E+03  0.57796368990E+03 -0.38839939911E+03  0.82880887436E+03  0.73591022128E+02 0.  0.
         24    2    4    4    0    0  0.18326966376E+03  0.11403060825E+03  0.46692093257E+03  0.52068857746E+03  0.80688835318E+02 0.  0.
         11    1    3    3    0    0 -0.37776520791E+03 -0.45291164046E+03  0.78542088841E+02  0.59498266033E+03  0.00000000000E+00 0. -1.
        -11    1    3    3    0    0 -0.24891441471E+03 -0.23908265769E+03 -0.11723906388E+02  0.34533513149E+03  0.00000000000E+00 0.  1.
          2    1    6    6  502    0  0.14312589845E+03  0.88059972445E+02  0.42530909895E+03  0.45730450600E+03  0.00000000000E+00 0. -1.
          3    1    5    5  503    0  0.10103964145E+03  0.18166187414E+03 -0.95520787907E+02  0.22876683890E+03  0.00000000000E+00 0. -1.
         -4    1    5    5    0  503  0.34237031742E+03  0.39630181576E+03 -0.29287861120E+03  0.60004203546E+03  0.00000000000E+00 0.  1.
         -1    1    6    6    0  502  0.40143765307E+02  0.25970635809E+02  0.41611833624E+02  0.63384071461E+02  0.00000000000E+00 0.  1.
<mgrwt>
<rscale>  0 0.22851981E+04</rscale>
<asrwt>0</asrwt>
<pdfrwt beam="1">  1        2 0.18731961E+00 0.22851981E+04</pdfrwt>
<pdfrwt beam="2">  1       -2 0.16495966E+00 0.22851981E+04</pdfrwt>
<totfact> 0.38882102E+00</totfact>
</mgrwt>
</event>
<event>
12    1  0.1549527E-007  0.1940779E+04  0.7818608E-02  0.8634820E-01
          2   -1    0    0  501    0  0.00000000000E+00  0.00000000000E+00  0.90101041385E+03  0.90101041385E+03  0.00000000000E+00 0. -1.
         -2   -1    0    0    0  501 -0.00000000000E+00 -0.00000000000E+00 -0.10451112646E+04  0.10451112646E+04  0.00000000000E+00 0.  1.
         23    2    1    2    0    0 -0.74545600632E+03 -0.18130412471E+03 -0.76886327258E+02  0.77640802173E+03  0.91225357722E+02 0.  0.
        254    2    1    2    0    0  0.74545600632E+03  0.18130412471E+03 -0.67214523501E+02  0.11697136567E+04  0.88041831170E+03 0.  0.
        -24    2    4    4    0    0  0.31315644710E+03  0.44173073751E+03 -0.28126619106E+03  0.61559705430E+03  0.81584668927E+02 0.  0.
         24    2    4    4    0    0  0.43229955922E+03 -0.26042661280E+03  0.21405166756E+03  0.55411660243E+03  0.80759910480E+02 0.  0.
         13    1    3    3    0    0 -0.73641896357E+03 -0.17184617665E+03 -0.85076368910E+02  0.76097436677E+03  0.00000000000E+00 0. -1.
        -13    1    3    3    0    0 -0.90370427497E+01 -0.94579480582E+01  0.81900416514E+01  0.15433654959E+02  0.00000000000E+00 0.  1.
          4    1    6    6  502    0  0.40430643831E+03 -0.22363323649E+03  0.17665712196E+03  0.49465468688E+03  0.00000000000E+00 0. -1.
          1    1    5    5  503    0  0.22202041717E+03  0.25387440670E+03 -0.15120244939E+03  0.36960446523E+03  0.00000000000E+00 0. -1.
         -2    1    5    5    0  503  0.91136029925E+02  0.18785633082E+03 -0.13006374167E+03  0.24599258907E+03  0.00000000000E+00 0.  1.
         -3    1    6    6    0  502  0.27993120914E+02 -0.36793376318E+02  0.37394545599E+02  0.59461915542E+02  0.00000000000E+00 0.  1.
<mgrwt>
<rscale>  0 0.19407794E+04</rscale>
<asrwt>0</asrwt>
<pdfrwt beam="1">  1        2 0.13861699E+00 0.19407794E+04</pdfrwt>
<pdfrwt beam="2">  1       -2 0.16078635E+00 0.19407794E+04</pdfrwt>
<totfact> 0.67904425E+00</totfact>
</mgrwt>
</event>
<event>
12    1  0.1549527E-007  0.1587497E+04  0.7818608E-02  0.8828266E-01
         -1   -1    0    0    0  501 -0.00000000000E+00  0.00000000000E+00  0.52161253140E+03  0.52161253140E+03  0.00000000000E+00 0.  1.
          1   -1    0    0  501    0  0.00000000000E+00 -0.00000000000E+00 -0.12078631276E+04  0.12078631276E+04  0.00000000000E+00 0. -1.
         23    2    1    2    0    0  0.48531794696E+02 -0.45266108898E+03 -0.53640456142E+03  0.70972880312E+03  0.93422287946E+02 0.  0.
        254    2    1    2    0    0 -0.48531794696E+02  0.45266108898E+03 -0.14984603474E+03  0.10197468559E+04  0.90009578342E+03 0.  0.
        -24    2    4    4    0    0  0.35992705603E+03  0.41214730033E+03 -0.22203609107E+03  0.59527208755E+03  0.75072962190E+02 0.  0.
         24    2    4    4    0    0 -0.40845885072E+03  0.40513788653E+02  0.72190056327E+02  0.42447476831E+03  0.80544552216E+02 0.  0.
         13    1    3    3    0    0  0.94267359366E+01 -0.27168371448E+03 -0.25403352804E+03  0.37206711415E+03  0.00000000000E+00 0.  1.
        -13    1    3    3    0    0  0.39105058760E+02 -0.18097737450E+03 -0.28237103338E+03  0.33766168897E+03  0.00000000000E+00 0. -1.
          2    1    6    6  502    0 -0.11903169957E+03  0.38959494635E+02 -0.35566496201E+01  0.12529579993E+03  0.00000000000E+00 0. -1.
          3    1    5    5  503    0  0.25275862602E+03  0.28382867103E+03 -0.11629673122E+03  0.39745511347E+03  0.00000000000E+00 0. -1.
         -4    1    5    5    0  503  0.10716843000E+03  0.12831862929E+03 -0.10573935985E+03  0.19781697408E+03  0.00000000000E+00 0.  1.
         -1    1    6    6    0  502 -0.28942715115E+03  0.15542940181E+01  0.75746705948E+02  0.29917896837E+03  0.00000000000E+00 0.  1.
<mgrwt>
<rscale>  0 0.15874968E+04</rscale>
<asrwt>0</asrwt>
<pdfrwt beam="1">  1        1 0.18582509E+00 0.15874968E+04</pdfrwt>
<pdfrwt beam="2">  1       -1 0.80248083E-01 0.15874968E+04</pdfrwt>
<totfact> 0.15697023E+01</totfact>
</mgrwt>
</event>
<event>
12    1  0.1549527E-007  0.2026888E+04  0.7818608E-02  0.8594152E-01
          2   -1    0    0  501    0  0.00000000000E+00  0.00000000000E+00  0.26877968713E+04  0.26877968713E+04  0.00000000000E+00 0. -1.
         -2   -1    0    0    0  501 -0.00000000000E+00 -0.00000000000E+00 -0.38212306266E+03  0.38212306266E+03  0.00000000000E+00 0.  1.
         23    2    1    2    0    0  0.80055877150E+03  0.29663982784E+02  0.73148912087E+03  0.10882566283E+04  0.86324136977E+02 0.  0.
        254    2    1    2    0    0 -0.80055877150E+03 -0.29663982784E+02  0.15741846878E+04  0.19816633056E+04  0.89841957194E+03 0.  0.
        -24    2    4    4    0    0 -0.45769564410E+03 -0.39834390363E+03  0.12056159902E+04  0.13521517533E+04  0.81494047983E+02 0.  0.
         24    2    4    4    0    0 -0.34286312740E+03  0.36867992085E+03  0.36856869754E+03  0.62951155235E+03  0.83438010353E+02 0.  0.
         13    1    3    3    0    0  0.57698616297E+02  0.21038565271E+02  0.39712684826E+02  0.73135824924E+02  0.00000000000E+00 0. -1.
        -13    1    3    3    0    0  0.74286015520E+03  0.86254175136E+01  0.69177643605E+03  0.10151208034E+04  0.00000000000E+00 0.  1.
          2    1    6    6  502    0  0.48924565336E+01  0.70760538852E+01  0.73088032142E+01  0.11288280380E+02  0.00000000000E+00 0. -1.
          3    1    5    5  503    0 -0.14990113682E+03 -0.10930313104E+03  0.44653757623E+03  0.48354248238E+03  0.00000000000E+00 0. -1.
         -4    1    5    5    0  503 -0.30779450728E+03 -0.28904077259E+03  0.75907841399E+03  0.86860927091E+03  0.00000000000E+00 0.  1.
         -3    1    6    6    0  502 -0.34775558393E+03  0.36160386696E+03  0.36125989433E+03  0.61822327197E+03  0.00000000000E+00 0.  1.
<mgrwt>
<rscale>  0 0.20268884E+04</rscale>
<asrwt>0</asrwt>
<pdfrwt beam="1">  1        2 0.41350720E+00 0.20268884E+04</pdfrwt>
<pdfrwt beam="2">  1       -2 0.58788165E-01 0.20268884E+04</pdfrwt>
<totfact> 0.67757818E+00</totfact>
</mgrwt>
</event>
<event>
12    1  0.1549527E-007  0.6202778E+04  0.7818608E-02  0.7665756E-01
          2   -1    0    0  501    0  0.00000000000E+00  0.00000000000E+00  0.39229243322E+04  0.39229243322E+04  0.00000000000E+00 0. -1.
         -2   -1    0    0    0  501 -0.00000000000E+00 -0.00000000000E+00 -0.24518992212E+04  0.24518992212E+04  0.00000000000E+00 0.  1.
         23    2    1    2    0    0 -0.28372883581E+04  0.47360261082E+03  0.17185194120E+04  0.33520230062E+04  0.90799802377E+02 0.  0.
        254    2    1    2    0    0  0.28372883581E+04 -0.47360261082E+03 -0.24749430102E+03  0.30228005471E+04  0.89530165784E+03 0.  0.
        -24    2    4    4    0    0  0.17069993089E+04  0.13546647248E+03 -0.74686463335E+01  0.17141962859E+04  0.78837302279E+02 0.  0.
         24    2    4    4    0    0  0.11302890493E+04 -0.60906908330E+03 -0.24002565469E+03  0.13086042613E+04  0.79462661206E+02 0.  0.
         13    1    3    3    0    0 -0.24685397492E+04  0.39568367312E+03  0.14625928923E+04  0.28964516276E+04  0.00000000000E+00 0.  1.
        -13    1    3    3    0    0 -0.36874860899E+03  0.77918937706E+02  0.25592651969E+03  0.45557137857E+03  0.00000000000E+00 0. -1.
          2    1    6    6  502    0  0.26250842098E+03 -0.10433237530E+03 -0.56268757301E+02  0.28803140223E+03  0.00000000000E+00 0. -1.
          3    1    5    5  503    0  0.22930556901E+03  0.38591976595E+02  0.16745274754E+02  0.23313255642E+03  0.00000000000E+00 0. -1.
         -4    1    5    5    0  503  0.14776937399E+04  0.96874495882E+02 -0.24213921088E+02  0.14810637295E+04  0.00000000000E+00 0.  1.
         -1    1    6    6    0  502  0.86778062829E+03 -0.50473670800E+03 -0.18375689739E+03  0.10205728590E+04  0.00000000000E+00 0.  1.
<mgrwt>
<rscale>  0 0.62027784E+04</rscale>
<asrwt>0</asrwt>
<pdfrwt beam="1">  1        2 0.60352682E+00 0.62027784E+04</pdfrwt>
<pdfrwt beam="2">  1       -2 0.37721527E+00 0.62027784E+04</pdfrwt>
<totfact> 0.27152001E-03</totfact>
</mgrwt>
</event>
<event>
12    1  0.1549527E-007  0.1819014E+04  0.7818608E-02  0.8696253E-01
          1   -1    0    0  501    0  0.00000000000E+00  0.00000000000E+00  0.23385143079E+04  0.23385143079E+04  0.00000000000E+00 0. -1.
         -1   -1    0    0    0  501 -0.00000000000E+00 -0.00000000000E+00 -0.35373010808E+03  0.35373010808E+03  0.00000000000E+00 0.  1.
         23    2    1    2    0    0 -0.42750325795E+03 -0.69055171823E+02  0.15259945009E+04  0.15889806468E+04  0.93126938601E+02 0.  0.
        254    2    1    2    0    0  0.42750325795E+03  0.69055171823E+02  0.45878969893E+03  0.11032637692E+04  0.90508303725E+03 0.  0.
        -24    2    4    4    0    0 -0.12994186101E+03 -0.24937579608E+03 -0.28073133301E+02  0.29356694277E+03  0.79500151956E+02 0.  0.
         24    2    4    4    0    0  0.55744511896E+03  0.31843096790E+03  0.48686283223E+03  0.80969682645E+03  0.80188474171E+02 0.  0.
         11    1    3    3    0    0 -0.15692008365E+03 -0.55523128413E+02  0.46324938715E+03  0.49224661008E+03  0.00000000000E+00 0.  1.
        -11    1    3    3    0    0 -0.27058317429E+03 -0.13532043410E+02  0.10627451138E+04  0.10967340367E+04  0.00000000000E+00 0. -1.
          4    1    6    6  502    0  0.66042658727E+02  0.11147763342E+02  0.59667733465E+02  0.89700299977E+02  0.00000000000E+00 0. -1.
          1    1    5    5  503    0 -0.33269107828E+02 -0.21963695244E+02 -0.23787265488E+02  0.46422747052E+02  0.00000000000E+00 0. -1.
         -2    1    5    5    0  503 -0.96672753185E+02 -0.22741210083E+03 -0.42858678130E+01  0.24714419572E+03  0.00000000000E+00 0.  1.
         -3    1    6    6    0  502  0.49140246023E+03  0.30728320456E+03  0.42719509877E+03  0.71999652648E+03  0.00000000000E+00 0.  1.
<mgrwt>
<rscale>  0 0.18190139E+04</rscale>
<asrwt>0</asrwt>
<pdfrwt beam="1">  1        1 0.35977142E+00 0.18190139E+04</pdfrwt>
<pdfrwt beam="2">  1       -1 0.54420018E-01 0.18190139E+04</pdfrwt>
<totfact> 0.56303584E+00</totfact>
</mgrwt>
</event>
<event>
12    1  0.1582986E-007  0.1812695E+04  0.7818608E-02  0.8699578E-01
         -2   -1    0    0    0  501 -0.00000000000E+00  0.00000000000E+00  0.75818974826E+03  0.75818974826E+03  0.00000000000E+00 0. -1.
          2   -1    0    0  501    0  0.00000000000E+00 -0.00000000000E+00 -0.10834564293E+04  0.10834564293E+04  0.00000000000E+00 0.  1.
         23    2    1    2    0    0  0.49109455751E+03 -0.14604385156E+03 -0.45061395732E+03  0.68832433632E+03  0.90745702083E+02 0.  0.
        254    2    1    2    0    0 -0.49109455751E+03  0.14604385156E+03  0.12534727623E+03  0.11533218413E+04  0.10256396340E+04 0.  0.
        -24    2    4    4    0    0 -0.56159521199E+02  0.36896489842E+02 -0.42564380677E+03  0.43847342281E+03  0.81062010107E+02 0.  0.
         24    2    4    4    0    0 -0.43493503631E+03  0.10914736171E+03  0.55099108300E+03  0.71484841847E+03  0.79595574342E+02 0.  0.
         13    1    3    3    0    0  0.94789197853E+01 -0.14993807045E+02 -0.32090136290E+01  0.18026700709E+02  0.00000000000E+00 0. -1.
        -13    1    3    3    0    0  0.48161563773E+03 -0.13105004451E+03 -0.44740494369E+03  0.67029763561E+03  0.00000000000E+00 0.  1.
          2    1    6    6  502    0 -0.38033453936E+03  0.66757954233E+02  0.46044014205E+03  0.60092937247E+03  0.00000000000E+00 0. -1.
          1    1    5    5  503    0 -0.40586989974E+02  0.53856037485E+02 -0.39166602891E+03  0.39742930784E+03  0.00000000000E+00 0. -1.
         -2    1    5    5    0  503 -0.15572531225E+02 -0.16959547644E+02 -0.33977777859E+02  0.41044114965E+02  0.00000000000E+00 0.  1.
         -1    1    6    6    0  502 -0.54600496956E+02  0.42389407481E+02  0.90550940952E+02  0.11391904600E+03  0.00000000000E+00 0.  1.
<mgrwt>
<rscale>  0 0.18126947E+04</rscale>
<asrwt>0</asrwt>
<pdfrwt beam="1">  1        2 0.16668560E+00 0.18126947E+04</pdfrwt>
<pdfrwt beam="2">  1       -2 0.11664458E+00 0.18126947E+04</pdfrwt>
<totfact> 0.11982747E+01</totfact>
</mgrwt>
</event>
<event>
12    1  0.1549527E-007  0.1929640E+04  0.7818608E-02  0.8640241E-01
         -2   -1    0    0    0  501 -0.00000000000E+00  0.00000000000E+00  0.61185294500E+03  0.61185294500E+03  0.00000000000E+00 0.  1.
          2   -1    0    0  501    0  0.00000000000E+00 -0.00000000000E+00 -0.15214082006E+04  0.15214082006E+04  0.00000000000E+00 0. -1.
         23    2    1    2    0    0 -0.79487963121E+02 -0.67079336423E+03 -0.67545283547E+03  0.95970678934E+03  0.92295800410E+02 0.  0.
        254    2    1    2    0    0  0.79487963121E+02  0.67079336423E+03 -0.23410242009E+03  0.11735543562E+04  0.93066847489E+03 0.  0.
        -24    2    4    4    0    0  0.38704189973E+03  0.55156639542E+02  0.91762508697E+02  0.40799066706E+03  0.72057889067E+02 0.  0.
         24    2    4    4    0    0 -0.30755393661E+03  0.61563672469E+03 -0.32586492879E+03  0.76556368917E+03  0.79383938258E+02 0.  0.
         13    1    3    3    0    0  0.16064698668E+02 -0.74553661519E+02 -0.98143014910E+02  0.12429148951E+03  0.00000000000E+00 0. -1.
        -13    1    3    3    0    0 -0.95552661789E+02 -0.59623970271E+03 -0.57730982056E+03  0.83541529983E+03  0.00000000000E+00 0.  1.
          2    1    6    6  502    0 -0.22746018468E+03  0.52043854003E+03 -0.27674142724E+03  0.63180711227E+03  0.00000000000E+00 0. -1.
          1    1    5    5  503    0  0.36524392746E+03  0.47752406809E+02  0.10284583748E+03  0.38244043352E+03  0.00000000000E+00 0. -1.
         -2    1    5    5    0  503  0.21797972267E+02  0.74042327336E+01 -0.11083328780E+02  0.25550233544E+02  0.00000000000E+00 0.  1.
         -1    1    6    6    0  502 -0.80093751923E+02  0.95198184658E+02 -0.49123501549E+02  0.13375657690E+03  0.00000000000E+00 0.  1.
<mgrwt>
<rscale>  0 0.19296405E+04</rscale>
<asrwt>0</asrwt>
<pdfrwt beam="1">  1        2 0.23406280E+00 0.19296405E+04</pdfrwt>
<pdfrwt beam="2">  1       -2 0.94131223E-01 0.19296405E+04</pdfrwt>
<totfact> 0.10984599E+01</totfact>
</mgrwt>
</event>
<event>
12    1  0.1549527E-007  0.2214005E+04  0.7818608E-02  0.8512622E-01
         -2   -1    0    0    0  501 -0.00000000000E+00  0.00000000000E+00  0.67585734535E+03  0.67585734535E+03  0.00000000000E+00 0.  1.
          2   -1    0    0  501    0  0.00000000000E+00 -0.00000000000E+00 -0.18131847247E+04  0.18131847247E+04  0.00000000000E+00 0. -1.
         23    2    1    2    0    0 -0.13653853320E+03 -0.17090692544E+03  0.52916969652E+03  0.57933041196E+03  0.88040958024E+02 0.  0.
        254    2    1    2    0    0  0.13653853320E+03  0.17090692544E+03 -0.16664970758E+04  0.19097116580E+04  0.90660584869E+03 0.  0.
        -24    2    4    4    0    0 -0.20599112345E+03  0.49246932099E+02 -0.26130551516E+02  0.22765535589E+03  0.79287780133E+02 0.  0.
         24    2    4    4    0    0  0.34252965666E+03  0.12165999334E+03 -0.16403665243E+04  0.16820563022E+04  0.79895868721E+02 0.  0.
         11    1    3    3    0    0 -0.13533135969E+03 -0.16222156803E+03  0.52997025461E+03  0.57052509570E+03  0.00000000000E+00 0.  1.
        -11    1    3    3    0    0 -0.12071735149E+01 -0.86853574107E+01 -0.80055808552E+00  0.88053162632E+01  0.00000000000E+00 0. -1.
          4    1    6    6  502    0  0.13255984879E+03  0.10148329793E+02 -0.51827747872E+03  0.53505761097E+03  0.00000000000E+00 0. -1.
          1    1    5    5  503    0 -0.11010239452E+03  0.65182821198E+02 -0.25407470715E+02  0.13044875249E+03  0.00000000000E+00 0. -1.
         -2    1    5    5    0  503 -0.95888728933E+02 -0.15935889099E+02 -0.72308080068E+00  0.97206603395E+02  0.00000000000E+00 0.  1.
         -3    1    6    6    0  502  0.20996980787E+03  0.11151166355E+03 -0.11220890456E+04  0.11469986912E+04  0.00000000000E+00 0.  1.
<mgrwt>
<rscale>  0 0.22140047E+04</rscale>
<asrwt>0</asrwt>
<pdfrwt beam="1">  1        2 0.27895149E+00 0.22140047E+04</pdfrwt>
<pdfrwt beam="2">  1       -2 0.10397805E+00 0.22140047E+04</pdfrwt>
<totfact> 0.58295476E+00</totfact>
</mgrwt>
</event>
<event>
12    1  0.1549527E-007  0.2255138E+04  0.7818608E-02  0.8495823E-01
          1   -1    0    0  501    0  0.00000000000E+00  0.00000000000E+00  0.63156922891E+03  0.63156922891E+03  0.00000000000E+00 0. -1.
         -1   -1    0    0    0  501 -0.00000000000E+00 -0.00000000000E+00 -0.20130997617E+04  0.20130997617E+04  0.00000000000E+00 0.  1.
         23    2    1    2    0    0 -0.49650557039E+03  0.27904166334E+03 -0.14643804357E+04  0.15741021894E+04  0.94897896652E+02 0.  0.
        254    2    1    2    0    0  0.49650557039E+03 -0.27904166334E+03  0.82849902946E+02  0.10705668012E+04  0.90269991588E+03 0.  0.
        -24    2    4    4    0    0  0.66563237781E+03  0.44300513831E+02 -0.51073299408E+02  0.67360058012E+03  0.78104172119E+02 0.  0.
         24    2    4    4    0    0 -0.16912680742E+03 -0.32334217717E+03  0.13392320235E+03  0.39696622109E+03  0.80577391567E+02 0.  0.
         11    1    3    3    0    0 -0.46442874925E+03  0.23930104832E+03 -0.12733919285E+04  0.13764033051E+04  0.00000000000E+00 0.  1.
        -11    1    3    3    0    0 -0.32076821142E+02  0.39740615022E+02 -0.19098850723E+03  0.19769888424E+03  0.00000000000E+00 0. -1.
          4    1    6    6  502    0 -0.11930262452E+03 -0.28735832187E+03  0.12286252146E+03  0.33451923793E+03  0.00000000000E+00 0. -1.
          3    1    5    5  503    0  0.37105738084E+03  0.52456100381E+02 -0.13630244299E+01  0.37474935648E+03  0.00000000000E+00 0. -1.
         -4    1    5    5    0  503  0.29457499697E+03 -0.81555865498E+01 -0.49710274978E+02  0.29885122364E+03  0.00000000000E+00 0.  1.
         -3    1    6    6    0  502 -0.49824182900E+02 -0.35983855298E+02  0.11060680894E+02  0.62446983158E+02  0.00000000000E+00 0.  1.
<mgrwt>
<rscale>  0 0.22551380E+04</rscale>
<asrwt>0</asrwt>
<pdfrwt beam="1">  1        1 0.97164497E-01 0.22551380E+04</pdfrwt>
<pdfrwt beam="2">  1       -1 0.30970765E+00 0.22551380E+04</pdfrwt>
<totfact> 0.82391890E-01</totfact>
</mgrwt>
</event>
<event>
12    1  0.1549527E-007  0.1490642E+04  0.7818608E-02  0.8890700E-01
          1   -1    0    0  501    0  0.00000000000E+00  0.00000000000E+00  0.13403880113E+04  0.13403880113E+04  0.00000000000E+00 0. -1.
         -1   -1    0    0    0  501 -0.00000000000E+00 -0.00000000000E+00 -0.41443470646E+03  0.41443470646E+03  0.00000000000E+00 0.  1.
         23    2    1    2    0    0  0.37687505093E+03  0.26918371381E+03  0.37154023386E+03  0.60171615925E+03  0.97598745555E+02 0.  0.
        254    2    1    2    0    0 -0.37687505093E+03 -0.26918371381E+03  0.55441307101E+03  0.11531065585E+04  0.89876927309E+03 0.  0.
        -24    2    4    4    0    0 -0.65394921502E+03 -0.23150716241E+03  0.49888539772E+03  0.85813184095E+03  0.79110519697E+02 0.  0.
         24    2    4    4    0    0  0.27707416409E+03 -0.37676551400E+02  0.55527673289E+02  0.29497471759E+03  0.75743954098E+02 0.  0.
         11    1    3    3    0    0  0.91838544398E+02  0.76674616084E+02  0.15293078418E+03  0.19416781334E+03  0.00000000000E+00 0. -1.
        -11    1    3    3    0    0  0.28503650653E+03  0.19250909773E+03  0.21860944968E+03  0.40754834591E+03  0.00000000000E+00 0.  1.
          2    1    6    6  502    0  0.23836443756E+03 -0.41079692191E+01  0.48057742815E+02  0.24319545051E+03  0.00000000000E+00 0. -1.
          3    1    5    5  503    0 -0.37644564559E+03 -0.16514064392E+03  0.26387777347E+03  0.48848156126E+03  0.00000000000E+00 0. -1.
         -4    1    5    5    0  503 -0.27750356942E+03 -0.66366518494E+02  0.23500762425E+03  0.36965027969E+03  0.00000000000E+00 0.  1.
         -1    1    6    6    0  502  0.38709726532E+02 -0.33568582180E+02  0.74699304734E+01  0.51779267077E+02  0.00000000000E+00 0.  1.
<mgrwt>
<rscale>  0 0.14906419E+04</rscale>
<asrwt>0</asrwt>
<pdfrwt beam="1">  1        1 0.20621354E+00 0.14906419E+04</pdfrwt>
<pdfrwt beam="2">  1       -1 0.63759186E-01 0.14906419E+04</pdfrwt>
<totfact> 0.20443952E+01</totfact>
</mgrwt>
</event>
<event>
12    1  0.1549527E-007  0.3348305E+04  0.7818608E-02  0.8150712E-01
         -2   -1    0    0    0  501 -0.00000000000E+00  0.00000000000E+00  0.10010001604E+04  0.10010001604E+04  0.00000000000E+00 0. -1.
          2   -1    0    0  501    0  0.00000000000E+00 -0.00000000000E+00 -0.27999869583E+04  0.27999869583E+04  0.00000000000E+00 0.  1.
         23    2    1    2    0    0 -0.10545257192E+04 -0.10981198008E+04 -0.11433181146E+04  0.19061397430E+04  0.91108832866E+02 0.  0.
        254    2    1    2    0    0  0.10545257192E+04  0.10981198008E+04 -0.65566868327E+03  0.18948473757E+04  0.91796163632E+03 0.  0.
        -24    2    4    4    0    0  0.29539750352E+03  0.78737290103E+03 -0.65821487459E+03  0.10708519991E+04  0.79129087688E+02 0.  0.
         24    2    4    4    0    0  0.75912821569E+03  0.31074689973E+03  0.25461913226E+01  0.82399537660E+03  0.78247134307E+02 0.  0.
         11    1    3    3    0    0 -0.68800790811E+03 -0.70376005496E+03 -0.68514172443E+03  0.11991881750E+04  0.00000000000E+00 0. -1.
        -11    1    3    3    0    0 -0.36651781110E+03 -0.39435974580E+03 -0.45817639021E+03  0.70695156801E+03  0.00000000000E+00 0.  1.
          2    1    6    6  502    0  0.39358884675E+02  0.28306158572E+02 -0.14511196951E+02  0.50605683998E+02  0.00000000000E+00 0. -1.
          3    1    5    5  503    0  0.16572932641E+03  0.36053570094E+03 -0.34457318612E+03  0.52553104749E+03  0.00000000000E+00 0. -1.
         -4    1    5    5    0  503  0.12966817711E+03  0.42683720009E+03 -0.31364168847E+03  0.54532095162E+03  0.00000000000E+00 0.  1.
         -1    1    6    6    0  502  0.71976933101E+03  0.28244074116E+03  0.17057388273E+02  0.77338969261E+03  0.00000000000E+00 0.  1.
<mgrwt>
<rscale>  0 0.33483055E+04</rscale>
<asrwt>0</asrwt>
<pdfrwt beam="1">  1        2 0.43076722E+00 0.33483055E+04</pdfrwt>
<pdfrwt beam="2">  1       -2 0.15400003E+00 0.33483055E+04</pdfrwt>
<totfact> 0.53711878E-01</totfact>
</mgrwt>
</event>
<event>
12    1  0.1549527E-007  0.1903214E+04  0.7818608E-02  0.8653258E-01
         -3   -1    0    0    0  501 -0.00000000000E+00  0.00000000000E+00  0.52289450550E+03  0.52289450550E+03  0.00000000000E+00 0.  1.
          3   -1    0    0  501    0  0.00000000000E+00 -0.00000000000E+00 -0.17318133369E+04  0.17318133369E+04  0.00000000000E+00 0. -1.
         23    2    1    2    0    0 -0.30897215803E+03  0.33081393794E+03 -0.11557467865E+04  0.12444921204E+04  0.90046361672E+02 0.  0.
        254    2    1    2    0    0  0.30897215803E+03 -0.33081393794E+03 -0.53172044827E+02  0.10102157219E+04  0.90155803059E+03 0.  0.
        -24    2    4    4    0    0  0.77350491276E+02  0.30379728449E+03 -0.63971562903E+02  0.32986173335E+03  0.80252811159E+02 0.  0.
         24    2    4    4    0    0  0.23162166675E+03 -0.63461122243E+03  0.10799518075E+02  0.68035398859E+03  0.79905694765E+02 0.  0.
         11    1    3    3    0    0 -0.31172996804E+03  0.33214264682E+03 -0.11546272629E+04  0.12412326241E+04  0.00000000000E+00 0. -1.
        -11    1    3    3    0    0  0.27578100117E+01 -0.13287088879E+01 -0.11195236371E+01  0.32594963635E+01  0.00000000000E+00 0.  1.
          2    1    6    6  502    0  0.16196563920E+03 -0.36311397914E+03  0.34328250086E+02  0.39907776045E+03  0.00000000000E+00 0. -1.
          3    1    5    5  503    0  0.83664603765E+02  0.30573114230E+03 -0.62099746191E+02  0.32299795011E+03  0.00000000000E+00 0. -1.
         -4    1    5    5    0  503 -0.63141124897E+01 -0.19338578070E+01 -0.18718167115E+01  0.68637832390E+01  0.00000000000E+00 0.  1.
         -1    1    6    6    0  502  0.69656027548E+02 -0.27149724329E+03 -0.23528732011E+02  0.28127622814E+03  0.00000000000E+00 0.  1.
<mgrwt>
<rscale>  0 0.19032138E+04</rscale>
<asrwt>0</asrwt>
<pdfrwt beam="1">  1        3 0.26643283E+00 0.19032138E+04</pdfrwt>
<pdfrwt beam="2">  1       -3 0.80445307E-01 0.19032138E+04</pdfrwt>
<totfact> 0.20953458E-01</totfact>
</mgrwt>
</event>
<event>
12    1  0.1549527E-007  0.1758314E+04  0.7818608E-02  0.8728787E-01
          1   -1    0    0  501    0  0.00000000000E+00  0.00000000000E+00  0.11277677383E+04  0.11277677383E+04  0.00000000000E+00 0. -1.
         -1   -1    0    0    0  501 -0.00000000000E+00 -0.00000000000E+00 -0.68535141616E+03  0.68535141616E+03  0.00000000000E+00 0.  1.
         23    2    1    2    0    0  0.17534946391E+03  0.33040969310E+02  0.81060580615E+03  0.83468734377E+03  0.88215921110E+02 0.  0.
        254    2    1    2    0    0 -0.17534946391E+03 -0.33040969310E+02 -0.36818948404E+03  0.97843181065E+03  0.88877790914E+03 0.  0.
        -24    2    4    4    0    0  0.86909357992E+02  0.37754202318E+03 -0.25718494104E+03  0.47202635774E+03  0.81077572295E+02 0.  0.
         24    2    4    4    0    0 -0.26225882190E+03 -0.41058299249E+03 -0.11100454301E+03  0.50640545291E+03  0.82258074286E+02 0.  0.
         13    1    3    3    0    0  0.11996525296E+03  0.13370685716E+02  0.34751790811E+03  0.36788467433E+03  0.00000000000E+00 0.  1.
        -13    1    3    3    0    0  0.55384210956E+02  0.19670283594E+02  0.46308789804E+03  0.46680266943E+03  0.00000000000E+00 0. -1.
          2    1    6    6  502    0 -0.23125908881E+03 -0.38136622316E+03 -0.12204008345E+03  0.46240106433E+03  0.00000000000E+00 0. -1.
          1    1    5    5  503    0  0.87631483297E+02  0.27002354728E+03 -0.15383428687E+03  0.32288849588E+03  0.00000000000E+00 0. -1.
         -2    1    5    5    0  503 -0.72212530531E+00  0.10751847590E+03 -0.10335065416E+03  0.14913786186E+03  0.00000000000E+00 0.  1.
         -1    1    6    6    0  502 -0.30999733093E+02 -0.29216769325E+02  0.11035540441E+02  0.44004388581E+02  0.00000000000E+00 0.  1.
<mgrwt>
<rscale>  0 0.17583142E+04</rscale>
<asrwt>0</asrwt>
<pdfrwt beam="1">  1        1 0.17350273E+00 0.17583142E+04</pdfrwt>
<pdfrwt beam="2">  1       -1 0.10543868E+00 0.17583142E+04</pdfrwt>
<totfact> 0.96495704E+00</totfact>
</mgrwt>
</event>
<event>
12    1  0.1549527E-007  0.1347151E+04  0.7818608E-02  0.8992988E-01
         -2   -1    0    0    0  501 -0.00000000000E+00  0.00000000000E+00  0.25824234614E+03  0.25824234614E+03  0.00000000000E+00 0. -1.
          2   -1    0    0  501    0  0.00000000000E+00 -0.00000000000E+00 -0.17568916129E+04  0.17568916129E+04  0.00000000000E+00 0.  1.
         23    2    1    2    0    0  0.14893232148E+02 -0.25858948761E+03 -0.80891087625E+03  0.85419385169E+03  0.90664210660E+02 0.  0.
        254    2    1    2    0    0 -0.14893232148E+02  0.25858948761E+03 -0.68973839051E+03  0.11609401073E+04  0.89719148125E+03 0.  0.
        -24    2    4    4    0    0 -0.13326765035E+03  0.17464293868E+03 -0.87892457616E+03  0.90941114580E+03  0.79118890682E+02 0.  0.
         24    2    4    4    0    0  0.11837441820E+03  0.83946548928E+02  0.18918618565E+03  0.25152896154E+03  0.80099186592E+02 0.  0.
         11    1    3    3    0    0  0.30387666175E+02 -0.17159476692E+03 -0.40795242906E+03  0.44361397483E+03  0.00000000000E+00 0. -1.
        -11    1    3    3    0    0 -0.15494434028E+02 -0.86994720690E+02 -0.40095844718E+03  0.41057987686E+03  0.00000000000E+00 0.  1.
          4    1    6    6  502    0  0.46187332265E+02  0.46939238345E+02  0.14477251769E+03  0.15904604250E+03  0.00000000000E+00 0. -1.
          1    1    5    5  503    0 -0.40053326371E+02  0.17127023767E+02 -0.96706610475E+02  0.10606494428E+03  0.00000000000E+00 0. -1.
         -2    1    5    5    0  503 -0.93214323976E+02  0.15751591491E+03 -0.78221796568E+03  0.80334620151E+03  0.00000000000E+00 0.  1.
         -3    1    6    6    0  502  0.72187085934E+02  0.37007310583E+02  0.44413667964E+02  0.92482919040E+02  0.00000000000E+00 0.  1.
<mgrwt>
<rscale>  0 0.13471508E+04</rscale>
<asrwt>0</asrwt>
<pdfrwt beam="1">  1        2 0.27029102E+00 0.13471508E+04</pdfrwt>
<pdfrwt beam="2">  1       -2 0.39729592E-01 0.13471508E+04</pdfrwt>
<totfact> 0.53386659E+01</totfact>
</mgrwt>
</event>
<event>
12    1  0.1549527E-007  0.2349762E+04  0.7818608E-02  0.8458555E-01
         -1   -1    0    0    0  501 -0.00000000000E+00  0.00000000000E+00  0.16922683209E+04  0.16922683209E+04  0.00000000000E+00 0.  1.
          1   -1    0    0  501    0  0.00000000000E+00 -0.00000000000E+00 -0.81567740061E+03  0.81567740061E+03  0.00000000000E+00 0. -1.
         23    2    1    2    0    0  0.84678638392E+03  0.49363090208E+03  0.22319172342E+03  0.10092297621E+04  0.89507094234E+02 0.  0.
        254    2    1    2    0    0 -0.84678638392E+03 -0.49363090208E+03  0.65339919682E+03  0.14987159593E+04  0.92655294982E+03 0.  0.
        -24    2    4    4    0    0 -0.45718198063E+03 -0.74306825773E+03  0.47036338014E+03  0.99438291116E+03  0.79936634843E+02 0.  0.
         24    2    4    4    0    0 -0.38960440329E+03  0.24943735565E+03  0.18303581668E+03  0.50433304815E+03  0.82699019393E+02 0.  0.
         11    1    3    3    0    0  0.21242057732E+03  0.12675249435E+03  0.16945716748E+02  0.24794324715E+03  0.00000000000E+00 0. -1.
        -11    1    3    3    0    0  0.63436580660E+03  0.36687840773E+03  0.20624600667E+03  0.76128651499E+03  0.00000000000E+00 0.  1.
          4    1    6    6  502    0 -0.92093602703E+02  0.91405976377E+02  0.24632520136E+02  0.13207212130E+03  0.00000000000E+00 0. -1.
          3    1    5    5  503    0 -0.15753530211E+03 -0.23009269142E+03  0.19027533998E+03  0.33758661564E+03  0.00000000000E+00 0. -1.
         -4    1    5    5    0  503 -0.29964667852E+03 -0.51297556630E+03  0.28008804016E+03  0.65679629552E+03  0.00000000000E+00 0.  1.
         -3    1    6    6    0  502 -0.29751080059E+03  0.15803137927E+03  0.15840329655E+03  0.37226092685E+03  0.00000000000E+00 0.  1.
<mgrwt>
<rscale>  0 0.23497617E+04</rscale>
<asrwt>0</asrwt>
<pdfrwt beam="1">  1        1 0.12548883E+00 0.23497617E+04</pdfrwt>
<pdfrwt beam="2">  1       -1 0.26034897E+00 0.23497617E+04</pdfrwt>
<totfact> 0.11510527E+00</totfact>
</mgrwt>
</event>
<event>
12    1  0.1549527E-007  0.2469474E+04  0.7818608E-02  0.8413942E-01
          1   -1    0    0  501    0  0.00000000000E+00  0.00000000000E+00  0.22354740231E+04  0.22354740231E+04  0.00000000000E+00 0. -1.
         -1   -1    0    0    0  501 -0.00000000000E+00 -0.00000000000E+00 -0.68199215385E+03  0.68199215385E+03  0.00000000000E+00 0.  1.
         23    2    1    2    0    0  0.77003816261E+03 -0.70579425219E+03  0.89429766180E+03  0.13780500287E+04  0.90273336810E+02 0.  0.
        254    2    1    2    0    0 -0.77003816261E+03  0.70579425219E+03  0.65918420745E+03  0.15394161483E+04  0.91878939911E+03 0.  0.
        -24    2    4    4    0    0 -0.31105651700E+03  0.54517474130E+03 -0.94133164872E+02  0.63920582921E+03  0.75837880048E+02 0.  0.
         24    2    4    4    0    0 -0.45898164560E+03  0.16061951089E+03  0.75331737232E+03  0.90021031906E+03  0.80179653456E+02 0.  0.
         11    1    3    3    0    0  0.72891787123E+03 -0.68154566840E+03  0.83000872255E+03  0.12979754391E+04  0.00000000000E+00 0. -1.
        -11    1    3    3    0    0  0.41120291381E+02 -0.24248583786E+02  0.64288939248E+02  0.80074589531E+02  0.00000000000E+00 0.  1.
          4    1    6    6  502    0 -0.22940930672E+03  0.37916923414E+02  0.35860010506E+03  0.42738783142E+03  0.00000000000E+00 0. -1.
          1    1    5    5  503    0 -0.18271087666E+03  0.31072257127E+03 -0.16335963345E+02  0.36083049268E+03  0.00000000000E+00 0. -1.
         -2    1    5    5    0  503 -0.12834564034E+03  0.23445217003E+03 -0.77797201527E+02  0.27837533653E+03  0.00000000000E+00 0.  1.
         -3    1    6    6    0  502 -0.22957233888E+03  0.12270258748E+03  0.39471726726E+03  0.47282248765E+03  0.00000000000E+00 0.  1.
<mgrwt>
<rscale>  0 0.24694742E+04</rscale>
<asrwt>0</asrwt>
<pdfrwt beam="1">  1        1 0.34391908E+00 0.24694742E+04</pdfrwt>
<pdfrwt beam="2">  1       -1 0.10492187E+00 0.24694742E+04</pdfrwt>
<totfact> 0.15647629E+00</totfact>
</mgrwt>
</event>
<event>
12    1  0.1549527E-007  0.3297585E+04  0.7818608E-02  0.8163510E-01
         -2   -1    0    0    0  501 -0.00000000000E+00  0.00000000000E+00  0.10182978589E+04  0.10182978589E+04  0.00000000000E+00 0.  1.
          2   -1    0    0  501    0  0.00000000000E+00 -0.00000000000E+00 -0.26696680695E+04  0.26696680695E+04  0.00000000000E+00 0. -1.
         23    2    1    2    0    0  0.11327116378E+03 -0.72290127174E+03 -0.22740622267E+04  0.23907514364E+04  0.94428883815E+02 0.  0.
        254    2    1    2    0    0 -0.11327116378E+03  0.72290127174E+03  0.62269201610E+03  0.12972144920E+04  0.87155234273E+03 0.  0.
        -24    2    4    4    0    0  0.24824867797E+03  0.31194730995E+03  0.62258032376E+03  0.74419319770E+03  0.85315448034E+02 0.  0.
         24    2    4    4    0    0 -0.36151984176E+03  0.41095396179E+03  0.11169233864E+00  0.55302129430E+03  0.79074552008E+02 0.  0.
         11    1    3    3    0    0 -0.11259516948E+02 -0.43535374555E+02 -0.18875430487E+03  0.19403683456E+03  0.00000000000E+00 0.  1.
        -11    1    3    3    0    0  0.12453068073E+03 -0.67936589718E+03 -0.20853079219E+04  0.21967146018E+04  0.00000000000E+00 0. -1.
          4    1    6    6  502    0 -0.31906966769E+03  0.38781663898E+03 -0.14822570263E+02  0.50242104543E+03  0.00000000000E+00 0. -1.
          3    1    5    5  503    0  0.16082621925E+03  0.20676146727E+03  0.47867223141E+03  0.54565784359E+03  0.00000000000E+00 0. -1.
         -4    1    5    5    0  503  0.87422458725E+02  0.10518584268E+03  0.14390809235E+03  0.19853535412E+03  0.00000000000E+00 0.  1.
         -3    1    6    6    0  502 -0.42450174074E+02  0.23137322815E+02  0.14934262602E+02  0.50600248867E+02  0.00000000000E+00 0.  1.
<mgrwt>
<rscale>  0 0.32975853E+04</rscale>
<asrwt>0</asrwt>
<pdfrwt beam="1">  1        2 0.41071816E+00 0.32975853E+04</pdfrwt>
<pdfrwt beam="2">  1       -2 0.15666121E+00 0.32975853E+04</pdfrwt>
<totfact> 0.61661237E-01</totfact>
</mgrwt>
</event>
<event>
12    1  0.1549527E-007  0.1371907E+04  0.7818608E-02  0.8974409E-01
          1   -1    0    0  501    0  0.00000000000E+00  0.00000000000E+00  0.45786446618E+03  0.45786446618E+03  0.00000000000E+00 0. -1.
         -1   -1    0    0    0  501 -0.00000000000E+00 -0.00000000000E+00 -0.10276666534E+04  0.10276666534E+04  0.00000000000E+00 0.  1.
         23    2    1    2    0    0  0.13777466009E+03  0.50425096755E+02  0.22072522798E+03  0.28007123140E+03  0.90530221735E+02 0.  0.
        254    2    1    2    0    0 -0.13777466009E+03 -0.50425096755E+02 -0.79052741522E+03  0.12054598882E+04  0.89815110115E+03 0.  0.
        -24    2    4    4    0    0 -0.22134254765E+03 -0.41879647947E+03 -0.25176789052E+03  0.54234763844E+03  0.79817764963E+02 0.  0.
         24    2    4    4    0    0  0.83567887565E+02  0.36837138272E+03 -0.53875952470E+03  0.66311224976E+03  0.82310162735E+02 0.  0.
         11    1    3    3    0    0  0.50055646640E+02 -0.22783183014E+02  0.98121438549E+02  0.11248314492E+03  0.00000000000E+00 0.  1.
        -11    1    3    3    0    0  0.87719013447E+02  0.73208279769E+02  0.12260378943E+03  0.16758808648E+03  0.00000000000E+00 0. -1.
          4    1    6    6  502    0  0.41159511628E+02  0.24498137312E+03 -0.28719292235E+03  0.37972325873E+03  0.00000000000E+00 0. -1.
          1    1    5    5  503    0 -0.98438842315E+02 -0.24292461451E+03 -0.17165919343E+03  0.31332004835E+03  0.00000000000E+00 0. -1.
         -2    1    5    5    0  503 -0.12290370534E+03 -0.17587186496E+03 -0.80108697089E+02  0.22902759009E+03  0.00000000000E+00 0.  1.
         -3    1    6    6    0  502  0.42408375936E+02  0.12339000959E+03 -0.25156660235E+03  0.28338899102E+03  0.00000000000E+00 0.  1.
<mgrwt>
<rscale>  0 0.13719068E+04</rscale>
<asrwt>0</asrwt>
<pdfrwt beam="1">  1        1 0.70440687E-01 0.13719068E+04</pdfrwt>
<pdfrwt beam="2">  1       -1 0.15810256E+00 0.13719068E+04</pdfrwt>
<totfact> 0.14764776E+01</totfact>
</mgrwt>
</event>
<event>
12    1  0.1549527E-007  0.1353144E+04  0.7818608E-02  0.8988451E-01
          2   -1    0    0  501    0  0.00000000000E+00  0.00000000000E+00  0.11748896258E+04  0.11748896258E+04  0.00000000000E+00 0. -1.
         -2   -1    0    0    0  501 -0.00000000000E+00 -0.00000000000E+00 -0.38961100223E+03  0.38961100223E+03  0.00000000000E+00 0.  1.
         23    2    1    2    0    0  0.33192220985E+02  0.27089420048E+03  0.50620236877E+03  0.58224442994E+03  0.91007398959E+02 0.  0.
        254    2    1    2    0    0 -0.33192220985E+02 -0.27089420048E+03  0.27907625484E+03  0.98225619813E+03  0.90136468278E+03 0.  0.
        -24    2    4    4    0    0 -0.26138113999E+03  0.34858798443E+02  0.47262975528E+03  0.54736267742E+03  0.81803293881E+02 0.  0.
         24    2    4    4    0    0  0.22818891900E+03 -0.30575299892E+03 -0.19355350044E+03  0.43489352071E+03  0.78194230713E+02 0.  0.
         13    1    3    3    0    0  0.12461485649E+02  0.24243127579E+03  0.37751994477E+03  0.44883128323E+03  0.00000000000E+00 0. -1.
        -13    1    3    3    0    0  0.20730735337E+02  0.28462924682E+02  0.12868242399E+03  0.13341314671E+03  0.00000000000E+00 0.  1.
          4    1    6    6  502    0  0.10263181614E+03 -0.18017676426E+03 -0.13699989304E+03  0.24852751709E+03  0.00000000000E+00 0. -1.
          1    1    5    5  503    0 -0.84077268250E+02  0.10368464322E+02  0.23544244198E+03  0.25021917507E+03  0.00000000000E+00 0. -1.
         -2    1    5    5    0  503 -0.17730387174E+03  0.24490334121E+02  0.23718731330E+03  0.29714350235E+03  0.00000000000E+00 0.  1.
         -3    1    6    6    0  502  0.12555710286E+03 -0.12557623466E+03 -0.56553607406E+02  0.18636600361E+03  0.00000000000E+00 0.  1.
<mgrwt>
<rscale>  0 0.13531444E+04</rscale>
<asrwt>0</asrwt>
<pdfrwt beam="1">  1        2 0.18075225E+00 0.13531444E+04</pdfrwt>
<pdfrwt beam="2">  1       -2 0.59940155E-01 0.13531444E+04</pdfrwt>
<totfact> 0.49703806E+01</totfact>
</mgrwt>
</event>
<event>
12    1  0.1549527E-007  0.3720995E+04  0.7818608E-02  0.8063325E-01
          2   -1    0    0  501    0  0.00000000000E+00  0.00000000000E+00  0.25133908466E+04  0.25133908466E+04  0.00000000000E+00 0. -1.
         -2   -1    0    0    0  501 -0.00000000000E+00 -0.00000000000E+00 -0.13772039579E+04  0.13772039579E+04  0.00000000000E+00 0.  1.
         23    2    1    2    0    0  0.14354737741E+03  0.97279934023E+03  0.20462253390E+04  0.22720483558E+04  0.90670762114E+02 0.  0.
        254    2    1    2    0    0 -0.14354737741E+03 -0.97279934023E+03 -0.91003845026E+03  0.16185464488E+04  0.90806289434E+03 0.  0.
        -24    2    4    4    0    0 -0.39156251804E+02  0.13054830764E+03 -0.32730204333E+03  0.36385112871E+03  0.81761504478E+02 0.  0.
         24    2    4    4    0    0 -0.10439112561E+03 -0.11033476479E+04 -0.58273640693E+03  0.12546953201E+04  0.80031788324E+02 0.  0.
         13    1    3    3    0    0 -0.19448283066E+00  0.26019525369E+03  0.51294555258E+03  0.57516497440E+03  0.00000000000E+00 0.  1.
        -13    1    3    3    0    0  0.14374186024E+03  0.71260408654E+03  0.15332797864E+04  0.16968833814E+04  0.00000000000E+00 0. -1.
          2    1    6    6  502    0 -0.38652039539E+02 -0.59370717733E+03 -0.35312222149E+03  0.69186522956E+03  0.00000000000E+00 0. -1.
          1    1    5    5  503    0 -0.50760986002E+02  0.90142303610E+02 -0.15399088196E+03  0.18551416207E+03  0.00000000000E+00 0. -1.
         -2    1    5    5    0  503  0.11604734198E+02  0.40406004028E+02 -0.17331116137E+03  0.17833696665E+03  0.00000000000E+00 0.  1.
         -1    1    6    6    0  502 -0.65739086071E+02 -0.50964047054E+03 -0.22961418544E+03  0.56283009053E+03  0.00000000000E+00 0.  1.
<mgrwt>
<rscale>  0 0.37209955E+04</rscale>
<asrwt>0</asrwt>
<pdfrwt beam="1">  1        2 0.38667551E+00 0.37209955E+04</pdfrwt>
<pdfrwt beam="2">  1       -2 0.21187753E+00 0.37209955E+04</pdfrwt>
<totfact> 0.30729278E-01</totfact>
</mgrwt>
</event>
<event>
12    1  0.1549527E-007  0.1646278E+04  0.7818608E-02  0.8792611E-01
          1   -1    0    0  501    0  0.00000000000E+00  0.00000000000E+00  0.22282267440E+04  0.22282267440E+04  0.00000000000E+00 0. -1.
         -1   -1    0    0    0  501 -0.00000000000E+00 -0.00000000000E+00 -0.30407945074E+03  0.30407945074E+03  0.00000000000E+00 0.  1.
         23    2    1    2    0    0  0.36795750785E+03  0.11762366357E+03  0.25440480512E+02  0.39727175560E+03  0.89160394442E+02 0.  0.
        254    2    1    2    0    0 -0.36795750785E+03 -0.11762366357E+03  0.18987068128E+04  0.21350344392E+04  0.89669194362E+03 0.  0.
        -24    2    4    4    0    0  0.27239803309E+03 -0.15892347166E+03  0.54103655109E+03  0.63123102573E+03  0.79213003719E+02 0.  0.
         24    2    4    4    0    0 -0.64035554093E+03  0.41299808091E+02  0.13576702617E+04  0.15038034134E+04  0.79970456094E+02 0.  0.
         11    1    3    3    0    0  0.38479532074E+01  0.17648996087E+02  0.65488642020E+01  0.19214094543E+02  0.00000000000E+00 0. -1.
        -11    1    3    3    0    0  0.36410955464E+03  0.99974667486E+02  0.18891616310E+02  0.37805766106E+03  0.00000000000E+00 0.  1.
          4    1    6    6  502    0 -0.32447314408E+03  0.15825939875E+02  0.77934194268E+03  0.84433828838E+03  0.00000000000E+00 0. -1.
          3    1    5    5  503    0  0.23974161361E+02 -0.18240217697E+01  0.14135531652E+02  0.27890871687E+02  0.00000000000E+00 0. -1.
         -4    1    5    5    0  503  0.24842387173E+03 -0.15709944989E+03  0.52690101943E+03  0.60334015404E+03  0.00000000000E+00 0.  1.
         -3    1    6    6    0  502 -0.31588239686E+03  0.25473868216E+02  0.57832831900E+03  0.65946512505E+03  0.00000000000E+00 0.  1.
<mgrwt>
<rscale>  0 0.16462782E+04</rscale>
<asrwt>0</asrwt>
<pdfrwt beam="1">  1        1 0.34280410E+00 0.16462782E+04</pdfrwt>
<pdfrwt beam="2">  1       -1 0.46781455E-01 0.16462782E+04</pdfrwt>
<totfact> 0.90781419E+00</totfact>
</mgrwt>
</event>
<event>
12    1  0.1549527E-007  0.1589593E+04  0.7818608E-02  0.8826967E-01
          2   -1    0    0  501    0  0.00000000000E+00  0.00000000000E+00  0.71210541699E+03  0.71210541699E+03  0.00000000000E+00 0. -1.
         -2   -1    0    0    0  501 -0.00000000000E+00 -0.00000000000E+00 -0.88708986097E+03  0.88708986097E+03  0.00000000000E+00 0.  1.
         23    2    1    2    0    0 -0.22284943022E+03  0.46690548932E+03  0.88871404233E+02  0.53250222466E+03  0.89430913376E+02 0.  0.
        254    2    1    2    0    0  0.22284943022E+03 -0.46690548932E+03 -0.26385584822E+03  0.10666930533E+04  0.89473546751E+03 0.  0.
        -24    2    4    4    0    0  0.80582615795E+02  0.26177655162E+03 -0.48101050027E+02  0.28942459223E+03  0.80202011388E+02 0.  0.
         24    2    4    4    0    0  0.14226681442E+03 -0.72868204094E+03 -0.21575479819E+03  0.77726846107E+03  0.79867166940E+02 0.  0.
         11    1    3    3    0    0 -0.57491675168E+02  0.11755606237E+03  0.62707048783E+02  0.14510993929E+03  0.00000000000E+00 0. -1.
        -11    1    3    3    0    0 -0.16535775505E+03  0.34934942695E+03  0.26164355450E+02  0.38739228536E+03  0.00000000000E+00 0.  1.
          2    1    6    6  502    0  0.14338061550E+03 -0.62351069951E+03 -0.20355890589E+03  0.67138649188E+03  0.00000000000E+00 0. -1.
          1    1    5    5  503    0  0.91881756569E+02  0.25022339699E+03 -0.35460215594E+02  0.26890785128E+03  0.00000000000E+00 0. -1.
         -2    1    5    5    0  503 -0.11299140773E+02  0.11553154625E+02 -0.12640834432E+02  0.20516740948E+02  0.00000000000E+00 0.  1.
         -1    1    6    6    0  502 -0.11138010813E+01 -0.10517134142E+03 -0.12195892295E+02  0.10588196919E+03  0.00000000000E+00 0.  1.
<mgrwt>
<rscale>  0 0.15895930E+04</rscale>
<asrwt>0</asrwt>
<pdfrwt beam="1">  1        2 0.10955468E+00 0.15895930E+04</pdfrwt>
<pdfrwt beam="2">  1       -2 0.13647536E+00 0.15895930E+04</pdfrwt>
<totfact> 0.14755787E+01</totfact>
</mgrwt>
</event>
<event>
12    1  0.1613316E-007  0.1679839E+04  0.7818608E-02  0.8772947E-01
         -1   -1    0    0    0  501 -0.00000000000E+00  0.00000000000E+00  0.35179245533E+03  0.35179245533E+03  0.00000000000E+00 0.  1.
          1   -1    0    0  501    0  0.00000000000E+00 -0.00000000000E+00 -0.20053431853E+04  0.20053431853E+04  0.00000000000E+00 0. -1.
         23    2    1    2    0    0 -0.13424101063E+03  0.50612440146E+03 -0.93303517270E+03  0.10737292930E+04  0.90318338954E+02 0.  0.
        254    2    1    2    0    0  0.13424101063E+03 -0.50612440146E+03 -0.72051555724E+03  0.12834063477E+04  0.92401657252E+03 0.  0.
        -24    2    4    4    0    0 -0.12064176939E+03  0.22358369491E+03 -0.29596004208E+03  0.39725827420E+03  0.75350413162E+02 0.  0.
         24    2    4    4    0    0  0.25488278003E+03 -0.72970809637E+03 -0.42455551517E+03  0.88614807345E+03  0.87016579844E+02 0.  0.
         13    1    3    3    0    0 -0.13708079401E+03  0.44968368385E+03 -0.78153925362E+03  0.91203627371E+03  0.00000000000E+00 0.  1.
        -13    1    3    3    0    0  0.28397833750E+01  0.56440717611E+02 -0.15149591908E+03  0.16169301924E+03  0.00000000000E+00 0. -1.
          2    1    6    6  502    0  0.17428356442E+03 -0.58335155685E+03 -0.30698198784E+03  0.68184436682E+03  0.00000000000E+00 0. -1.
          1    1    5    5  503    0 -0.11165205664E+03  0.22466862708E+03 -0.29623700621E+03  0.38819909530E+03  0.00000000000E+00 0. -1.
         -2    1    5    5    0  503 -0.89897127557E+01 -0.10849321717E+01  0.27696412831E+00  0.90591789019E+01  0.00000000000E+00 0.  1.
         -1    1    6    6    0  502  0.80599215611E+02 -0.14635653952E+03 -0.11757352732E+03  0.20430370664E+03  0.00000000000E+00 0.  1.
<mgrwt>
<rscale>  0 0.16798388E+04</rscale>
<asrwt>0</asrwt>
<pdfrwt beam="1">  1        1 0.30851434E+00 0.16798388E+04</pdfrwt>
<pdfrwt beam="2">  1       -1 0.54121916E-01 0.16798388E+04</pdfrwt>
<totfact> 0.97132033E+00</totfact>
</mgrwt>
</event>
<event>
12    1  0.1549527E-007  0.1734850E+04  0.7818608E-02  0.8741734E-01
         -2   -1    0    0    0  501 -0.00000000000E+00  0.00000000000E+00  0.48816545081E+03  0.48816545081E+03  0.00000000000E+00 0.  1.
          2   -1    0    0  501    0  0.00000000000E+00 -0.00000000000E+00 -0.15413334337E+04  0.15413334337E+04  0.00000000000E+00 0. -1.
         23    2    1    2    0    0 -0.13501338606E+03  0.59074463982E+03 -0.16721600424E+03  0.63457136824E+03  0.86670556892E+02 0.  0.
        254    2    1    2    0    0  0.13501338606E+03 -0.59074463982E+03 -0.88595197861E+03  0.13949275162E+04  0.89090068090E+03 0.  0.
        -24    2    4    4    0    0 -0.12866629409E+03 -0.38568705248E+02 -0.74569416946E+03  0.76186287246E+03  0.79578149117E+02 0.  0.
         24    2    4    4    0    0  0.26367968015E+03 -0.55217593457E+03 -0.14025780916E+03  0.63306464376E+03  0.81690597448E+02 0.  0.
         11    1    3    3    0    0 -0.47046482440E+02  0.14302353461E+03 -0.78306992570E+02  0.16970883314E+03  0.00000000000E+00 0. -1.
        -11    1    3    3    0    0 -0.87966903624E+02  0.44772110521E+03 -0.88909011667E+02  0.46486253510E+03  0.00000000000E+00 0.  1.
          4    1    6    6  502    0  0.61634516314E+02 -0.21341753709E+03 -0.35533225483E+02  0.22496326112E+03  0.00000000000E+00 0. -1.
          1    1    5    5  503    0 -0.45714189576E+02 -0.28201049263E+02 -0.48802214596E+03  0.49096914491E+03  0.00000000000E+00 0. -1.
         -2    1    5    5    0  503 -0.82952104512E+02 -0.10367655985E+02 -0.25767202350E+03  0.27089372755E+03  0.00000000000E+00 0.  1.
         -3    1    6    6    0  502  0.20204516384E+03 -0.33875839748E+03 -0.10472458367E+03  0.40810138265E+03  0.00000000000E+00 0.  1.
<mgrwt>
<rscale>  0 0.17348495E+04</rscale>
<asrwt>0</asrwt>
<pdfrwt beam="1">  1        2 0.23712822E+00 0.17348495E+04</pdfrwt>
<pdfrwt beam="2">  1       -2 0.75102377E-01 0.17348495E+04</pdfrwt>
<totfact> 0.18173561E+01</totfact>
</mgrwt>
</event>
<event>
12    1  0.1549527E-007  0.2685805E+04  0.7818608E-02  0.8339625E-01
          1   -1    0    0  501    0  0.00000000000E+00  0.00000000000E+00  0.74158278475E+03  0.74158278475E+03  0.00000000000E+00 0. -1.
         -1   -1    0    0    0  501 -0.00000000000E+00 -0.00000000000E+00 -0.24318087960E+04  0.24318087960E+04  0.00000000000E+00 0.  1.
         23    2    1    2    0    0 -0.65691006869E+03 -0.78403586749E+03 -0.33034877609E+02  0.10279119343E+04  0.96273369022E+02 0.  0.
        254    2    1    2    0    0  0.65691006869E+03  0.78403586749E+03 -0.16571911336E+04  0.21454796465E+04  0.90030960243E+03 0.  0.
        -24    2    4    4    0    0  0.56711346286E+03  0.13206377337E+03 -0.36182824942E+03  0.69032176827E+03  0.81030498386E+02 0.  0.
         24    2    4    4    0    0  0.89796605828E+02  0.65197209412E+03 -0.12953628842E+04  0.14551578782E+04  0.79927509775E+02 0.  0.
         13    1    3    3    0    0 -0.27334374231E+03 -0.37112200889E+03  0.23399068917E+02  0.46151474881E+03  0.00000000000E+00 0. -1.
        -13    1    3    3    0    0 -0.38356632638E+03 -0.41291385860E+03 -0.56433946526E+02  0.56639718544E+03  0.00000000000E+00 0.  1.
          2    1    6    6  502    0  0.10473867640E+02  0.32154957310E+03 -0.67782523046E+03  0.75030052173E+03  0.00000000000E+00 0. -1.
          1    1    5    5  503    0  0.34934066777E+03  0.88517400588E+02 -0.26858467368E+03  0.44945740544E+03  0.00000000000E+00 0. -1.
         -2    1    5    5    0  503  0.21777279510E+03  0.43546372778E+02 -0.93243575734E+02  0.24086436283E+03  0.00000000000E+00 0.  1.
         -1    1    6    6    0  502  0.79322738188E+02  0.33042252102E+03 -0.61753765372E+03  0.70485735646E+03  0.00000000000E+00 0.  1.
<mgrwt>
<rscale>  0 0.26858053E+04</rscale>
<asrwt>0</asrwt>
<pdfrwt beam="1">  1        1 0.11408966E+00 0.26858053E+04</pdfrwt>
<pdfrwt beam="2">  1       -1 0.37412443E+00 0.26858053E+04</pdfrwt>
<totfact> 0.23357076E-01</totfact>
</mgrwt>
</event>
<event>
12    1  0.1549527E-007  0.1493161E+04  0.7818608E-02  0.8889014E-01
          1   -1    0    0  501    0  0.00000000000E+00  0.00000000000E+00  0.22769779462E+04  0.22769779462E+04  0.00000000000E+00 0. -1.
         -1   -1    0    0    0  501 -0.00000000000E+00 -0.00000000000E+00 -0.24479044075E+03  0.24479044075E+03  0.00000000000E+00 0.  1.
         23    2    1    2    0    0  0.19558228909E+03 -0.36106067390E+03  0.26623147767E+03  0.49834436512E+03  0.94077970307E+02 0.  0.
        254    2    1    2    0    0 -0.19558228909E+03  0.36106067390E+03  0.17659560278E+04  0.20234240218E+04  0.89834672487E+03 0.  0.
        -24    2    4    4    0    0 -0.17244821622E+03  0.64687056269E+03  0.13814841112E+04  0.15372346246E+04  0.80075148040E+02 0.  0.
         24    2    4    4    0    0 -0.23134072871E+02 -0.28580988879E+03  0.38447191660E+03  0.48618939729E+03  0.79617821675E+02 0.  0.
         11    1    3    3    0    0  0.11875098994E+03 -0.19965224710E+03  0.20370308733E+03  0.30896240090E+03  0.00000000000E+00 0. -1.
        -11    1    3    3    0    0  0.76831299147E+02 -0.16140842680E+03  0.62528390348E+02  0.18938196422E+03  0.00000000000E+00 0.  1.
          4    1    6    6  502    0 -0.22411858672E+02 -0.28973892315E+03  0.36625711682E+03  0.46754166725E+03  0.00000000000E+00 0. -1.
          1    1    5    5  503    0 -0.81681801393E+02  0.43268644268E+03  0.85804479010E+03  0.96443264989E+03  0.00000000000E+00 0. -1.
         -2    1    5    5    0  503 -0.90766414826E+02  0.21418412000E+03  0.52343932109E+03  0.57280197467E+03  0.00000000000E+00 0.  1.
         -3    1    6    6    0  502 -0.72221419859E+00  0.39290343672E+01  0.18214799781E+02  0.18647730036E+02  0.00000000000E+00 0.  1.
<mgrwt>
<rscale>  0 0.14931610E+04</rscale>
<asrwt>0</asrwt>
<pdfrwt beam="1">  1        1 0.35030429E+00 0.14931610E+04</pdfrwt>
<pdfrwt beam="2">  1       -1 0.37660069E-01 0.14931610E+04</pdfrwt>
<totfact> 0.12720464E+01</totfact>
</mgrwt>
</event>
<event>
12    1  0.1549527E-007  0.5221214E+04  0.7818608E-02  0.7795260E-01
          2   -1    0    0  501    0  0.00000000000E+00  0.00000000000E+00  0.26018147006E+04  0.26018147006E+04  0.00000000000E+00 0. -1.
         -2   -1    0    0    0  501 -0.00000000000E+00 -0.00000000000E+00 -0.26194285596E+04  0.26194285596E+04  0.00000000000E+00 0.  1.
         23    2    1    2    0    0  0.24706074698E+04 -0.52226217884E+03  0.18822026838E+03  0.25338704366E+04  0.91724951144E+02 0.  0.
        254    2    1    2    0    0 -0.24706074698E+04  0.52226217884E+03 -0.20583412743E+03  0.26873728236E+04  0.89607251490E+03 0.  0.
        -24    2    4    4    0    0 -0.23759655564E+04  0.26307965303E+03 -0.15912418825E+03  0.23971445602E+04  0.80983370549E+02 0.  0.
         24    2    4    4    0    0 -0.94641913412E+02  0.25918252581E+03 -0.46709939171E+02  0.29022826343E+03  0.76928232887E+02 0.  0.
         11    1    3    3    0    0  0.18166469418E+04 -0.34313817131E+03  0.14489719810E+03  0.18544392990E+04  0.00000000000E+00 0. -1.
        -11    1    3    3    0    0  0.65396052797E+03 -0.17912400753E+03  0.43323070281E+02  0.67943113752E+03  0.00000000000E+00 0.  1.
          4    1    6    6  502    0 -0.46228955898E+02  0.21059378715E+03 -0.50813519914E+02  0.22151495063E+03  0.00000000000E+00 0. -1.
          1    1    5    5  503    0 -0.18649101939E+04  0.17310241479E+03 -0.12110889031E+03  0.18768382563E+04  0.00000000000E+00 0. -1.
         -2    1    5    5    0  503 -0.51105536252E+03  0.89977238238E+02 -0.38015297945E+02  0.52030630386E+03  0.00000000000E+00 0.  1.
         -3    1    6    6    0  502 -0.48412957515E+02  0.48588738664E+02  0.41035807430E+01  0.68713312795E+02  0.00000000000E+00 0.  1.
<mgrwt>
<rscale>  0 0.52212135E+04</rscale>
<asrwt>0</asrwt>
<pdfrwt beam="1">  1        2 0.40027919E+00 0.52212135E+04</pdfrwt>
<pdfrwt beam="2">  1       -2 0.40298901E+00 0.52212135E+04</pdfrwt>
<totfact> 0.15423698E-02</totfact>
</mgrwt>
</event>
<event>
12    1  0.1549527E-007  0.2250748E+04  0.7818608E-02  0.8497598E-01
         -2   -1    0    0    0  501 -0.00000000000E+00  0.00000000000E+00  0.27360624433E+03  0.27360624433E+03  0.00000000000E+00 0. -1.
          2   -1    0    0  501    0  0.00000000000E+00 -0.00000000000E+00 -0.46287937651E+04  0.46287937651E+04  0.00000000000E+00 0.  1.
         23    2    1    2    0    0 -0.19887995179E+03  0.70512542015E+03 -0.67780771755E+03  0.10021845315E+04  0.90528668136E+02 0.  0.
        254    2    1    2    0    0  0.19887995179E+03 -0.70512542015E+03 -0.36773798033E+04  0.39002154780E+04  0.10732210696E+04 0.  0.
        -24    2    4    4    0    0  0.37265986339E+03 -0.15483604649E+03 -0.28987908933E+04  0.29278458844E+04  0.80270195302E+02 0.  0.
         24    2    4    4    0    0 -0.17377991160E+03 -0.55028937366E+03 -0.77858890993E+03  0.97236959366E+03  0.79272211755E+02 0.  0.
         13    1    3    3    0    0 -0.47356470177E+02  0.65256517575E+02 -0.72139715760E+02  0.10819051226E+03  0.00000000000E+00 0.  1.
        -13    1    3    3    0    0 -0.15152348161E+03  0.63986890257E+03 -0.60566800179E+03  0.89399401919E+03  0.00000000000E+00 0. -1.
          2    1    6    6  502    0 -0.14967620458E+02 -0.43106791658E+02 -0.31175723873E+02  0.55264372866E+02  0.00000000000E+00 0. -1.
          3    1    5    5  503    0  0.21606007509E+03 -0.13082946097E+03 -0.17148458804E+04  0.17333478293E+04  0.00000000000E+00 0. -1.
         -4    1    5    5    0  503  0.15659978831E+03 -0.24006585516E+02 -0.11839450129E+04  0.11944980550E+04  0.00000000000E+00 0.  1.
         -1    1    6    6    0  502 -0.15881229115E+03 -0.50718258200E+03 -0.74741318606E+03  0.91710522079E+03  0.00000000000E+00 0.  1.
<mgrwt>
<rscale>  0 0.22507482E+04</rscale>
<asrwt>0</asrwt>
<pdfrwt beam="1">  1        2 0.71212208E+00 0.22507482E+04</pdfrwt>
<pdfrwt beam="2">  1       -2 0.42093270E-01 0.22507482E+04</pdfrwt>
<totfact> 0.44963844E-01</totfact>
</mgrwt>
</event>
<event>
12    1  0.1549527E-007  0.2151750E+04  0.7818608E-02  0.8538784E-01
         -1   -1    0    0    0  501 -0.00000000000E+00  0.00000000000E+00  0.41127164934E+03  0.41127164934E+03  0.00000000000E+00 0.  1.
          1   -1    0    0  501    0  0.00000000000E+00 -0.00000000000E+00 -0.28144580104E+04  0.28144580104E+04  0.00000000000E+00 0. -1.
         23    2    1    2    0    0 -0.56632825807E+03 -0.13437386090E+03  0.35249375832E+01  0.58930812055E+03  0.92128200788E+02 0.  0.
        254    2    1    2    0    0  0.56632825807E+03  0.13437386090E+03 -0.24067112986E+04  0.26364215391E+04  0.90535917008E+03 0.  0.
        -24    2    4    4    0    0  0.90895571086E+02 -0.86784266807E+02 -0.18902207286E+04  0.18961260157E+04  0.81030555355E+02 0.  0.
         24    2    4    4    0    0  0.47543268698E+03  0.22115812771E+03 -0.51649056999E+03  0.74029552340E+03  0.79547443517E+02 0.  0.
         11    1    3    3    0    0 -0.53980825826E+03 -0.11041530102E+03  0.16644935121E+02  0.55123638146E+03  0.00000000000E+00 0.  1.
        -11    1    3    3    0    0 -0.26519999812E+02 -0.23958559888E+02 -0.13119997538E+02  0.38071739090E+02  0.00000000000E+00 0. -1.
          2    1    6    6  502    0  0.11941015487E+03  0.28933665832E+02 -0.15448133306E+03  0.19738395165E+03  0.00000000000E+00 0. -1.
          3    1    5    5  503    0 -0.12910147247E+02 -0.77069547776E+01 -0.37329732382E+03  0.37360000137E+03  0.00000000000E+00 0. -1.
         -4    1    5    5    0  503  0.10380571833E+03 -0.79077312029E+02 -0.15169234048E+04  0.15225260144E+04  0.00000000000E+00 0.  1.
         -1    1    6    6    0  502  0.35602253211E+03  0.19222446188E+03 -0.36200923693E+03  0.54291157175E+03  0.00000000000E+00 0.  1.
<mgrwt>
<rscale>  0 0.21517498E+04</rscale>
<asrwt>0</asrwt>
<pdfrwt beam="1">  1        1 0.43299353E+00 0.21517498E+04</pdfrwt>
<pdfrwt beam="2">  1       -1 0.63272564E-01 0.21517498E+04</pdfrwt>
<totfact> 0.18888950E+00</totfact>
</mgrwt>
</event>
<event>
12    1  0.1549527E-007  0.1758491E+04  0.7818608E-02  0.8728690E-01
          2   -1    0    0  501    0  0.00000000000E+00  0.00000000000E+00  0.15560739708E+04  0.15560739708E+04  0.00000000000E+00 0. -1.
         -2   -1    0    0    0  501 -0.00000000000E+00 -0.00000000000E+00 -0.49680957093E+03  0.49680957093E+03  0.00000000000E+00 0.  1.
         23    2    1    2    0    0  0.87314603845E+02 -0.60583023567E+03  0.61874878534E+03  0.87514356963E+03  0.91499145449E+02 0.  0.
        254    2    1    2    0    0 -0.87314603845E+02  0.60583023567E+03  0.44051561449E+03  0.11777399721E+04  0.90463435745E+03 0.  0.
        -24    2    4    4    0    0  0.14618353865E+03  0.77175791235E+03  0.26796874201E+03  0.83381886884E+03  0.80416149456E+02 0.  0.
         24    2    4    4    0    0 -0.23349814249E+03 -0.16592767669E+03  0.17254687248E+03  0.34392110321E+03  0.80348774686E+02 0.  0.
         13    1    3    3    0    0  0.15159340418E+01 -0.48337813592E+02  0.89182860244E+02  0.10145158865E+03  0.00000000000E+00 0.  1.
        -13    1    3    3    0    0  0.85798669803E+02 -0.55749242207E+03  0.52956592510E+03  0.77369198098E+03  0.00000000000E+00 0. -1.
          4    1    6    6  502    0 -0.17045455590E+03 -0.14498086434E+03  0.98649015653E+02  0.24455231535E+03  0.00000000000E+00 0. -1.
          1    1    5    5  503    0  0.35961688088E+02  0.19886558195E+03  0.10675495599E+03  0.22855498971E+03  0.00000000000E+00 0. -1.
         -2    1    5    5    0  503  0.11022185056E+03  0.57289233040E+03  0.16121378601E+03  0.60526387913E+03  0.00000000000E+00 0.  1.
         -3    1    6    6    0  502 -0.63043586590E+02 -0.20946812344E+02  0.73897856828E+02  0.99368787863E+02  0.00000000000E+00 0.  1.
<mgrwt>
<rscale>  0 0.17584908E+04</rscale>
<asrwt>0</asrwt>
<pdfrwt beam="1">  1        2 0.23939599E+00 0.17584908E+04</pdfrwt>
<pdfrwt beam="2">  1       -2 0.76432243E-01 0.17584908E+04</pdfrwt>
<totfact> 0.17115289E+01</totfact>
</mgrwt>
</event>
<event>
12    1  0.1549527E-007  0.1792193E+04  0.7818608E-02  0.8710462E-01
          1   -1    0    0  501    0  0.00000000000E+00  0.00000000000E+00  0.53463252673E+03  0.53463252673E+03  0.00000000000E+00 0. -1.
         -1   -1    0    0    0  501 -0.00000000000E+00 -0.00000000000E+00 -0.15019459837E+04  0.15019459837E+04  0.00000000000E+00 0.  1.
         23    2    1    2    0    0 -0.51071461287E+03  0.41250663587E+03 -0.45465142841E+03  0.80365295918E+03  0.90327277201E+02 0.  0.
        254    2    1    2    0    0  0.51071461287E+03 -0.41250663587E+03 -0.51266202854E+03  0.12329255512E+04  0.90900600600E+03 0.  0.
        -24    2    4    4    0    0  0.60980418119E+03 -0.60725216715E+03 -0.29195922238E+03  0.91229182366E+03  0.80123966936E+02 0.  0.
         24    2    4    4    0    0 -0.99089568322E+02  0.19474553128E+03 -0.22070280616E+03  0.32063372758E+03  0.79697516335E+02 0.  0.
         11    1    3    3    0    0 -0.21862631537E+03  0.12298381590E+03 -0.15610018412E+03  0.29544839182E+03  0.00000000000E+00 0. -1.
        -11    1    3    3    0    0 -0.29208829750E+03  0.28952281997E+03 -0.29855124429E+03  0.50820456736E+03  0.00000000000E+00 0.  1.
          4    1    6    6  502    0 -0.75989791608E+02  0.64911874563E+02 -0.82311425907E+02  0.12947266400E+03  0.00000000000E+00 0. -1.
          1    1    5    5  503    0  0.19293407076E+02 -0.90651401179E+01  0.29165110102E+01  0.21515537605E+02  0.00000000000E+00 0. -1.
         -2    1    5    5    0  503  0.59051077411E+03 -0.59818702703E+03 -0.29487573339E+03  0.89077628605E+03  0.00000000000E+00 0.  1.
         -3    1    6    6    0  502 -0.23099776715E+02  0.12983365672E+03 -0.13839138026E+03  0.19116106358E+03  0.00000000000E+00 0.  1.
<mgrwt>
<rscale>  0 0.17921933E+04</rscale>
<asrwt>0</asrwt>
<pdfrwt beam="1">  1        1 0.82251160E-01 0.17921933E+04</pdfrwt>
<pdfrwt beam="2">  1       -1 0.23106861E+00 0.17921933E+04</pdfrwt>
<totfact> 0.35397711E+00</totfact>
</mgrwt>
</event>
<event>
12    1  0.1549527E-007  0.1759431E+04  0.7818608E-02  0.8728176E-01
          1   -1    0    0  501    0  0.00000000000E+00  0.00000000000E+00  0.11792029498E+04  0.11792029498E+04  0.00000000000E+00 0. -1.
         -1   -1    0    0    0  501 -0.00000000000E+00 -0.00000000000E+00 -0.65628997804E+03  0.65628997804E+03  0.00000000000E+00 0.  1.
         23    2    1    2    0    0 -0.45514317709E+03 -0.30315067948E+03  0.66110269906E+03  0.86267532830E+03  0.89979426769E+02 0.  0.
        254    2    1    2    0    0  0.45514317709E+03  0.30315067948E+03 -0.13818972734E+03  0.97281759949E+03  0.79260458933E+03 0.  0.
        -24    2    4    4    0    0  0.43286907904E+03 -0.60147026508E+02 -0.32941533531E+03  0.55326515097E+03  0.81206894706E+02 0.  0.
         24    2    4    4    0    0  0.22274098045E+02  0.36329770599E+03  0.19122560797E+03  0.41955244853E+03  0.83520448416E+02 0.  0.
         11    1    3    3    0    0 -0.27882937145E+03 -0.15998993162E+03  0.44667396054E+03  0.55032737859E+03  0.00000000000E+00 0. -1.
        -11    1    3    3    0    0 -0.17631380563E+03 -0.14316074786E+03  0.21442873852E+03  0.31234794971E+03  0.00000000000E+00 0.  1.
          2    1    6    6  502    0  0.22720333775E+02  0.33146745216E+03  0.19832601544E+03  0.38693680855E+03  0.00000000000E+00 0. -1.
          1    1    5    5  503    0  0.18773113899E+03 -0.51658488353E+02 -0.18522911782E+03  0.26874040644E+03  0.00000000000E+00 0. -1.
         -2    1    5    5    0  503  0.24513794006E+03 -0.84885381556E+01 -0.14418621749E+03  0.28452474453E+03  0.00000000000E+00 0.  1.
         -1    1    6    6    0  502 -0.44623573037E+00  0.31830253830E+02 -0.71004074720E+01  0.32615639983E+02  0.00000000000E+00 0.  1.
<mgrwt>
<rscale>  0 0.17594307E+04</rscale>
<asrwt>0</asrwt>
<pdfrwt beam="1">  1        1 0.18141584E+00 0.17594307E+04</pdfrwt>
<pdfrwt beam="2">  1       -1 0.10096769E+00 0.17594307E+04</pdfrwt>
<totfact> 0.97712133E+00</totfact>
</mgrwt>
</event>
<event>
12    1  0.1549527E-007  0.1380744E+04  0.7818608E-02  0.8967876E-01
          1   -1    0    0  501    0  0.00000000000E+00  0.00000000000E+00  0.30912685666E+03  0.30912685666E+03  0.00000000000E+00 0. -1.
         -1   -1    0    0    0  501 -0.00000000000E+00 -0.00000000000E+00 -0.15418051464E+04  0.15418051464E+04  0.00000000000E+00 0.  1.
         23    2    1    2    0    0  0.36179088530E+03  0.14737103355E+03 -0.33185307242E+03  0.52061052245E+03  0.91093293904E+02 0.  0.
        254    2    1    2    0    0 -0.36179088530E+03 -0.14737103355E+03 -0.90082521735E+03  0.13303214806E+04  0.89758470545E+03 0.  0.
        -24    2    4    4    0    0 -0.29512604499E+03  0.58134978585E+02 -0.10231561455E+04  0.10695705022E+04  0.81569006534E+02 0.  0.
         24    2    4    4    0    0 -0.66664840310E+02 -0.20550601213E+03  0.12233092818E+03  0.26075097847E+03  0.79682462487E+02 0.  0.
         11    1    3    3    0    0  0.16548909674E+03  0.62639328153E+02 -0.92491537988E+02  0.19966224272E+03  0.00000000000E+00 0. -1.
        -11    1    3    3    0    0  0.19630178857E+03  0.84731705393E+02 -0.23936153443E+03  0.32094827973E+03  0.00000000000E+00 0.  1.
          4    1    6    6  502    0 -0.81591104469E+02 -0.13430146696E+03  0.90499642495E+02  0.18133995050E+03  0.00000000000E+00 0. -1.
          1    1    5    5  503    0 -0.27881517623E+03  0.68750442834E+02 -0.89489254219E+03  0.93983891596E+03  0.00000000000E+00 0. -1.
         -2    1    5    5    0  503 -0.16310868762E+02 -0.10615464249E+02 -0.12826360333E+03  0.12973158621E+03  0.00000000000E+00 0.  1.
         -3    1    6    6    0  502  0.14926264159E+02 -0.71204545169E+02  0.31831285686E+02  0.79411027967E+02  0.00000000000E+00 0.  1.
<mgrwt>
<rscale>  0 0.13807438E+04</rscale>
<asrwt>0</asrwt>
<pdfrwt beam="1">  1        1 0.47557978E-01 0.13807438E+04</pdfrwt>
<pdfrwt beam="2">  1       -1 0.23720079E+00 0.13807438E+04</pdfrwt>
<totfact> 0.69683795E+00</totfact>
</mgrwt>
</event>
<event>
12    1  0.1549527E-007  0.1399547E+04  0.7818608E-02  0.8954146E-01
          1   -1    0    0  501    0  0.00000000000E+00  0.00000000000E+00  0.28311827782E+03  0.28311827782E+03  0.00000000000E+00 0. -1.
         -1   -1    0    0    0  501 -0.00000000000E+00 -0.00000000000E+00 -0.17296058364E+04  0.17296058364E+04  0.00000000000E+00 0.  1.
         23    2    1    2    0    0  0.39298425961E+03 -0.84209709195E+02 -0.36286883166E+03  0.54927011304E+03  0.92173557297E+02 0.  0.
        254    2    1    2    0    0 -0.39298425961E+03  0.84209709195E+02 -0.10836187269E+04  0.14634540012E+04  0.89774170275E+03 0.  0.
        -24    2    4    4    0    0 -0.38535146380E+03  0.13108845555E+03 -0.12254667300E+04  0.12937665028E+04  0.79894453884E+02 0.  0.
         24    2    4    4    0    0 -0.76327958124E+01 -0.46878746354E+02  0.14184800304E+03  0.16968749837E+03  0.80106895492E+02 0.  0.
         13    1    3    3    0    0  0.30882314610E+03 -0.84289001922E+02 -0.23891867601E+03  0.39944775022E+03  0.00000000000E+00 0.  1.
        -13    1    3    3    0    0  0.84161113511E+02  0.79292726540E-01 -0.12395015565E+03  0.14982236282E+03  0.00000000000E+00 0. -1.
          4    1    6    6  502    0 -0.10448633179E+02 -0.69526190221E+02  0.10721208252E+03  0.12820879728E+03  0.00000000000E+00 0. -1.
          3    1    5    5  503    0 -0.24393220369E+03  0.86231717499E+02 -0.65300559352E+03  0.70239243608E+03  0.00000000000E+00 0. -1.
         -4    1    5    5    0  503 -0.14141926011E+03  0.44856738050E+02 -0.57246113646E+03  0.59137406676E+03  0.00000000000E+00 0.  1.
         -3    1    6    6    0  502  0.28158373668E+01  0.22647443868E+02  0.34635920517E+02  0.41478701087E+02  0.00000000000E+00 0.  1.
<mgrwt>
<rscale>  0 0.13995471E+04</rscale>
<asrwt>0</asrwt>
<pdfrwt beam="1">  1        1 0.43556656E-01 0.13995471E+04</pdfrwt>
<pdfrwt beam="2">  1       -1 0.26609322E+00 0.13995471E+04</pdfrwt>
<totfact> 0.50592478E+00</totfact>
</mgrwt>
</event>
<event>
12    1  0.1549527E-007  0.1351150E+04  0.7818608E-02  0.8989958E-01
         -1   -1    0    0    0  501 -0.00000000000E+00  0.00000000000E+00  0.53021715785E+03  0.53021715785E+03  0.00000000000E+00 0.  1.
          1   -1    0    0  501    0  0.00000000000E+00 -0.00000000000E+00 -0.86078293949E+03  0.86078293949E+03  0.00000000000E+00 0. -1.
         23    2    1    2    0    0 -0.16047052088E+03  0.50458883121E+01 -0.48502160353E+03  0.51876707251E+03  0.89983723898E+02 0.  0.
        254    2    1    2    0    0  0.16047052088E+03 -0.50458883121E+01  0.15445582188E+03  0.87223302483E+03  0.84330160656E+03 0.  0.
        -24    2    4    4    0    0  0.44552937260E+03 -0.33658310610E+02  0.29649757952E+03  0.54217702851E+03  0.80098763141E+02 0.  0.
         24    2    4    4    0    0 -0.28505885172E+03  0.28612422298E+02 -0.14204175764E+03  0.33005599632E+03  0.81755000719E+02 0.  0.
         13    1    3    3    0    0 -0.92066809787E+02  0.43939072367E+02 -0.22385826463E+03  0.24600703687E+03  0.00000000000E+00 0.  1.
        -13    1    3    3    0    0 -0.68403711097E+02 -0.38893184055E+02 -0.26116333890E+03  0.27276003564E+03  0.00000000000E+00 0. -1.
          2    1    6    6  502    0 -0.87127389896E+02  0.36358254492E+02 -0.76176954140E+02  0.12130965783E+03  0.00000000000E+00 0. -1.
          3    1    5    5  503    0  0.21255085234E+03 -0.18694816679E+02  0.18947681244E+03  0.28535736096E+03  0.00000000000E+00 0. -1.
         -2    1    5    5    0  503  0.23297852026E+03 -0.14963493931E+02  0.10702076708E+03  0.25681966755E+03  0.00000000000E+00 0.  1.
         -1    1    6    6    0  502 -0.19793146182E+03 -0.77458321944E+01 -0.65864803495E+02  0.20874633849E+03  0.00000000000E+00 0.  1.
<mgrwt>
<rscale>  0 0.13511504E+04</rscale>
<asrwt>0</asrwt>
<pdfrwt beam="1">  1        1 0.13242814E+00 0.13511504E+04</pdfrwt>
<pdfrwt beam="2">  1       -1 0.81571871E-01 0.13511504E+04</pdfrwt>
<totfact> 0.28733909E+01</totfact>
</mgrwt>
</event>
<event>
12    1  0.1549527E-007  0.1354473E+04  0.7818608E-02  0.8987449E-01
          1   -1    0    0  501    0  0.00000000000E+00  0.00000000000E+00  0.93013854712E+03  0.93013854712E+03  0.00000000000E+00 0. -1.
         -1   -1    0    0    0  501 -0.00000000000E+00 -0.00000000000E+00 -0.49309779792E+03  0.49309779792E+03  0.00000000000E+00 0.  1.
         23    2    1    2    0    0 -0.20450543171E+03  0.41716305960E+02 -0.20337766443E+03  0.30570859589E+03  0.92371799978E+02 0.  0.
        254    2    1    2    0    0  0.20450543171E+03 -0.41716305960E+02  0.64041841364E+03  0.11175277491E+04  0.89172294117E+03 0.  0.
        -24    2    4    4    0    0  0.25718340897E+03  0.27009692977E+03  0.68909388261E+03  0.78762019571E+03  0.79997101896E+02 0.  0.
         24    2    4    4    0    0 -0.52677977266E+02 -0.31181323573E+03 -0.48675468975E+02  0.32990755344E+03  0.80419085241E+02 0.  0.
         13    1    3    3    0    0 -0.84235193952E+02  0.11623913845E+02 -0.25286871043E+02  0.88713635481E+02  0.00000000000E+00 0. -1.
        -13    1    3    3    0    0 -0.12027023775E+03  0.30092392116E+02 -0.17809079339E+03  0.21699496041E+03  0.00000000000E+00 0.  1.
          4    1    6    6  502    0  0.20264631088E+02 -0.10075077505E+03 -0.97635216797E+01  0.10323129517E+03  0.00000000000E+00 0. -1.
          1    1    5    5  503    0  0.95736608028E+02  0.11776721539E+03  0.35980225774E+03  0.39050259899E+03  0.00000000000E+00 0. -1.
         -2    1    5    5    0  503  0.16144680094E+03  0.15232971437E+03  0.32929162487E+03  0.39711759672E+03  0.00000000000E+00 0.  1.
         -3    1    6    6    0  502 -0.72942608354E+02 -0.21106246068E+03 -0.38911947295E+02  0.22667625827E+03  0.00000000000E+00 0.  1.
<mgrwt>
<rscale>  0 0.13544730E+04</rscale>
<asrwt>0</asrwt>
<pdfrwt beam="1">  1        1 0.14309824E+00 0.13544730E+04</pdfrwt>
<pdfrwt beam="2">  1       -1 0.75861199E-01 0.13544730E+04</pdfrwt>
<totfact> 0.29379478E+01</totfact>
</mgrwt>
</event>
<event>
12    1  0.1549527E-007  0.1083842E+04  0.7818608E-02  0.9221085E-01
         -1   -1    0    0    0  501 -0.00000000000E+00  0.00000000000E+00  0.36412875646E+03  0.36412875646E+03  0.00000000000E+00 0.  1.
          1   -1    0    0  501    0  0.00000000000E+00 -0.00000000000E+00 -0.80652345986E+03  0.80652345986E+03  0.00000000000E+00 0. -1.
         23    2    1    2    0    0 -0.14645453647E+03  0.37804349910E+01 -0.83280287874E+02  0.19153152276E+03  0.91024694018E+02 0.  0.
        254    2    1    2    0    0  0.14645453647E+03 -0.37804349910E+01 -0.35911441552E+03  0.97912069356E+03  0.89902777832E+03 0.  0.
        -24    2    4    4    0    0  0.13125224051E+03 -0.43611791236E+03 -0.11927396198E+03  0.47819716822E+03  0.83787048928E+02 0.  0.
         24    2    4    4    0    0  0.15202295959E+02  0.43233747737E+03 -0.23984045354E+03  0.50092352534E+03  0.79083063585E+02 0.  0.
         13    1    3    3    0    0 -0.10318008646E+03  0.35458017434E+02 -0.24226745491E+02  0.11176017376E+03  0.00000000000E+00 0.  1.
        -13    1    3    3    0    0 -0.43274450013E+02 -0.31677582443E+02 -0.59053542383E+02  0.79771349001E+02  0.00000000000E+00 0. -1.
          4    1    6    6  502    0  0.42682296073E+01  0.29840708547E+03 -0.20512926742E+03  0.36213674599E+03  0.00000000000E+00 0. -1.
          1    1    5    5  503    0  0.11090680794E+03 -0.35177170145E+03 -0.61438975671E+02  0.37392298367E+03  0.00000000000E+00 0. -1.
         -2    1    5    5    0  503  0.20345432572E+02 -0.84346210915E+02 -0.57834986314E+02  0.10427418455E+03  0.00000000000E+00 0.  1.
         -3    1    6    6    0  502  0.10934066352E+02  0.13393039190E+03 -0.34711186116E+02  0.13878677935E+03  0.00000000000E+00 0.  1.
<mgrwt>
<rscale>  0 0.10838420E+04</rscale>
<asrwt>0</asrwt>
<pdfrwt beam="1">  1        1 0.12408053E+00 0.10838420E+04</pdfrwt>
<pdfrwt beam="2">  1       -1 0.56019809E-01 0.10838420E+04</pdfrwt>
<totfact> 0.70167415E+01</totfact>
</mgrwt>
</event>
<event>
12    1  0.1549527E-007  0.2145192E+04  0.7818608E-02  0.8541593E-01
         -2   -1    0    0    0  501 -0.00000000000E+00  0.00000000000E+00  0.78307802980E+03  0.78307802980E+03  0.00000000000E+00 0.  1.
          2   -1    0    0  501    0  0.00000000000E+00 -0.00000000000E+00 -0.14691538901E+04  0.14691538901E+04  0.00000000000E+00 0. -1.
         23    2    1    2    0    0 -0.34749028271E+03 -0.81088181457E+03 -0.28723717944E+03  0.93235645140E+03  0.92220070726E+02 0.  0.
        254    2    1    2    0    0  0.34749028271E+03  0.81088181457E+03 -0.39883868086E+03  0.13198754685E+04  0.89706195171E+03 0.  0.
        -24    2    4    4    0    0  0.14157748290E+02  0.78036460106E+03 -0.53476796395E+03  0.94946537337E+03  0.79613865141E+02 0.  0.
         24    2    4    4    0    0  0.33333253442E+03  0.30517213508E+02  0.13592928309E+03  0.37041009513E+03  0.81761786612E+02 0.  0.
         13    1    3    3    0    0 -0.11474958738E+03 -0.32433623910E+03 -0.71058171940E+02  0.35129863022E+03  0.00000000000E+00 0.  1.
        -13    1    3    3    0    0 -0.23274069533E+03 -0.48654557547E+03 -0.21617900750E+03  0.58105782118E+03  0.00000000000E+00 0. -1.
          2    1    6    6  502    0  0.11058336028E+03  0.16598226194E+02  0.87611358843E+02  0.14205608358E+03  0.00000000000E+00 0. -1.
          3    1    5    5  503    0  0.61014839628E+01  0.26310510333E+02 -0.37341329790E+02  0.46085203385E+02  0.00000000000E+00 0. -1.
         -4    1    5    5    0  503  0.80562643270E+01  0.75405409073E+03 -0.49742663416E+03  0.90338016998E+03  0.00000000000E+00 0.  1.
         -1    1    6    6    0  502  0.22274917414E+03  0.13918987314E+02  0.48317924251E+02  0.22835401155E+03  0.00000000000E+00 0.  1.
<mgrwt>
<rscale>  0 0.21451920E+04</rscale>
<asrwt>0</asrwt>
<pdfrwt beam="1">  1        2 0.22602367E+00 0.21451920E+04</pdfrwt>
<pdfrwt beam="2">  1       -2 0.12047354E+00 0.21451920E+04</pdfrwt>
<totfact> 0.63810223E+00</totfact>
</mgrwt>
</event>
<event>
12    1  0.1549527E-007  0.1551020E+04  0.7818608E-02  0.8851217E-01
         -2   -1    0    0    0  501 -0.00000000000E+00  0.00000000000E+00  0.60725897214E+03  0.60725897214E+03  0.00000000000E+00 0.  1.
          2   -1    0    0  501    0  0.00000000000E+00 -0.00000000000E+00 -0.99037769348E+03  0.99037769348E+03  0.00000000000E+00 0. -1.
         23    2    1    2    0    0 -0.28517514149E+03  0.52563529935E+02  0.29462499004E+03  0.42336807834E+03  0.91372090915E+02 0.  0.
        254    2    1    2    0    0  0.28517514149E+03 -0.52563529935E+02 -0.67774371138E+03  0.11742685873E+04  0.91404725849E+03 0.  0.
        -24    2    4    4    0    0 -0.19122218234E+02  0.39380532050E+03 -0.37413985384E+03  0.54931545758E+03  0.79489320137E+02 0.  0.
         24    2    4    4    0    0  0.30429735973E+03 -0.44636885044E+03 -0.30360385754E+03  0.62495312971E+03  0.80926375412E+02 0.  0.
         13    1    3    3    0    0 -0.44840477190E+02 -0.17822728712E+02  0.80609805508E+02  0.93948170804E+02  0.00000000000E+00 0. -1.
        -13    1    3    3    0    0 -0.24033466430E+03  0.70386258647E+02  0.21401518453E+03  0.32941990754E+03  0.00000000000E+00 0.  1.
          2    1    6    6  502    0  0.88075785394E+01 -0.49658036134E+02 -0.16800207918E+02  0.53157699146E+02  0.00000000000E+00 0. -1.
          1    1    5    5  503    0 -0.45875509780E+01 -0.61680282519E+00 -0.14953966038E+02  0.15653982559E+02  0.00000000000E+00 0. -1.
         -2    1    5    5    0  503 -0.14534667256E+02  0.39442212333E+03 -0.35918588780E+03  0.53366147502E+03  0.00000000000E+00 0.  1.
         -1    1    6    6    0  502  0.29548978119E+03 -0.39671081430E+03 -0.28680364962E+03  0.57179543056E+03  0.00000000000E+00 0.  1.
<mgrwt>
<rscale>  0 0.15510200E+04</rscale>
<asrwt>0</asrwt>
<pdfrwt beam="1">  1        2 0.15236580E+00 0.15510200E+04</pdfrwt>
<pdfrwt beam="2">  1       -2 0.93424458E-01 0.15510200E+04</pdfrwt>
<totfact> 0.23838735E+01</totfact>
</mgrwt>
</event>
<event>
12    1  0.1549527E-007  0.1552094E+04  0.7818608E-02  0.8850531E-01
          2   -1    0    0  501    0  0.00000000000E+00  0.00000000000E+00  0.63786051672E+03  0.63786051672E+03  0.00000000000E+00 0.  1.
         -2   -1    0    0    0  501 -0.00000000000E+00 -0.00000000000E+00 -0.94417069189E+03  0.94417069189E+03  0.00000000000E+00 0. -1.
         23    2    1    2    0    0  0.13505251184E+03  0.36233487727E+03 -0.43862332746E+03  0.59201799535E+03  0.92569645073E+02 0.  0.
        254    2    1    2    0    0 -0.13505251184E+03 -0.36233487727E+03  0.13231315230E+03  0.99001321326E+03  0.90171705535E+03 0.  0.
        -24    2    4    4    0    0 -0.90409495169E+02 -0.56552989312E+03  0.35305275426E+03  0.67711981661E+03  0.76466083487E+02 0.  0.
         24    2    4    4    0    0 -0.44643016671E+02  0.20319501585E+03 -0.22073960196E+03  0.31289339665E+03  0.76779504994E+02 0.  0.
         13    1    3    3    0    0  0.92491924548E+02  0.33327468056E+03 -0.38796578259E+03  0.51975399688E+03  0.00000000000E+00 0. -1.
        -13    1    3    3    0    0  0.42560587292E+02  0.29060196711E+02 -0.50657544869E+02  0.72263998476E+02  0.00000000000E+00 0.  1.
          2    1    6    6  502    0 -0.34780235071E+02  0.15143696141E+03 -0.20628680839E+03  0.25825774983E+03  0.00000000000E+00 0. -1.
          1    1    5    5  503    0 -0.64723117597E+02 -0.52785342929E+03  0.33166690870E+03  0.62675454772E+03  0.00000000000E+00 0. -1.
         -2    1    5    5    0  503 -0.25686377573E+02 -0.37676463831E+02  0.21385845556E+02  0.50365268884E+02  0.00000000000E+00 0.  1.
         -1    1    6    6    0  502 -0.98627816002E+01  0.51758054448E+02 -0.14452793568E+02  0.54635646817E+02  0.00000000000E+00 0.  1.
<mgrwt>
<rscale>  0 0.15520943E+04</rscale>
<asrwt>0</asrwt>
<pdfrwt beam="1">  1        2 0.98132387E-01 0.15520943E+04</pdfrwt>
<pdfrwt beam="2">  1       -2 0.14525703E+00 0.15520943E+04</pdfrwt>
<totfact> 0.14437724E+01</totfact>
</mgrwt>
</event>
<event>
12    1  0.1549527E-007  0.2972947E+04  0.7818608E-02  0.8251498E-01
         -2   -1    0    0    0  501 -0.00000000000E+00  0.00000000000E+00  0.72966704534E+03  0.72966704534E+03  0.00000000000E+00 0.  1.
          2   -1    0    0  501    0  0.00000000000E+00 -0.00000000000E+00 -0.30282351489E+04  0.30282351489E+04  0.00000000000E+00 0. -1.
         23    2    1    2    0    0 -0.95613364698E+03 -0.91921886657E+03 -0.13575241286E+04  0.19000377497E+04  0.90093367719E+02 0.  0.
        254    2    1    2    0    0  0.95613364698E+03  0.91921886657E+03 -0.94104397500E+03  0.18578644446E+04  0.89829931322E+03 0.  0.
        -24    2    4    4    0    0  0.40037773894E+03  0.60254014069E+03 -0.13012416829E+02  0.72798978068E+03  0.80267320830E+02 0.  0.
         24    2    4    4    0    0  0.55575590804E+03  0.31667872587E+03 -0.92803155817E+03  0.11298746639E+04  0.78893209457E+02 0.  0.
         11    1    3    3    0    0 -0.23908554653E+03 -0.23727937161E+03 -0.40181988836E+03  0.52433064133E+03  0.00000000000E+00 0.  1.
        -11    1    3    3    0    0 -0.71704810045E+03 -0.68193949495E+03 -0.95570424022E+03  0.13757071083E+04  0.00000000000E+00 0. -1.
          4    1    6    6  502    0  0.41880002807E+03  0.27268678939E+03 -0.69507266570E+03  0.85608268247E+03  0.00000000000E+00 0. -1.
          1    1    5    5  503    0  0.28369182486E+03  0.37854907499E+03  0.18825818505E+02  0.47342883849E+03  0.00000000000E+00 0. -1.
         -4    1    5    5    0  503  0.11668591408E+03  0.22399106570E+03 -0.31838235335E+02  0.25456094219E+03  0.00000000000E+00 0.  1.
         -1    1    6    6    0  502  0.13695587997E+03  0.43991936485E+02 -0.23295889248E+03  0.27379198147E+03  0.00000000000E+00 0.  1.
<mgrwt>
<rscale>  0 0.29729470E+04</rscale>
<asrwt>0</asrwt>
<pdfrwt beam="1">  1        2 0.46588233E+00 0.29729470E+04</pdfrwt>
<pdfrwt beam="2">  1       -2 0.11225647E+00 0.29729470E+04</pdfrwt>
<totfact> 0.89623899E-01</totfact>
</mgrwt>
</event>
<event>
12    1  0.1549527E-007  0.1221107E+04  0.7818608E-02  0.9094580E-01
         -2   -1    0    0    0  501 -0.00000000000E+00  0.00000000000E+00  0.11381667885E+03  0.11381667885E+03  0.00000000000E+00 0.  1.
          2   -1    0    0  501    0  0.00000000000E+00 -0.00000000000E+00 -0.32752276437E+04  0.32752276437E+04  0.00000000000E+00 0. -1.
         23    2    1    2    0    0  0.25333165685E+03  0.78917382968E+02 -0.82748749180E+03  0.87381180019E+03  0.91687683816E+02 0.  0.
        254    2    1    2    0    0 -0.25333165685E+03 -0.78917382968E+02 -0.23339234731E+04  0.25152325224E+04  0.89932807238E+03 0.  0.
        -24    2    4    4    0    0  0.25096408941E+03 -0.23993659382E+03 -0.13341451068E+04  0.13812129582E+04  0.85167639276E+02 0.  0.
         24    2    4    4    0    0 -0.50429574627E+03  0.16101921085E+03 -0.99977836628E+03  0.11340195642E+04  0.78754074334E+02 0.  0.
         13    1    3    3    0    0  0.11603722836E+03  0.45672816548E+01 -0.25111789132E+03  0.27666892447E+03  0.00000000000E+00 0. -1.
        -13    1    3    3    0    0  0.13729442849E+03  0.74350101313E+02 -0.57636960048E+03  0.59714287571E+03  0.00000000000E+00 0.  1.
          2    1    6    6  502    0 -0.24918767836E+02  0.13226337806E+02 -0.24818227061E+02  0.37574265085E+02  0.00000000000E+00 0. -1.
          3    1    5    5  503    0  0.75558767701E+02 -0.10604226523E+03 -0.62941645597E+03  0.64274346705E+03  0.00000000000E+00 0. -1.
         -4    1    5    5    0  503  0.17540532171E+03 -0.13389432859E+03 -0.70472865082E+03  0.73846949118E+03  0.00000000000E+00 0.  1.
         -3    1    6    6    0  502 -0.47937697843E+03  0.14779287304E+03 -0.97496013922E+03  0.10964452991E+04  0.00000000000E+00 0.  1.
<mgrwt>
<rscale>  0 0.12211069E+04</rscale>
<asrwt>0</asrwt>
<pdfrwt beam="1">  1        2 0.50388118E+00 0.12211069E+04</pdfrwt>
<pdfrwt beam="2">  1       -2 0.17510258E-01 0.12211069E+04</pdfrwt>
<totfact> 0.31324155E+01</totfact>
</mgrwt>
</event>
<event>
12    1  0.1549527E-007  0.1841301E+04  0.7818608E-02  0.8684639E-01
         -2   -1    0    0    0  501 -0.00000000000E+00  0.00000000000E+00  0.65767426786E+03  0.65767426786E+03  0.00000000000E+00 0.  1.
          2   -1    0    0  501    0  0.00000000000E+00 -0.00000000000E+00 -0.12887804394E+04  0.12887804394E+04  0.00000000000E+00 0. -1.
         23    2    1    2    0    0 -0.18812793423E+03  0.63381263060E+03  0.36888050445E+01  0.66725228652E+03  0.90007978763E+02 0.  0.
        254    2    1    2    0    0  0.18812793423E+03 -0.63381263060E+03 -0.63479497659E+03  0.12792024207E+04  0.89234724216E+03 0.  0.
        -24    2    4    4    0    0  0.45528194739E+03 -0.67724279093E+03 -0.40139377893E+03  0.91283852577E+03  0.78852767111E+02 0.  0.
         24    2    4    4    0    0 -0.26715401316E+03  0.43430160323E+02 -0.23340119766E+03  0.36636389498E+03  0.80553950245E+02 0.  0.
         13    1    3    3    0    0 -0.12519142514E+03  0.32365584966E+03 -0.33307820784E+02  0.34861929504E+03  0.00000000000E+00 0.  1.
        -13    1    3    3    0    0 -0.62936509090E+02  0.31015678094E+03  0.36996625828E+02  0.31863299149E+03  0.00000000000E+00 0. -1.
          2    1    6    6  502    0 -0.18990791949E+03  0.37588332721E+02 -0.20959724787E+03  0.28532246136E+03  0.00000000000E+00 0. -1.
          1    1    5    5  503    0  0.40986498535E+03 -0.61170427631E+03 -0.33442539787E+03  0.80870994467E+03  0.00000000000E+00 0. -1.
         -2    1    5    5    0  503  0.45416962037E+02 -0.65538514621E+02 -0.66968381062E+02  0.10412858110E+03  0.00000000000E+00 0.  1.
         -1    1    6    6    0  502 -0.77246093674E+02  0.58418276022E+01 -0.23803949791E+02  0.81041433620E+02  0.00000000000E+00 0.  1.
<mgrwt>
<rscale>  0 0.18413014E+04</rscale>
<asrwt>0</asrwt>
<pdfrwt beam="1">  1        2 0.19827391E+00 0.18413014E+04</pdfrwt>
<pdfrwt beam="2">  1       -2 0.10118066E+00 0.18413014E+04</pdfrwt>
<totfact> 0.12687132E+01</totfact>
</mgrwt>
</event>
<event>
12    1  0.1549527E-007  0.1702541E+04  0.7818608E-02  0.8759916E-01
         -2   -1    0    0    0  501 -0.00000000000E+00  0.00000000000E+00  0.69610248419E+03  0.69610248419E+03  0.00000000000E+00 0.  1.
          2   -1    0    0  501    0  0.00000000000E+00 -0.00000000000E+00 -0.10410273264E+04  0.10410273264E+04  0.00000000000E+00 0. -1.
         23    2    1    2    0    0 -0.55540330164E+02  0.26142349469E+02  0.49276031674E+03  0.50730762498E+03  0.10382748144E+03 0.  0.
        254    2    1    2    0    0  0.55540330164E+02 -0.26142349469E+02 -0.83768515896E+03  0.12298221856E+04  0.89831956007E+03 0.  0.
        -24    2    4    4    0    0  0.14629902582E+02 -0.18885060144E+02 -0.10217463076E+04  0.10246401728E+04  0.73152492820E+02 0.  0.
         24    2    4    4    0    0  0.40910427582E+02 -0.72572893250E+01  0.18406114860E+03  0.20518201280E+03  0.80590449924E+02 0.  0.
         11    1    3    3    0    0 -0.53877763594E+01 -0.27377757978E+02  0.29615263618E+03  0.29746420571E+03  0.00000000000E+00 0.  1.
        -11    1    3    3    0    0 -0.50152553805E+02  0.53520107447E+02  0.19660768056E+03  0.20984341927E+03  0.00000000000E+00 0. -1.
          2    1    6    6  502    0  0.67357049772E+01 -0.18503820808E+02  0.22205809620E+01  0.19816459973E+02  0.00000000000E+00 0. -1.
          1    1    5    5  503    0  0.24722191880E+02  0.23042554165E+02 -0.43395931725E+03  0.43527328783E+03  0.00000000000E+00 0. -1.
         -2    1    5    5    0  503 -0.10092289298E+02 -0.41927614309E+02 -0.58778699031E+03  0.58936688499E+03  0.00000000000E+00 0.  1.
         -1    1    6    6    0  502  0.34174722605E+02  0.11246531483E+02  0.18184056764E+03  0.18536555283E+03  0.00000000000E+00 0.  1.
<mgrwt>
<rscale>  0 0.17025413E+04</rscale>
<asrwt>0</asrwt>
<pdfrwt beam="1">  1        2 0.16015805E+00 0.17025413E+04</pdfrwt>
<pdfrwt beam="2">  1       -2 0.10709269E+00 0.17025413E+04</pdfrwt>
<totfact> 0.15818034E+01</totfact>
</mgrwt>
</event>
<event>
12    1  0.1549527E-007  0.1239246E+04  0.7818608E-02  0.9079182E-01
         -1   -1    0    0    0  501 -0.00000000000E+00  0.00000000000E+00  0.89070779871E+03  0.89070779871E+03  0.00000000000E+00 0.  1.
          1   -1    0    0  501    0  0.00000000000E+00 -0.00000000000E+00 -0.43104219466E+03  0.43104219466E+03  0.00000000000E+00 0. -1.
         23    2    1    2    0    0 -0.46400191249E+02 -0.66815799342E+02  0.40533991718E+03  0.42265144610E+03  0.87843426873E+02 0.  0.
        254    2    1    2    0    0  0.46400191249E+02  0.66815799342E+02  0.54325686871E+02  0.89909854727E+03  0.89376148309E+03 0.  0.
        -24    2    4    4    0    0  0.35835724200E+03 -0.25000390422E+03  0.51061686861E+02  0.44700460892E+03  0.79271429319E+02 0.  0.
         24    2    4    4    0    0 -0.31195705075E+03  0.31681970356E+03  0.32640000107E+01  0.45209393836E+03  0.81770100420E+02 0.  0.
         11    1    3    3    0    0 -0.13147870054E+02 -0.95655446585E+01  0.51990182240E+01  0.17070322846E+02  0.00000000000E+00 0. -1.
        -11    1    3    3    0    0 -0.33252321195E+02 -0.57250254683E+02  0.40014089895E+03  0.40558112326E+03  0.00000000000E+00 0.  1.
          2    1    6    6  502    0 -0.31505232491E+03  0.30025762819E+03  0.23835081298E+01  0.43522211780E+03  0.00000000000E+00 0. -1.
          3    1    5    5  503    0  0.23567446615E+03 -0.12503756523E+03  0.52352840313E+02  0.27187803626E+03  0.00000000000E+00 0. -1.
         -4    1    5    5    0  503  0.12268277585E+03 -0.12496633899E+03 -0.12911534522E+01  0.17512657265E+03  0.00000000000E+00 0.  1.
         -1    1    6    6    0  502  0.30952741537E+01  0.16562075378E+02  0.88049188083E+00  0.16871820555E+02  0.00000000000E+00 0.  1.
<mgrwt>
<rscale>  0 0.12392460E+04</rscale>
<asrwt>0</asrwt>
<pdfrwt beam="1">  1        1 0.66314184E-01 0.12392460E+04</pdfrwt>
<pdfrwt beam="2">  1       -1 0.13703197E+00 0.12392460E+04</pdfrwt>
<totfact> 0.23746604E+01</totfact>
</mgrwt>
</event>
<event>
12    1  0.1549527E-007  0.2950244E+04  0.7818608E-02  0.8258083E-01
          2   -1    0    0  501    0  0.00000000000E+00  0.00000000000E+00  0.27313802182E+04  0.27313802182E+04  0.00000000000E+00 0. -1.
         -2   -1    0    0    0  501 -0.00000000000E+00 -0.00000000000E+00 -0.79666132040E+03  0.79666132040E+03  0.00000000000E+00 0.  1.
         23    2    1    2    0    0  0.52601583331E+03 -0.20839341425E+03  0.23336050384E+04  0.24029523019E+04  0.91360922299E+02 0.  0.
        254    2    1    2    0    0 -0.52601583331E+03  0.20839341425E+03 -0.39888614059E+03  0.11250892367E+04  0.88690200437E+03 0.  0.
        -24    2    4    4    0    0  0.10425904595E+03 -0.17066401472E+03 -0.31332436730E+03  0.38010232011E+03  0.79432109538E+02 0.  0.
         24    2    4    4    0    0 -0.63027487926E+03  0.37905742897E+03 -0.85561773292E+02  0.74498691658E+03  0.82181086289E+02 0.  0.
         13    1    3    3    0    0  0.19150076506E+03 -0.39501649044E+02  0.91756689291E+03  0.93816945498E+03  0.00000000000E+00 0.  1.
        -13    1    3    3    0    0  0.33451506825E+03 -0.16889176520E+03  0.14160381455E+04  0.14647828470E+04  0.00000000000E+00 0. -1.
          4    1    6    6  502    0 -0.24494483970E+03  0.13881787522E+03  0.66841078222E+01  0.28162573440E+03  0.00000000000E+00 0. -1.
          1    1    5    5  503    0  0.25801918055E+02 -0.11701952748E+03 -0.16449236533E+03  0.20351178600E+03  0.00000000000E+00 0. -1.
         -2    1    5    5    0  503  0.78457127890E+02 -0.53644487243E+02 -0.14883200197E+03  0.17659053411E+03  0.00000000000E+00 0.  1.
         -3    1    6    6    0  502 -0.38533003955E+03  0.24023955375E+03 -0.92245881114E+02  0.46336118218E+03  0.00000000000E+00 0.  1.
<mgrwt>
<rscale>  0 0.29502440E+04</rscale>
<asrwt>0</asrwt>
<pdfrwt beam="1">  1        2 0.42021234E+00 0.29502440E+04</pdfrwt>
<pdfrwt beam="2">  1       -2 0.12256328E+00 0.29502440E+04</pdfrwt>
<totfact> 0.11007347E+00</totfact>
</mgrwt>
</event>
<event>
12    1  0.1549527E-007  0.3412091E+04  0.7818608E-02  0.8134945E-01
          1   -1    0    0  501    0  0.00000000000E+00  0.00000000000E+00  0.20508535381E+04  0.20508535381E+04  0.00000000000E+00 0. -1.
         -1   -1    0    0    0  501 -0.00000000000E+00 -0.00000000000E+00 -0.14192100023E+04  0.14192100023E+04  0.00000000000E+00 0.  1.
         23    2    1    2    0    0  0.68078903376E+03  0.13360381936E+04  0.82374918537E+03  0.17132063731E+04  0.89674930182E+02 0.  0.
        254    2    1    2    0    0 -0.68078903376E+03 -0.13360381936E+04 -0.19210564959E+03  0.17568571674E+04  0.89508142799E+03 0.  0.
        -24    2    4    4    0    0  0.18971745964E+03 -0.18883112480E+03  0.74451252027E+02  0.29047881098E+03  0.84764630103E+02 0.  0.
         24    2    4    4    0    0 -0.87050649340E+03 -0.11472070688E+04 -0.26655690161E+03  0.14663783564E+04  0.73125156844E+02 0.  0.
         13    1    3    3    0    0  0.25013618604E+02  0.82366119788E+02  0.64232002530E+02  0.10740395223E+03  0.00000000000E+00 0.  1.
        -13    1    3    3    0    0  0.65577541516E+03  0.12536720738E+04  0.75951718284E+03  0.16058024208E+04  0.00000000000E+00 0. -1.
          4    1    6    6  502    0 -0.26525510932E+03 -0.40668319898E+03 -0.88319875142E+02  0.49350977468E+03  0.00000000000E+00 0. -1.
          1    1    5    5  503    0  0.85144237203E+01  0.90402934769E+01  0.21569728303E+01  0.12604556685E+02  0.00000000000E+00 0. -1.
         -2    1    5    5    0  503  0.18120303592E+03 -0.19787141827E+03  0.72294279196E+02  0.27787425429E+03  0.00000000000E+00 0.  1.
         -3    1    6    6    0  502 -0.60525138408E+03 -0.74052386980E+03 -0.17823702647E+03  0.97286858171E+03  0.00000000000E+00 0.  1.
<mgrwt>
<rscale>  0 0.34120914E+04</rscale>
<asrwt>0</asrwt>
<pdfrwt beam="1">  1        1 0.31551593E+00 0.34120914E+04</pdfrwt>
<pdfrwt beam="2">  1       -1 0.21834000E+00 0.34120914E+04</pdfrwt>
<totfact> 0.25541425E-01</totfact>
</mgrwt>
</event>
<event>
12    1  0.1549527E-007  0.1538226E+04  0.7818608E-02  0.8859423E-01
         -2   -1    0    0    0  501 -0.00000000000E+00  0.00000000000E+00  0.81055280090E+03  0.81055280090E+03  0.00000000000E+00 0.  1.
          2   -1    0    0  501    0  0.00000000000E+00 -0.00000000000E+00 -0.72979207666E+03  0.72979207666E+03  0.00000000000E+00 0. -1.
         23    2    1    2    0    0  0.40541649342E+03  0.26965086057E+03 -0.11761303867E+03  0.50932413898E+03  0.92217850436E+02 0.  0.
        254    2    1    2    0    0 -0.40541649342E+03 -0.26965086057E+03  0.19837376291E+03  0.10310207386E+04  0.88689204181E+03 0.  0.
        -24    2    4    4    0    0 -0.39836556815E+03 -0.38749243623E+03  0.46304317865E+03  0.72771381490E+03  0.79453741795E+02 0.  0.
         24    2    4    4    0    0 -0.70509252668E+01  0.11784157566E+03 -0.26466941573E+03  0.30330692367E+03  0.89492110392E+02 0.  0.
         13    1    3    3    0    0  0.12041359092E+03  0.83039037164E+02 -0.79657993903E+02  0.16655422709E+03  0.00000000000E+00 0. -1.
        -13    1    3    3    0    0  0.28500290250E+03  0.18661182341E+03 -0.37955044768E+02  0.34276991189E+03  0.00000000000E+00 0.  1.
          4    1    6    6  502    0 -0.38343727929E+02  0.10517878359E+03 -0.17779805217E+03  0.21010703307E+03  0.00000000000E+00 0. -1.
          3    1    5    5  503    0 -0.31057565486E+03 -0.34018949080E+03  0.39696898712E+03  0.60808757903E+03  0.00000000000E+00 0. -1.
         -4    1    5    5    0  503 -0.87789913291E+02 -0.47302945435E+02  0.66074191526E+02  0.11962623587E+03  0.00000000000E+00 0.  1.
         -3    1    6    6    0  502  0.31292802663E+02  0.12662792067E+02 -0.86871363563E+02  0.93199890604E+02  0.00000000000E+00 0.  1.
<mgrwt>
<rscale>  0 0.15382263E+04</rscale>
<asrwt>0</asrwt>
<pdfrwt beam="1">  1        2 0.11227570E+00 0.15382263E+04</pdfrwt>
<pdfrwt beam="2">  1       -2 0.12470043E+00 0.15382263E+04</pdfrwt>
<totfact> 0.18050998E+01</totfact>
</mgrwt>
</event>
<event>
12    1  0.1549527E-007  0.1686349E+04  0.7818608E-02  0.8769188E-01
          2   -1    0    0  501    0  0.00000000000E+00  0.00000000000E+00  0.12257972618E+04  0.12257972618E+04  0.00000000000E+00 0. -1.
         -2   -1    0    0    0  501 -0.00000000000E+00 -0.00000000000E+00 -0.57998469808E+03  0.57998469808E+03  0.00000000000E+00 0.  1.
         23    2    1    2    0    0 -0.47047523380E+02  0.12004265425E+03 -0.39548673187E+03  0.42428679185E+03  0.83581208182E+02 0.  0.
        254    2    1    2    0    0  0.47047523380E+02 -0.12004265425E+03  0.10412992956E+04  0.13814951680E+04  0.89866621611E+03 0.  0.
        -24    2    4    4    0    0  0.15927066174E+03  0.17157409955E+03  0.10303351935E+04  0.10595785723E+04  0.79443845117E+02 0.  0.
         24    2    4    4    0    0 -0.11222313836E+03 -0.29161675380E+03  0.10964102064E+02  0.32191659573E+03  0.76653239919E+02 0.  0.
         13    1    3    3    0    0 -0.29068813561E+02  0.12757109500E+03 -0.36817738444E+03  0.39073516173E+03  0.00000000000E+00 0.  1.
        -13    1    3    3    0    0 -0.17978709819E+02 -0.75284407458E+01 -0.27309347427E+02  0.33551630120E+02  0.00000000000E+00 0. -1.
          2    1    6    6  502    0 -0.12052861741E+03 -0.25554030926E+03 -0.24270759310E+01  0.28254891252E+03  0.00000000000E+00 0. -1.
          1    1    5    5  503    0  0.79419947763E+02  0.34464976126E+02  0.43006134662E+03  0.43868909781E+03  0.00000000000E+00 0. -1.
         -2    1    5    5    0  503  0.79850713980E+02  0.13710912342E+03  0.60027384689E+03  0.62088947447E+03  0.00000000000E+00 0.  1.
         -1    1    6    6    0  502  0.83054790436E+01 -0.36076444541E+02  0.13391177995E+02  0.39367683205E+02  0.00000000000E+00 0.  1.
<mgrwt>
<rscale>  0 0.16863495E+04</rscale>
<asrwt>0</asrwt>
<pdfrwt beam="1">  1        2 0.18858419E+00 0.16863495E+04</pdfrwt>
<pdfrwt beam="2">  1       -2 0.89228415E-01 0.16863495E+04</pdfrwt>
<totfact> 0.18775676E+01</totfact>
</mgrwt>
</event>
<event>
12    1  0.1549527E-007  0.1430303E+04  0.7818608E-02  0.8932171E-01
         -1   -1    0    0    0  501 -0.00000000000E+00  0.00000000000E+00  0.37367461721E+03  0.37367461721E+03  0.00000000000E+00 0.  1.
          1   -1    0    0  501    0  0.00000000000E+00 -0.00000000000E+00 -0.13686812390E+04  0.13686812390E+04  0.00000000000E+00 0. -1.
         23    2    1    2    0    0 -0.29031330274E+03  0.28187453334E+03 -0.13457510957E+03  0.43625251372E+03  0.92036565124E+02 0.  0.
        254    2    1    2    0    0  0.29031330274E+03 -0.28187453334E+03 -0.86043151225E+03  0.13061033425E+04  0.89544876334E+03 0.  0.
        -24    2    4    4    0    0  0.19644003209E+03 -0.31726313803E+03  0.51796692068E+02  0.38485920538E+03  0.78670996540E+02 0.  0.
         24    2    4    4    0    0  0.93873270651E+02  0.35388604696E+02 -0.91222820432E+03  0.92124413714E+03  0.80410939382E+02 0.  0.
         11    1    3    3    0    0 -0.23680687132E+01  0.30894193409E+02  0.81208469945E+00  0.30995458012E+02  0.00000000000E+00 0. -1.
        -11    1    3    3    0    0 -0.28794523403E+03  0.25098033993E+03 -0.13538719427E+03  0.40525705571E+03  0.00000000000E+00 0.  1.
          4    1    6    6  502    0  0.55155727057E+02  0.57635160479E+01 -0.20595876834E+03  0.21329413166E+03  0.00000000000E+00 0. -1.
          1    1    5    5  503    0  0.23964401076E+02 -0.54850042565E+01 -0.13048461868E+01  0.24618700498E+02  0.00000000000E+00 0. -1.
         -2    1    5    5    0  503  0.17247563101E+03 -0.31177813378E+03  0.53101538255E+02  0.36024050488E+03  0.00000000000E+00 0.  1.
         -3    1    6    6    0  502  0.38717543594E+02  0.29625088648E+02 -0.70626943598E+03  0.70795000547E+03  0.00000000000E+00 0.  1.
<mgrwt>
<rscale>  0 0.14303027E+04</rscale>
<asrwt>0</asrwt>
<pdfrwt beam="1">  1        1 0.21056634E+00 0.14303027E+04</pdfrwt>
<pdfrwt beam="2">  1       -1 0.57488403E-01 0.14303027E+04</pdfrwt>
<totfact> 0.24094845E+01</totfact>
</mgrwt>
</event>
<event>
12    1  0.1549527E-007  0.2040192E+04  0.7818608E-02  0.8588057E-01
         -2   -1    0    0    0  501 -0.00000000000E+00  0.00000000000E+00  0.48662011116E+03  0.48662011116E+03  0.00000000000E+00 0. -1.
          2   -1    0    0  501    0  0.00000000000E+00 -0.00000000000E+00 -0.21384148229E+04  0.21384148229E+04  0.00000000000E+00 0.  1.
         23    2    1    2    0    0 -0.26071577899E+03 -0.17742439230E+03 -0.16305994683E+04  0.16633411743E+04  0.91635712222E+02 0.  0.
        254    2    1    2    0    0  0.26071577899E+03  0.17742439230E+03 -0.21195243469E+02  0.96169375978E+03  0.90826951774E+03 0.  0.
        -24    2    4    4    0    0  0.55111130998E+03  0.30319359070E+03  0.11018013167E+02  0.63396686973E+03  0.78374523056E+02 0.  0.
         24    2    4    4    0    0 -0.29039553100E+03 -0.12576919840E+03 -0.32213256636E+02  0.32772689005E+03  0.78865485923E+02 0.  0.
         13    1    3    3    0    0 -0.81072940098E+02 -0.81984842685E+02 -0.40987927261E+03  0.42578792158E+03  0.00000000000E+00 0.  1.
        -13    1    3    3    0    0 -0.17964283889E+03 -0.95439549617E+02 -0.12207201957E+04  0.12375532527E+04  0.00000000000E+00 0. -1.
          4    1    6    6  502    0 -0.74065218185E+02 -0.27837312865E+01  0.11702628623E+02  0.75035706309E+02  0.00000000000E+00 0. -1.
          1    1    5    5  503    0  0.20118681143E+03  0.15097117575E+03  0.19352353151E+02  0.25227552908E+03  0.00000000000E+00 0. -1.
         -2    1    5    5    0  503  0.34992449855E+03  0.15222241495E+03 -0.83343399840E+01  0.38169134064E+03  0.00000000000E+00 0.  1.
         -3    1    6    6    0  502 -0.21633031281E+03 -0.12298546711E+03 -0.43915885259E+02  0.25269118374E+03  0.00000000000E+00 0.  1.
<mgrwt>
<rscale>  0 0.20401918E+04</rscale>
<asrwt>0</asrwt>
<pdfrwt beam="1">  1        2 0.32898689E+00 0.20401918E+04</pdfrwt>
<pdfrwt beam="2">  1       -2 0.74864633E-01 0.20401918E+04</pdfrwt>
<totfact> 0.83017045E+00</totfact>
</mgrwt>
</event>
<event>
12    1  0.1549527E-007  0.1416555E+04  0.7818608E-02  0.8941922E-01
          2   -1    0    0  501    0  0.00000000000E+00  0.00000000000E+00  0.98217231375E+03  0.98217231375E+03  0.00000000000E+00 0. -1.
         -2   -1    0    0    0  501 -0.00000000000E+00 -0.00000000000E+00 -0.51076249021E+03  0.51076249021E+03  0.00000000000E+00 0.  1.
         23    2    1    2    0    0 -0.20342778982E+03  0.34080661931E+03  0.16488151879E+02  0.40837834635E+03  0.94704789631E+02 0.  0.
        254    2    1    2    0    0  0.20342778982E+03 -0.34080661931E+03  0.45492167166E+03  0.10845564576E+04  0.90098666192E+03 0.  0.
        -24    2    4    4    0    0  0.48483124577E+03 -0.40903433834E+03  0.15024066160E+03  0.65671996375E+03  0.79614242257E+02 0.  0.
         24    2    4    4    0    0 -0.28140345595E+03  0.68227719028E+02  0.30468101006E+03  0.42783649386E+03  0.79816169540E+02 0.  0.
         13    1    3    3    0    0 -0.16992667813E+02  0.10989312589E+03  0.12498061380E+01  0.11120616841E+03  0.00000000000E+00 0. -1.
        -13    1    3    3    0    0 -0.18643512200E+03  0.23091349342E+03  0.15238345741E+02  0.29717217794E+03  0.00000000000E+00 0.  1.
          2    1    6    6  502    0 -0.21975295764E+03  0.54003582558E+02  0.27978707810E+03  0.35984518670E+03  0.00000000000E+00 0. -1.
          1    1    5    5  503    0  0.42815590920E+03 -0.34960259032E+03  0.10393955233E+03  0.56244367209E+03  0.00000000000E+00 0. -1.
         -2    1    5    5    0  503  0.56675336574E+02 -0.59431748022E+02  0.46301109272E+02  0.94276291657E+02  0.00000000000E+00 0.  1.
         -1    1    6    6    0  502 -0.61650498313E+02  0.14224136470E+02  0.24893931962E+02  0.67991307158E+02  0.00000000000E+00 0.  1.
<mgrwt>
<rscale>  0 0.14165547E+04</rscale>
<asrwt>0</asrwt>
<pdfrwt beam="1">  1        2 0.15110343E+00 0.14165547E+04</pdfrwt>
<pdfrwt beam="2">  1       -2 0.78578845E-01 0.14165547E+04</pdfrwt>
<totfact> 0.36196149E+01</totfact>
</mgrwt>
</event>
<event>
12    1  0.1549527E-007  0.1631886E+04  0.7818608E-02  0.8801195E-01
         -2   -1    0    0    0  501 -0.00000000000E+00  0.00000000000E+00  0.29288636060E+03  0.29288636060E+03  0.00000000000E+00 0.  1.
          2   -1    0    0  501    0  0.00000000000E+00 -0.00000000000E+00 -0.22731109801E+04  0.22731109801E+04  0.00000000000E+00 0. -1.
         23    2    1    2    0    0  0.55428501294E+03 -0.14970691856E+03 -0.46922702439E+03  0.74563626576E+03  0.78456378779E+02 0.  0.
        254    2    1    2    0    0 -0.55428501294E+03  0.14970691856E+03 -0.15109975951E+04  0.18203610749E+04  0.83723155320E+03 0.  0.
        -24    2    4    4    0    0 -0.93208014653E+02 -0.32530622853E+03 -0.49365950616E+03  0.60377337922E+03  0.79565753410E+02 0.  0.
         24    2    4    4    0    0 -0.46107699829E+03  0.47501314709E+03 -0.10173380889E+04  0.12165876957E+04  0.82941822228E+02 0.  0.
         11    1    3    3    0    0  0.52183229513E+03 -0.13439327847E+03 -0.41296185422E+03  0.67890204786E+03  0.00000000000E+00 0.  1.
        -11    1    3    3    0    0  0.32452717809E+02 -0.15313640082E+02 -0.56265170167E+02  0.66734217907E+02  0.00000000000E+00 0. -1.
          2    1    6    6  502    0 -0.25686908664E+02  0.46604612312E+01 -0.44556787402E+02  0.51641499583E+02  0.00000000000E+00 0. -1.
          3    1    5    5  503    0  0.92346106209E+01 -0.70879328028E+02 -0.78213542571E+02  0.10595525195E+03  0.00000000000E+00 0. -1.
         -4    1    5    5    0  503 -0.10244262527E+03 -0.25442690051E+03 -0.41544596359E+03  0.49781812727E+03  0.00000000000E+00 0.  1.
         -1    1    6    6    0  502 -0.43539008962E+03  0.47035268586E+03 -0.97278130154E+03  0.11649461961E+04  0.00000000000E+00 0.  1.
<mgrwt>
<rscale>  0 0.16318863E+04</rscale>
<asrwt>0</asrwt>
<pdfrwt beam="1">  1        2 0.34970938E+00 0.16318863E+04</pdfrwt>
<pdfrwt beam="2">  1       -2 0.45059441E-01 0.16318863E+04</pdfrwt>
<totfact> 0.20999960E+01</totfact>
</mgrwt>
</event>
<event>
12    1  0.1549527E-007  0.1906975E+04  0.7818608E-02  0.8651392E-01
         -2   -1    0    0    0  501 -0.00000000000E+00  0.00000000000E+00  0.24259939681E+03  0.24259939681E+03  0.00000000000E+00 0.  1.
          2   -1    0    0  501    0  0.00000000000E+00 -0.00000000000E+00 -0.37474867177E+04  0.37474867177E+04  0.00000000000E+00 0. -1.
         23    2    1    2    0    0  0.22254464685E+03  0.22565738566E+03 -0.27952526734E+04  0.28146594637E+04  0.91776975422E+02 0.  0.
        254    2    1    2    0    0 -0.22254464685E+03 -0.22565738566E+03 -0.70963464752E+03  0.11754266508E+04  0.88181579871E+03 0.  0.
        -24    2    4    4    0    0 -0.51857111653E+03 -0.23798816591E+03 -0.26132177292E+03  0.63272538603E+03  0.80610018669E+02 0.  0.
         24    2    4    4    0    0  0.29602646968E+03  0.12330780253E+02 -0.44831287460E+03  0.54270126475E+03  0.75871670167E+02 0.  0.
         11    1    3    3    0    0  0.85041291274E+02  0.10881541454E+03 -0.86064971567E+03  0.87165976662E+03  0.00000000000E+00 0. -1.
        -11    1    3    3    0    0  0.13750335558E+03  0.11684197112E+03 -0.19346029577E+04  0.19429996971E+04  0.00000000000E+00 0.  1.
          2    1    6    6  502    0  0.15805538099E+03  0.16270016807E+02 -0.30392580032E+03  0.34295350852E+03  0.00000000000E+00 0. -1.
          1    1    5    5  503    0 -0.20052152264E+03 -0.70786111483E+02 -0.13482227737E+03  0.25178681677E+03  0.00000000000E+00 0. -1.
         -2    1    5    5    0  503 -0.31804959389E+03 -0.16720205443E+03 -0.12649949555E+03  0.38093856926E+03  0.00000000000E+00 0.  1.
         -1    1    6    6    0  502  0.13797108869E+03 -0.39392365549E+01 -0.14438707429E+03  0.19974775623E+03  0.00000000000E+00 0.  1.
<mgrwt>
<rscale>  0 0.19069746E+04</rscale>
<asrwt>0</asrwt>
<pdfrwt beam="1">  1        2 0.57653641E+00 0.19069746E+04</pdfrwt>
<pdfrwt beam="2">  1       -2 0.37322985E-01 0.19069746E+04</pdfrwt>
<totfact> 0.34410048E+00</totfact>
</mgrwt>
</event>
<event>
12    1  0.1549527E-007  0.1290810E+04  0.7818608E-02  0.9036885E-01
         -2   -1    0    0    0  501 -0.00000000000E+00  0.00000000000E+00  0.33821825494E+03  0.33821825494E+03  0.00000000000E+00 0.  1.
          2   -1    0    0  501    0  0.00000000000E+00 -0.00000000000E+00 -0.12315940455E+04  0.12315940455E+04  0.00000000000E+00 0. -1.
         23    2    1    2    0    0  0.26220159722E+03  0.45621411073E+02 -0.43814976356E+03  0.52112310936E+03  0.93611372531E+02 0.  0.
        254    2    1    2    0    0 -0.26220159722E+03 -0.45621411073E+02 -0.45522602701E+03  0.10486891911E+04  0.90646968681E+03 0.  0.
        -24    2    4    4    0    0 -0.24038895326E+03 -0.45044299396E+03 -0.34382473972E+03  0.62092629160E+03  0.81536913762E+02 0.  0.
         24    2    4    4    0    0 -0.21812643961E+02  0.40482158289E+03 -0.11140128729E+03  0.42776289949E+03  0.78832391574E+02 0.  0.
         13    1    3    3    0    0  0.75358694072E+02  0.52363304327E+02 -0.18397488904E+03  0.20559087580E+03  0.00000000000E+00 0.  1.
        -13    1    3    3    0    0  0.18684290315E+03 -0.67418932536E+01 -0.25417487452E+03  0.31553223356E+03  0.00000000000E+00 0. -1.
          2    1    6    6  502    0  0.24860376990E+02  0.23101094389E+03 -0.50499795061E+02  0.23776947626E+03  0.00000000000E+00 0. -1.
          3    1    5    5  503    0 -0.11431849932E+03 -0.13488787221E+03 -0.12966143436E+03  0.21926136211E+03  0.00000000000E+00 0. -1.
         -4    1    5    5    0  503 -0.12607045394E+03 -0.31555512175E+03 -0.21416330535E+03  0.40166492949E+03  0.00000000000E+00 0.  1.
         -1    1    6    6    0  502 -0.46673020952E+02  0.17381063900E+03 -0.60901492232E+02  0.18999342323E+03  0.00000000000E+00 0.  1.
<mgrwt>
<rscale>  0 0.12908100E+04</rscale>
<asrwt>0</asrwt>
<pdfrwt beam="1">  1        2 0.18947601E+00 0.12908100E+04</pdfrwt>
<pdfrwt beam="2">  1       -2 0.52033577E-01 0.12908100E+04</pdfrwt>
<totfact> 0.62019235E+01</totfact>
</mgrwt>
</event>
<event>
12    1  0.1549527E-007  0.2969887E+04  0.7818608E-02  0.8252382E-01
         -2   -1    0    0    0  501 -0.00000000000E+00  0.00000000000E+00  0.15215820141E+04  0.15215820141E+04  0.00000000000E+00 0.  1.
          2   -1    0    0  501    0  0.00000000000E+00 -0.00000000000E+00 -0.14491875133E+04  0.14491875133E+04  0.00000000000E+00 0. -1.
         23    2    1    2    0    0 -0.88761920265E+03 -0.44364181095E+03  0.94703006776E+03  0.13748270226E+04  0.92722636940E+02 0.  0.
        254    2    1    2    0    0  0.88761920265E+03  0.44364181095E+03 -0.87463556700E+03  0.15959425048E+04  0.89294971772E+03 0.  0.
        -24    2    4    4    0    0  0.13820734891E+03  0.31546849503E+03 -0.74016169745E+03  0.82033423515E+03  0.80543630072E+02 0.  0.
         24    2    4    4    0    0  0.74941185374E+03  0.12817331592E+03 -0.13447386956E+03  0.77560826969E+03  0.73745786235E+02 0.  0.
         11    1    3    3    0    0 -0.62949922951E+03 -0.28217420342E+03  0.61292168091E+03  0.92280255090E+03  0.00000000000E+00 0. -1.
        -11    1    3    3    0    0 -0.25811997313E+03 -0.16146760754E+03  0.33410838685E+03  0.45202447166E+03  0.00000000000E+00 0.  1.
          2    1    6    6  502    0  0.58420199735E+03  0.78869214824E+02 -0.12705729306E+03  0.60303887310E+03  0.00000000000E+00 0. -1.
          1    1    5    5  503    0  0.86025123330E+02  0.10113757094E+03 -0.29572688991E+03  0.32416588888E+03  0.00000000000E+00 0. -1.
         -2    1    5    5    0  503  0.52182225578E+02  0.21433092410E+03 -0.44443480754E+03  0.49616834627E+03  0.00000000000E+00 0.  1.
         -1    1    6    6    0  502  0.16520985639E+03  0.49304101097E+02 -0.74165764976E+01  0.17256939659E+03  0.00000000000E+00 0.  1.
<mgrwt>
<rscale>  0 0.29698873E+04</rscale>
<asrwt>0</asrwt>
<pdfrwt beam="1">  1        2 0.22295192E+00 0.29698873E+04</pdfrwt>
<pdfrwt beam="2">  1       -2 0.23408954E+00 0.29698873E+04</pdfrwt>
<totfact> 0.93839240E-01</totfact>
</mgrwt>
</event>
<event>
12    1  0.1549527E-007  0.1441922E+04  0.7818608E-02  0.8924020E-01
         -1   -1    0    0    0  501 -0.00000000000E+00  0.00000000000E+00  0.14812818320E+04  0.14812818320E+04  0.00000000000E+00 0.  1.
          1   -1    0    0  501    0  0.00000000000E+00 -0.00000000000E+00 -0.35090191619E+03  0.35090191619E+03  0.00000000000E+00 0. -1.
         23    2    1    2    0    0  0.19918102956E+03  0.40506612080E+02 -0.14066308542E+03  0.26346037297E+03  0.91166860018E+02 0.  0.
        254    2    1    2    0    0 -0.19918102956E+03 -0.40506612080E+02  0.12710430012E+04  0.15687233752E+04  0.89667655754E+03 0.  0.
        -24    2    4    4    0    0  0.21511476214E+03 -0.21973658517E+03  0.13875987964E+03  0.34705932741E+03  0.81469901154E+02 0.  0.
         24    2    4    4    0    0 -0.41429579170E+03  0.17922997309E+03  0.11322831216E+04  0.12216640478E+04  0.81446866175E+02 0.  0.
         11    1    3    3    0    0  0.64316878838E+02  0.13570989972E+02  0.13809068773E+01  0.65747544259E+02  0.00000000000E+00 0. -1.
        -11    1    3    3    0    0  0.13486415072E+03  0.26935622108E+02 -0.14204399230E+03  0.19771282871E+03  0.00000000000E+00 0.  1.
          4    1    6    6  502    0 -0.18402795349E+03  0.12027398208E+03  0.58737032668E+03  0.62716506527E+03  0.00000000000E+00 0. -1.
          1    1    5    5  503    0  0.56029873726E+02 -0.11207951817E+03  0.43438352117E+02  0.13261996674E+03  0.00000000000E+00 0. -1.
         -2    1    5    5    0  503  0.15908488841E+03 -0.10765706700E+03  0.95321527526E+02  0.21443936067E+03  0.00000000000E+00 0.  1.
         -3    1    6    6    0  502 -0.23026783821E+03  0.58955991014E+02  0.54491279492E+03  0.59449898255E+03  0.00000000000E+00 0.  1.
<mgrwt>
<rscale>  0 0.14419218E+04</rscale>
<asrwt>0</asrwt>
<pdfrwt beam="1">  1        1 0.53984911E-01 0.14419218E+04</pdfrwt>
<pdfrwt beam="2">  1       -1 0.22788951E+00 0.14419218E+04</pdfrwt>
<totfact> 0.67642282E+00</totfact>
</mgrwt>
</event>
<event>
12    1  0.1549527E-007  0.1769289E+04  0.7818608E-02  0.8722804E-01
          2   -1    0    0  501    0  0.00000000000E+00  0.00000000000E+00  0.74409317446E+03  0.74409317446E+03  0.00000000000E+00 0. -1.
         -2   -1    0    0    0  501 -0.00000000000E+00 -0.00000000000E+00 -0.10517446364E+04  0.10517446364E+04  0.00000000000E+00 0.  1.
         23    2    1    2    0    0 -0.18369607609E+02 -0.25964263968E+03 -0.71976940642E+03  0.77081454725E+03  0.91298001132E+02 0.  0.
        254    2    1    2    0    0  0.18369607609E+02  0.25964263968E+03  0.41211794450E+03  0.10250232636E+04  0.90170934778E+03 0.  0.
        -24    2    4    4    0    0  0.14197851066E+03  0.49293966151E+03 -0.11756530430E+02  0.51930069996E+03  0.79922422327E+02 0.  0.
         24    2    4    4    0    0 -0.12360890305E+03 -0.23329702182E+03  0.42387447493E+03  0.50572256363E+03  0.79869140219E+02 0.  0.
         11    1    3    3    0    0 -0.13775913576E+02 -0.12203678943E+03 -0.46813093758E+03  0.48397244600E+03  0.00000000000E+00 0.  1.
        -11    1    3    3    0    0 -0.45936940329E+01 -0.13760585025E+03 -0.25163846883E+03  0.28684210124E+03  0.00000000000E+00 0. -1.
          2    1    6    6  502    0 -0.23027955676E+02 -0.55013220191E+02  0.43676187798E+02  0.73921245383E+02  0.00000000000E+00 0. -1.
          3    1    5    5  503    0  0.49724009175E+02  0.15587833293E+03  0.33233471613E+02  0.16695806480E+03  0.00000000000E+00 0. -1.
         -4    1    5    5    0  503  0.92254501486E+02  0.33706132857E+03 -0.44990002043E+02  0.35234263515E+03  0.00000000000E+00 0.  1.
         -1    1    6    6    0  502 -0.10058094738E+03 -0.17828380163E+03  0.38019828713E+03  0.43180131824E+03  0.00000000000E+00 0.  1.
<mgrwt>
<rscale>  0 0.17692891E+04</rscale>
<asrwt>0</asrwt>
<pdfrwt beam="1">  1        2 0.11447587E+00 0.17692891E+04</pdfrwt>
<pdfrwt beam="2">  1       -2 0.16180687E+00 0.17692891E+04</pdfrwt>
<totfact> 0.87538094E+00</totfact>
</mgrwt>
</event>
<event>
12    1  0.1549527E-007  0.1286889E+04  0.7818608E-02  0.9040028E-01
         -1   -1    0    0    0  501 -0.00000000000E+00  0.00000000000E+00  0.16178515564E+03  0.16178515564E+03  0.00000000000E+00 0.  1.
          1   -1    0    0  501    0  0.00000000000E+00 -0.00000000000E+00 -0.25590766970E+04  0.25590766970E+04  0.00000000000E+00 0. -1.
         23    2    1    2    0    0 -0.16145129490E+02  0.16580642827E+03 -0.40607176229E+02  0.19101951805E+03  0.84184776853E+02 0.  0.
        254    2    1    2    0    0  0.16145129490E+02 -0.16580642827E+03 -0.23566843652E+04  0.25298423346E+04  0.90464833178E+03 0.  0.
        -24    2    4    4    0    0  0.11630762555E+03  0.89760887429E+01  0.20742745402E+02  0.14262553280E+03  0.79396140896E+02 0.  0.
         24    2    4    4    0    0 -0.10016249606E+03 -0.17478251702E+03 -0.23774271106E+04  0.23872168018E+04  0.77864876496E+02 0.  0.
         11    1    3    3    0    0 -0.36193305868E+02  0.14462852973E+03 -0.11049476736E+02  0.14949735094E+03  0.00000000000E+00 0.  1.
        -11    1    3    3    0    0  0.20048176378E+02  0.21177898544E+02 -0.29557699493E+02  0.41522167117E+02  0.00000000000E+00 0. -1.
          2    1    6    6  502    0 -0.86425898024E+02 -0.73431172092E+02 -0.13112490649E+04  0.13161442486E+04  0.00000000000E+00 0. -1.
          1    1    5    5  503    0  0.11165664593E+03  0.10548210537E+02 -0.89681196603E+01  0.11251177048E+03  0.00000000000E+00 0. -1.
         -2    1    5    5    0  503  0.46509796202E+01 -0.15721217939E+01  0.29710865062E+02  0.30113762320E+02  0.00000000000E+00 0.  1.
         -1    1    6    6    0  502 -0.13736598041E+02 -0.10135134492E+03 -0.10661780456E+04  0.10710725532E+04  0.00000000000E+00 0.  1.
<mgrwt>
<rscale>  0 0.12868887E+04</rscale>
<asrwt>0</asrwt>
<pdfrwt beam="1">  1        1 0.39370406E+00 0.12868887E+04</pdfrwt>
<pdfrwt beam="2">  1       -1 0.24890027E-01 0.12868887E+04</pdfrwt>
<totfact> 0.17198334E+01</totfact>
</mgrwt>
</event>
<event>
12    1  0.1549527E-007  0.2293075E+04  0.7818608E-02  0.8480657E-01
         -2   -1    0    0    0  501 -0.00000000000E+00  0.00000000000E+00  0.22810790188E+04  0.22810790188E+04  0.00000000000E+00 0.  1.
          2   -1    0    0  501    0  0.00000000000E+00 -0.00000000000E+00 -0.57628348420E+03  0.57628348420E+03  0.00000000000E+00 0. -1.
         23    2    1    2    0    0 -0.92236832656E+03 -0.24796276914E+03  0.49099025308E+03  0.10774933617E+04  0.87587963034E+02 0.  0.
        254    2    1    2    0    0  0.92236832656E+03  0.24796276914E+03  0.12138052815E+04  0.17798691412E+04  0.88451231409E+03 0.  0.
        -24    2    4    4    0    0  0.11705331508E+03 -0.16039010145E+03 -0.54616836690E+02  0.22074582572E+03  0.79493757664E+02 0.  0.
         24    2    4    4    0    0  0.80531501148E+03  0.40835287060E+03  0.12684221182E+04  0.15591233155E+04  0.81771073145E+02 0.  0.
         13    1    3    3    0    0 -0.14870362118E+03 -0.60924530467E+02  0.11227850617E+03  0.19603833378E+03  0.00000000000E+00 0.  1.
        -13    1    3    3    0    0 -0.77366470538E+03 -0.18703823868E+03  0.37871174692E+03  0.88145502796E+03  0.00000000000E+00 0. -1.
          2    1    6    6  502    0  0.28890454710E+03  0.19087356262E+03  0.47874497973E+03  0.59084288085E+03  0.00000000000E+00 0. -1.
          1    1    5    5  503    0 -0.46431201493E+00 -0.73557485070E+01  0.14111483391E+02  0.15920319885E+02  0.00000000000E+00 0. -1.
         -2    1    5    5    0  503  0.11751762709E+03 -0.15303435295E+03 -0.68728320081E+02  0.20482550583E+03  0.00000000000E+00 0.  1.
         -1    1    6    6    0  502  0.51641046439E+03  0.21747930798E+03  0.78967713847E+03  0.96828043466E+03  0.00000000000E+00 0.  1.
<mgrwt>
<rscale>  0 0.22930749E+04</rscale>
<asrwt>0</asrwt>
<pdfrwt beam="1">  1        2 0.88658998E-01 0.22930749E+04</pdfrwt>
<pdfrwt beam="2">  1       -2 0.35093523E+00 0.22930749E+04</pdfrwt>
<totfact> 0.72572284E-01</totfact>
</mgrwt>
</event>
<event>
12    1  0.1549527E-007  0.1754606E+04  0.7818608E-02  0.8730819E-01
         -2   -1    0    0    0  501 -0.00000000000E+00  0.00000000000E+00  0.67171872844E+03  0.67171872844E+03  0.00000000000E+00 0.  1.
          2   -1    0    0  501    0  0.00000000000E+00 -0.00000000000E+00 -0.11458076854E+04  0.11458076854E+04  0.00000000000E+00 0. -1.
         23    2    1    2    0    0  0.40650785450E+03 -0.35804113331E+03 -0.53123969981E+03  0.76405215964E+03  0.90099917314E+02 0.  0.
        254    2    1    2    0    0 -0.40650785450E+03  0.35804113331E+03  0.57150742817E+02  0.10534742542E+04  0.90172041564E+03 0.  0.
        -24    2    4    4    0    0  0.15510358038E+03 -0.11308516204E+02  0.28791513932E+03  0.33827973712E+03  0.85749926568E+02 0.  0.
         24    2    4    4    0    0 -0.56161143488E+03  0.36934964951E+03 -0.23076439651E+03  0.71519451710E+03  0.80152499727E+02 0.  0.
         13    1    3    3    0    0  0.56837229499E+02 -0.16123505410E+02 -0.72410133777E+02  0.93454082615E+02  0.00000000000E+00 0.  1.
        -13    1    3    3    0    0  0.34967062500E+03 -0.34191762790E+03 -0.45882956603E+03  0.67059807703E+03  0.00000000000E+00 0. -1.
          2    1    6    6  502    0 -0.46377855665E+03  0.30763448114E+03 -0.15795332511E+03  0.57851428375E+03  0.00000000000E+00 0. -1.
          3    1    5    5  503    0  0.82447161196E+02  0.23702762750E+02  0.88892918748E+02  0.12353665996E+03  0.00000000000E+00 0. -1.
         -4    1    5    5    0  503  0.72656419186E+02 -0.35011278954E+02  0.19902222058E+03  0.21474307715E+03  0.00000000000E+00 0.  1.
         -1    1    6    6    0  502 -0.97832878228E+02  0.61715168378E+02 -0.72811071392E+02  0.13668023335E+03  0.00000000000E+00 0.  1.
<mgrwt>
<rscale>  0 0.17546059E+04</rscale>
<asrwt>0</asrwt>
<pdfrwt beam="1">  1        2 0.17627811E+00 0.17546059E+04</pdfrwt>
<pdfrwt beam="2">  1       -2 0.10334134E+00 0.17546059E+04</pdfrwt>
<totfact> 0.14779717E+01</totfact>
</mgrwt>
</event>
<event>
12    1  0.1549527E-007  0.1735603E+04  0.7818608E-02  0.8741315E-01
         -2   -1    0    0    0  501 -0.00000000000E+00  0.00000000000E+00  0.20388872334E+03  0.20388872334E+03  0.00000000000E+00 0. -1.
          2   -1    0    0  501    0  0.00000000000E+00 -0.00000000000E+00 -0.36935811923E+04  0.36935811923E+04  0.00000000000E+00 0.  1.
         23    2    1    2    0    0  0.13516522788E+03  0.50080559096E+03 -0.20951038863E+04  0.21602998632E+04  0.91429350664E+02 0.  0.
        254    2    1    2    0    0 -0.13516522788E+03 -0.50080559096E+03 -0.13945885827E+04  0.17371700524E+04  0.89655261817E+03 0.  0.
        -24    2    4    4    0    0  0.97255274049E+02  0.12745339323E+03  0.88301399130E+01  0.17994756493E+03  0.81241608651E+02 0.  0.
         24    2    4    4    0    0 -0.23242050193E+03 -0.62825898419E+03 -0.14034187226E+04  0.15572224875E+04  0.81419429720E+02 0.  0.
         11    1    3    3    0    0  0.95200745567E+02  0.45855411708E+03 -0.18830236479E+04  0.19403899399E+04  0.00000000000E+00 0.  1.
        -11    1    3    3    0    0  0.39964482315E+02  0.42251473880E+02 -0.21208023836E+03  0.21990992337E+03  0.00000000000E+00 0. -1.
          2    1    6    6  502    0 -0.52569991610E+02 -0.23498265536E+03 -0.45211518370E+03  0.51223880336E+03  0.00000000000E+00 0. -1.
          1    1    5    5  503    0  0.68551956120E+02  0.13242756401E+03  0.15919521147E+02  0.14996620136E+03  0.00000000000E+00 0. -1.
         -2    1    5    5    0  503  0.28703317929E+02 -0.49741707779E+01 -0.70893812339E+01  0.29981363567E+02  0.00000000000E+00 0.  1.
         -1    1    6    6    0  502 -0.17985051032E+03 -0.39327632882E+03 -0.95130353891E+03  0.10449836841E+04  0.00000000000E+00 0.  1.
<mgrwt>
<rscale>  0 0.17356031E+04</rscale>
<asrwt>0</asrwt>
<pdfrwt beam="1">  1        2 0.56824320E+00 0.17356031E+04</pdfrwt>
<pdfrwt beam="2">  1       -2 0.31367499E-01 0.17356031E+04</pdfrwt>
<totfact> 0.53440993E+00</totfact>
</mgrwt>
</event>
<event>
12    1  0.1549527E-007  0.1269345E+04  0.7818608E-02  0.9054234E-01
         -3   -1    0    0    0  501 -0.00000000000E+00  0.00000000000E+00  0.70402457608E+03  0.70402457608E+03  0.00000000000E+00 0.  1.
          3   -1    0    0  501    0  0.00000000000E+00 -0.00000000000E+00 -0.57215215236E+03  0.57215215236E+03  0.00000000000E+00 0. -1.
         23    2    1    2    0    0 -0.83419274900E+02  0.27884222310E+03  0.12302700746E+03  0.32901658027E+03  0.91676085878E+02 0.  0.
        254    2    1    2    0    0  0.83419274900E+02 -0.27884222310E+03  0.88454162694E+01  0.94716014817E+03  0.90128926771E+03 0.  0.
        -24    2    4    4    0    0  0.17549367433E+03 -0.35566995922E+03  0.37693759007E+03  0.55349951912E+03  0.83550112185E+02 0.  0.
         24    2    4    4    0    0 -0.92074399427E+02  0.76827736119E+02 -0.36809217380E+03  0.39366062905E+03  0.71390800412E+02 0.  0.
         13    1    3    3    0    0 -0.59963413640E+02  0.59297911948E+02  0.35853179005E+02  0.91636803641E+02  0.00000000000E+00 0.  1.
        -13    1    3    3    0    0 -0.23455861260E+02  0.21954431115E+03  0.87173828451E+02  0.23737977663E+03  0.00000000000E+00 0. -1.
          4    1    6    6  502    0 -0.12438054356E+02 -0.13193188054E+02 -0.32811411881E+02  0.37488053521E+02  0.00000000000E+00 0. -1.
          1    1    5    5  503    0  0.71474670747E+00  0.39247361121E+01  0.10217785919E+02  0.10968936388E+02  0.00000000000E+00 0. -1.
         -2    1    5    5    0  503  0.17477892762E+03 -0.35959469533E+03  0.36671980415E+03  0.54253058273E+03  0.00000000000E+00 0.  1.
         -3    1    6    6    0  502 -0.79636345071E+02  0.90020924173E+02 -0.33528076191E+03  0.35617257552E+03  0.00000000000E+00 0.  1.
<mgrwt>
<rscale>  0 0.12693450E+04</rscale>
<asrwt>0</asrwt>
<pdfrwt beam="1">  1        3 0.88023408E-01 0.12693450E+04</pdfrwt>
<pdfrwt beam="2">  1       -3 0.10831147E+00 0.12693450E+04</pdfrwt>
<totfact> 0.21859184E+00</totfact>
</mgrwt>
</event>
<event>
12    1  0.1549527E-007  0.2017147E+04  0.7818608E-02  0.8598646E-01
         -2   -1    0    0    0  501 -0.00000000000E+00  0.00000000000E+00  0.65139023313E+03  0.65139023313E+03  0.00000000000E+00 0.  1.
          2   -1    0    0  501    0  0.00000000000E+00 -0.00000000000E+00 -0.15616140124E+04  0.15616140124E+04  0.00000000000E+00 0. -1.
         23    2    1    2    0    0 -0.79709703247E+03 -0.10034581726E+03 -0.32849652824E+03  0.87269185506E+03  0.90819285458E+02 0.  0.
        254    2    1    2    0    0  0.79709703247E+03  0.10034581726E+03 -0.58172725102E+03  0.13403123905E+04  0.90144203765E+03 0.  0.
        -24    2    4    4    0    0 -0.17419724991E+03  0.12697734099E+03 -0.69934304659E+02  0.23918382372E+03  0.76486388061E+02 0.  0.
         24    2    4    4    0    0  0.97129428238E+03 -0.26631523726E+02 -0.51179294636E+03  0.11011285667E+04  0.80189023764E+02 0.  0.
         13    1    3    3    0    0 -0.45468008985E+01 -0.42017119277E+01 -0.12726123419E+02  0.14152102275E+02  0.00000000000E+00 0. -1.
        -13    1    3    3    0    0 -0.79255023157E+03 -0.96144105334E+02 -0.31577040482E+03  0.85853975278E+03  0.00000000000E+00 0.  1.
          4    1    6    6  502    0  0.21735387743E+03  0.27022685949E+02 -0.12119389786E+03  0.25032158211E+03  0.00000000000E+00 0. -1.
          3    1    5    5  503    0 -0.41613233308E+02  0.69905609523E+02 -0.44121642505E+02  0.92548229407E+02  0.00000000000E+00 0. -1.
         -4    1    5    5    0  503 -0.13258401660E+03  0.57071731465E+02 -0.25812662155E+02  0.14663559431E+03  0.00000000000E+00 0.  1.
         -3    1    6    6    0  502  0.75394040494E+03 -0.53654209676E+02 -0.39059904850E+03  0.85080698464E+03  0.00000000000E+00 0.  1.
<mgrwt>
<rscale>  0 0.20171466E+04</rscale>
<asrwt>0</asrwt>
<pdfrwt beam="1">  1        2 0.24024830E+00 0.20171466E+04</pdfrwt>
<pdfrwt beam="2">  1       -2 0.10021388E+00 0.20171466E+04</pdfrwt>
<totfact> 0.89359619E+00</totfact>
</mgrwt>
</event>
<event>
12    1  0.1549527E-007  0.2030541E+04  0.7818608E-02  0.8592473E-01
          2   -1    0    0  501    0  0.00000000000E+00  0.00000000000E+00  0.21490979165E+04  0.21490979165E+04  0.00000000000E+00 0. -1.
         -2   -1    0    0    0  501 -0.00000000000E+00 -0.00000000000E+00 -0.47963117306E+03  0.47963117306E+03  0.00000000000E+00 0.  1.
         23    2    1    2    0    0 -0.56992239584E+02 -0.18643881938E+03 -0.34587768030E+03  0.40747970871E+03  0.91655848347E+02 0.  0.
        254    2    1    2    0    0  0.56992239584E+02  0.18643881938E+03  0.20153444237E+04  0.22212493808E+04  0.91341563206E+03 0.  0.
        -24    2    4    4    0    0  0.32842776891E+03 -0.91450507781E+02  0.30069133994E+03  0.46157175542E+03  0.80032547910E+02 0.  0.
         24    2    4    4    0    0 -0.27143552932E+03  0.27788932716E+03  0.17146530837E+04  0.17596776254E+04  0.74366813434E+02 0.  0.
         11    1    3    3    0    0 -0.81123606970E+02 -0.14920739453E+03 -0.29071351282E+03  0.33668714369E+03  0.00000000000E+00 0.  1.
        -11    1    3    3    0    0  0.24131367386E+02 -0.37231424852E+02 -0.55164167482E+02  0.70792565023E+02  0.00000000000E+00 0. -1.
          4    1    6    6  502    0 -0.51462421625E+02  0.92756708013E+02  0.54301372487E+03  0.55327759138E+03  0.00000000000E+00 0. -1.
          3    1    5    5  503    0  0.85125696013E+02 -0.57395758237E+02  0.67655476608E+02  0.12295495395E+03  0.00000000000E+00 0. -1.
         -4    1    5    5    0  503  0.24330207289E+03 -0.34054749545E+02  0.23303586334E+03  0.33861680148E+03  0.00000000000E+00 0.  1.
         -3    1    6    6    0  502 -0.21997310770E+03  0.18513261915E+03  0.11716393589E+04  0.12064000340E+04  0.00000000000E+00 0.  1.
<mgrwt>
<rscale>  0 0.20305412E+04</rscale>
<asrwt>0</asrwt>
<pdfrwt beam="1">  1        2 0.33063044E+00 0.20305412E+04</pdfrwt>
<pdfrwt beam="2">  1       -2 0.73789413E-01 0.20305412E+04</pdfrwt>
<totfact> 0.84613362E+00</totfact>
</mgrwt>
</event>
<event>
12    1  0.1549527E-007  0.1524208E+04  0.7818608E-02  0.8868512E-01
          2   -1    0    0  501    0  0.00000000000E+00  0.00000000000E+00  0.34283291476E+04  0.34283291476E+04  0.00000000000E+00 0.  1.
         -2   -1    0    0    0  501 -0.00000000000E+00 -0.00000000000E+00 -0.16941280159E+03  0.16941280159E+03  0.00000000000E+00 0. -1.
         23    2    1    2    0    0  0.47692091096E+03 -0.11824851451E+03  0.99171990863E+03  0.11105751030E+04  0.91828185397E+02 0.  0.
        254    2    1    2    0    0 -0.47692091096E+03  0.11824851451E+03  0.22671964374E+04  0.24871668462E+04  0.89687399833E+03 0.  0.
        -24    2    4    4    0    0 -0.46365693704E+03 -0.21928028825E+03  0.64338053915E+03  0.82657490236E+03  0.78904695461E+02 0.  0.
         24    2    4    4    0    0 -0.13263973915E+02  0.33752880276E+03  0.16238158982E+04  0.16605919439E+04  0.81767396062E+02 0.  0.
         13    1    3    3    0    0  0.20757214755E+03 -0.75102930080E+02  0.53260594683E+03  0.57653771875E+03  0.00000000000E+00 0. -1.
        -13    1    3    3    0    0  0.26934876340E+03 -0.43145584430E+02  0.45911396180E+03  0.53403738420E+03  0.00000000000E+00 0.  1.
          2    1    6    6  502    0 -0.25652991440E+01  0.33649398596E+03  0.15841437401E+04  0.16194894790E+04  0.00000000000E+00 0. -1.
          1    1    5    5  503    0 -0.28502606241E+03 -0.91951037586E+02  0.37813633081E+03  0.48237115818E+03  0.00000000000E+00 0. -1.
         -2    1    5    5    0  503 -0.17863087463E+03 -0.12732925066E+03  0.26524420834E+03  0.34420374418E+03  0.00000000000E+00 0.  1.
         -1    1    6    6    0  502 -0.10698674771E+02  0.10348168005E+01  0.39672158110E+02  0.41102464850E+02  0.00000000000E+00 0.  1.
<mgrwt>
<rscale>  0 0.15242084E+04</rscale>
<asrwt>0</asrwt>
<pdfrwt beam="1">  1        2 0.52743520E+00 0.15242084E+04</pdfrwt>
<pdfrwt beam="2">  1       -2 0.26063510E-01 0.15242084E+04</pdfrwt>
<totfact> 0.11838997E+01</totfact>
</mgrwt>
</event>
<event>
12    1  0.1549527E-007  0.1461188E+04  0.7818608E-02  0.8910681E-01
          2   -1    0    0  501    0  0.00000000000E+00  0.00000000000E+00  0.17630923040E+04  0.17630923040E+04  0.00000000000E+00 0. -1.
         -2   -1    0    0    0  501 -0.00000000000E+00 -0.00000000000E+00 -0.30274496378E+03  0.30274496378E+03  0.00000000000E+00 0.  1.
         23    2    1    2    0    0  0.27596274091E+02 -0.22608136756E+03 -0.94135894121E+02  0.26194178241E+03  0.88755798157E+02 0.  0.
        254    2    1    2    0    0 -0.27596274091E+02  0.22608136756E+03  0.15544832344E+04  0.18038954854E+04  0.88642340742E+03 0.  0.
        -24    2    4    4    0    0 -0.20869689763E+03  0.44661511329E+03  0.49378097858E+03  0.70245397703E+03  0.81255649244E+02 0.  0.
         24    2    4    4    0    0  0.18110062354E+03 -0.22053374573E+03  0.10607022558E+04  0.11014415084E+04  0.81557048082E+02 0.  0.
         11    1    3    3    0    0 -0.31628763376E+02 -0.91936909323E+02 -0.46406543538E+02  0.10773273064E+03  0.00000000000E+00 0. -1.
        -11    1    3    3    0    0  0.59225037467E+02 -0.13414445824E+03 -0.47729350583E+02  0.15420905177E+03  0.00000000000E+00 0.  1.
          4    1    6    6  502    0  0.37718724903E+00 -0.26799398820E+02  0.51690008228E+02  0.58225484094E+02  0.00000000000E+00 0. -1.
          3    1    5    5  503    0 -0.74721867004E+02  0.81476174751E+02  0.11596059495E+03  0.16021418178E+03  0.00000000000E+00 0. -1.
         -4    1    5    5    0  503 -0.13397503062E+03  0.36513893854E+03  0.37782038363E+03  0.54223979525E+03  0.00000000000E+00 0.  1.
         -3    1    6    6    0  502  0.18072343629E+03 -0.19373434691E+03  0.10090122476E+04  0.10432160243E+04  0.00000000000E+00 0.  1.
<mgrwt>
<rscale>  0 0.14611876E+04</rscale>
<asrwt>0</asrwt>
<pdfrwt beam="1">  1        2 0.27124496E+00 0.14611876E+04</pdfrwt>
<pdfrwt beam="2">  1       -2 0.46576149E-01 0.14611876E+04</pdfrwt>
<totfact> 0.38303475E+01</totfact>
</mgrwt>
</event>
<event>
12    1  0.1549527E-007  0.3058621E+04  0.7818608E-02  0.8227187E-01
         -2   -1    0    0    0  501 -0.00000000000E+00  0.00000000000E+00  0.13301571688E+04  0.13301571688E+04  0.00000000000E+00 0.  1.
          2   -1    0    0  501    0  0.00000000000E+00 -0.00000000000E+00 -0.17582815613E+04  0.17582815613E+04  0.00000000000E+00 0. -1.
         23    2    1    2    0    0  0.94678434028E+02  0.23524708702E+03 -0.15942178136E+04  0.16168234951E+04  0.91008677171E+02 0.  0.
        254    2    1    2    0    0 -0.94678434028E+02 -0.23524708702E+03  0.11660934211E+04  0.14716152349E+04  0.86114594307E+03 0.  0.
        -24    2    4    4    0    0 -0.10183949316E+03  0.31490505785E+03  0.43032350687E+03  0.54966119803E+03  0.86096656266E+02 0.  0.
         24    2    4    4    0    0  0.71610591326E+01 -0.55015214487E+03  0.73576991418E+03  0.92195403692E+03  0.76962434283E+02 0.  0.
         13    1    3    3    0    0 -0.17538815212E+02  0.20527315111E+02 -0.17655824877E+03  0.17861073852E+03  0.00000000000E+00 0.  1.
        -13    1    3    3    0    0  0.11221724924E+03  0.21471977191E+03 -0.14176595648E+04  0.14382127566E+04  0.00000000000E+00 0. -1.
          2    1    6    6  502    0  0.27069223238E+02 -0.51008060468E+03  0.67480002009E+03  0.84632737947E+03  0.00000000000E+00 0. -1.
          1    1    5    5  503    0 -0.92493473347E+02  0.14624143479E+03  0.21481873691E+03  0.27584178362E+03  0.00000000000E+00 0. -1.
         -2    1    5    5    0  503 -0.93460198129E+01  0.16866362306E+03  0.21550476997E+03  0.27381941441E+03  0.00000000000E+00 0.  1.
         -1    1    6    6    0  502 -0.19908164106E+02 -0.40071540196E+02  0.60969894090E+02  0.75626657450E+02  0.00000000000E+00 0.  1.
<mgrwt>
<rscale>  0 0.30586211E+04</rscale>
<asrwt>0</asrwt>
<pdfrwt beam="1">  1        2 0.27050486E+00 0.30586211E+04</pdfrwt>
<pdfrwt beam="2">  1       -2 0.20463956E+00 0.30586211E+04</pdfrwt>
<totfact> 0.96178274E-01</totfact>
</mgrwt>
</event>
<event>
12    1  0.1549527E-007  0.4265603E+04  0.7818608E-02  0.7953009E-01
          2   -1    0    0  501    0  0.00000000000E+00  0.00000000000E+00  0.19172586279E+04  0.19172586279E+04  0.00000000000E+00 0. -1.
         -2   -1    0    0    0  501 -0.00000000000E+00 -0.00000000000E+00 -0.23725763138E+04  0.23725763138E+04  0.00000000000E+00 0.  1.
         23    2    1    2    0    0 -0.68096400345E+03 -0.36302329123E+03 -0.21059080624E+04  0.22448543043E+04  0.94995768799E+02 0.  0.
        254    2    1    2    0    0  0.68096400345E+03  0.36302329123E+03  0.16505903766E+04  0.20449806374E+04  0.92843919136E+03 0.  0.
        -24    2    4    4    0    0  0.36169499310E+03  0.53295068397E+03  0.15190563717E+04  0.16519383406E+04  0.80674166708E+02 0.  0.
         24    2    4    4    0    0  0.31926901035E+03 -0.16992739273E+03  0.13153400486E+03  0.39304229676E+03  0.79831277345E+02 0.  0.
         11    1    3    3    0    0 -0.42866984864E+02 -0.39211908756E+02 -0.22660529688E+03  0.23393399230E+03  0.00000000000E+00 0. -1.
        -11    1    3    3    0    0 -0.63809701858E+03 -0.32381138248E+03 -0.18793027655E+04  0.20109203120E+04  0.00000000000E+00 0.  1.
          4    1    6    6  502    0  0.27217613192E+03 -0.17357141678E+03  0.12023964627E+03  0.34447707623E+03  0.00000000000E+00 0. -1.
          1    1    5    5  503    0  0.34920622259E+03  0.51103292671E+03  0.14900945667E+04  0.16135307421E+04  0.00000000000E+00 0. -1.
         -2    1    5    5    0  503  0.12488770508E+02  0.21917757259E+02  0.28961805017E+02  0.38407598492E+02  0.00000000000E+00 0.  1.
         -3    1    6    6    0  502  0.47092878427E+02  0.36440240505E+01  0.11294358587E+02  0.48565220536E+02  0.00000000000E+00 0.  1.
<mgrwt>
<rscale>  0 0.42656031E+04</rscale>
<asrwt>0</asrwt>
<pdfrwt beam="1">  1        2 0.29496287E+00 0.42656031E+04</pdfrwt>
<pdfrwt beam="2">  1       -2 0.36501174E+00 0.42656031E+04</pdfrwt>
<totfact> 0.71649243E-02</totfact>
</mgrwt>
</event>
<event>
12    1  0.1549527E-007  0.2468135E+04  0.7818608E-02  0.8414426E-01
          1   -1    0    0  501    0  0.00000000000E+00  0.00000000000E+00  0.19451277163E+04  0.19451277163E+04  0.00000000000E+00 0. -1.
         -1   -1    0    0    0  501 -0.00000000000E+00 -0.00000000000E+00 -0.78294232131E+03  0.78294232131E+03  0.00000000000E+00 0.  1.
         23    2    1    2    0    0 -0.95280150320E+03 -0.57368943958E+01  0.26515315702E+02  0.95765601190E+03  0.92403239691E+02 0.  0.
        254    2    1    2    0    0  0.95280150320E+03  0.57368943958E+01  0.11356700793E+04  0.17704140257E+04  0.96786139350E+03 0.  0.
        -24    2    4    4    0    0 -0.17180907205E+03  0.47832390292E+02  0.33178586401E+03  0.38511669714E+03  0.80166801477E+02 0.  0.
         24    2    4    4    0    0  0.11246105753E+04 -0.42095495896E+02  0.80388421530E+03  0.13852973286E+04  0.79359185116E+02 0.  0.
         13    1    3    3    0    0 -0.51047265250E+02 -0.99756531304E+01  0.20402003722E+02  0.55871090026E+02  0.00000000000E+00 0. -1.
        -13    1    3    3    0    0 -0.90175423795E+03  0.42387587346E+01  0.61133119797E+01  0.90178492187E+03  0.00000000000E+00 0.  1.
          4    1    6    6  502    0  0.30790204752E+02 -0.82763564328E+01  0.37828155860E+02  0.49472256470E+02  0.00000000000E+00 0. -1.
          1    1    5    5  503    0 -0.70779631898E+02 -0.56584073675E+01  0.19095293676E+03  0.20372726357E+03  0.00000000000E+00 0. -1.
         -2    1    5    5    0  503 -0.10102944015E+03  0.53490797660E+02  0.14083292725E+03  0.18138943357E+03  0.00000000000E+00 0.  1.
         -3    1    6    6    0  502  0.10938203705E+04 -0.33819139463E+02  0.76605605944E+03  0.13358250721E+04  0.00000000000E+00 0.  1.
<mgrwt>
<rscale>  0 0.24681352E+04</rscale>
<asrwt>0</asrwt>
<pdfrwt beam="1">  1        1 0.29925042E+00 0.24681352E+04</pdfrwt>
<pdfrwt beam="2">  1       -1 0.12045267E+00 0.24681352E+04</pdfrwt>
<totfact> 0.17739282E+00</totfact>
</mgrwt>
</event>
<event>
12    1  0.1549527E-007  0.1209478E+04  0.7818608E-02  0.9104601E-01
          2   -1    0    0  501    0  0.00000000000E+00  0.00000000000E+00  0.49240105491E+03  0.49240105491E+03  0.00000000000E+00 0. -1.
         -2   -1    0    0    0  501 -0.00000000000E+00 -0.00000000000E+00 -0.74270596187E+03  0.74270596187E+03  0.00000000000E+00 0.  1.
         23    2    1    2    0    0 -0.11610536266E+03  0.38117519466E+02 -0.29913488285E+03  0.33530270076E+03  0.89514370183E+02 0.  0.
        254    2    1    2    0    0  0.11610536266E+03 -0.38117519466E+02  0.48829975893E+02  0.89980431601E+03  0.89012922660E+03 0.  0.
        -24    2    4    4    0    0 -0.18177618241E+03  0.63099286239E+01  0.39023995570E+03  0.43747434016E+03  0.77551141689E+02 0.  0.
         24    2    4    4    0    0  0.29788154507E+03 -0.44427448090E+02 -0.34140997981E+03  0.46232997586E+03  0.80504777648E+02 0.  0.
         11    1    3    3    0    0  0.10395870061E+01  0.33882962083E+02 -0.77135828374E+02  0.84255990170E+02  0.00000000000E+00 0. -1.
        -11    1    3    3    0    0 -0.11714494967E+03  0.42345573833E+01 -0.22199905448E+03  0.25104671059E+03  0.00000000000E+00 0.  1.
          4    1    6    6  502    0  0.18810823172E+03 -0.56885136992E+01 -0.16121711444E+03  0.24780642449E+03  0.00000000000E+00 0. -1.
          1    1    5    5  503    0 -0.58500519262E+02  0.28025209706E+02  0.80399635920E+02  0.10330452357E+03  0.00000000000E+00 0. -1.
         -2    1    5    5    0  503 -0.12327566315E+03 -0.21715281082E+02  0.30984031978E+03  0.33416981659E+03  0.00000000000E+00 0.  1.
         -3    1    6    6    0  502  0.10977331335E+03 -0.38738934391E+02 -0.18019286537E+03  0.21452355137E+03  0.00000000000E+00 0.  1.
<mgrwt>
<rscale>  0 0.12094779E+04</rscale>
<asrwt>0</asrwt>
<pdfrwt beam="1">  1        2 0.75754009E-01 0.12094779E+04</pdfrwt>
<pdfrwt beam="2">  1       -2 0.11426246E+00 0.12094779E+04</pdfrwt>
<totfact> 0.37022676E+01</totfact>
</mgrwt>
</event>
<event>
12    1  0.1549527E-007  0.1956015E+04  0.7818608E-02  0.8627466E-01
         -1   -1    0    0    0  501 -0.00000000000E+00  0.00000000000E+00  0.17077951946E+04  0.17077951946E+04  0.00000000000E+00 0.  1.
          1   -1    0    0  501    0  0.00000000000E+00 -0.00000000000E+00 -0.56007816991E+03  0.56007816991E+03  0.00000000000E+00 0. -1.
         23    2    1    2    0    0  0.48669312170E+03 -0.52734693732E+03  0.75898134726E+03  0.10490612416E+04  0.97528539795E+02 0.  0.
        254    2    1    2    0    0 -0.48669312170E+03  0.52734693732E+03  0.38873567746E+03  0.12188121230E+04  0.90521962925E+03 0.  0.
        -24    2    4    4    0    0 -0.63710258946E+03  0.66984569328E+03  0.35799691358E+03  0.99481965625E+03  0.83134806395E+02 0.  0.
         24    2    4    4    0    0  0.15040946776E+03 -0.14249875596E+03  0.30738763889E+02  0.22399246673E+03  0.79365295349E+02 0.  0.
         13    1    3    3    0    0  0.58826695794E+02 -0.11691851249E+03  0.12359084141E+03  0.18001448492E+03  0.00000000000E+00 0. -1.
        -13    1    3    3    0    0  0.42786642590E+03 -0.41042842483E+03  0.63539050584E+03  0.86904675665E+03  0.00000000000E+00 0.  1.
          4    1    6    6  502    0  0.66338103899E+02 -0.75521182521E+02 -0.24033123851E+02  0.10335271685E+03  0.00000000000E+00 0. -1.
          3    1    5    5  503    0 -0.45157803162E+03  0.45861773489E+03  0.28788176946E+03  0.70507365472E+03  0.00000000000E+00 0. -1.
         -4    1    5    5    0  503 -0.18552455783E+03  0.21122795839E+03  0.70115144112E+02  0.28974600152E+03  0.00000000000E+00 0.  1.
         -3    1    6    6    0  502  0.84071363858E+02 -0.66977573436E+02  0.54771887740E+02  0.12063974988E+03  0.00000000000E+00 0.  1.
<mgrwt>
<rscale>  0 0.19560151E+04</rscale>
<asrwt>0</asrwt>
<pdfrwt beam="1">  1        1 0.86165873E-01 0.19560151E+04</pdfrwt>
<pdfrwt beam="2">  1       -1 0.26273772E+00 0.19560151E+04</pdfrwt>
<totfact> 0.20277120E+00</totfact>
</mgrwt>
</event>
<event>
12    1  0.1549527E-007  0.1754220E+04  0.7818608E-02  0.8731031E-01
         -2   -1    0    0    0  501 -0.00000000000E+00  0.00000000000E+00  0.12695411317E+04  0.12695411317E+04  0.00000000000E+00 0. -1.
          2   -1    0    0  501    0  0.00000000000E+00 -0.00000000000E+00 -0.60598424365E+03  0.60598424365E+03  0.00000000000E+00 0.  1.
         23    2    1    2    0    0  0.23937559068E+03 -0.36704643488E+03 -0.25526204503E+03  0.51512798430E+03  0.90412221496E+02 0.  0.
        254    2    1    2    0    0 -0.23937559068E+03  0.36704643488E+03  0.91881893306E+03  0.13603973910E+04  0.90245724053E+03 0.  0.
        -24    2    4    4    0    0  0.61867145228E+01  0.56805441920E+03  0.85179574668E+03  0.10269117768E+04  0.79168836540E+02 0.  0.
         24    2    4    4    0    0 -0.24556230521E+03 -0.20100798432E+03  0.67023186383E+02  0.33348561422E+03  0.77559602095E+02 0.  0.
         13    1    3    3    0    0  0.14400227912E+03 -0.19917297719E+03 -0.92517165834E+02  0.26261370339E+03  0.00000000000E+00 0.  1.
        -13    1    3    3    0    0  0.95373311566E+02 -0.16787345769E+03 -0.16274487920E+03  0.25251428091E+03  0.00000000000E+00 0. -1.
          4    1    6    6  502    0 -0.67026002230E+02 -0.92023503511E+02  0.23735551361E-01  0.11384555651E+03  0.00000000000E+00 0. -1.
          3    1    5    5  503    0 -0.25724237713E+02  0.73475956188E+02  0.12303197541E+03  0.14559299268E+03  0.00000000000E+00 0. -1.
         -4    1    5    5    0  503  0.31910952235E+02  0.49457846301E+03  0.72876377127E+03  0.88131878413E+03  0.00000000000E+00 0.  1.
         -3    1    6    6    0  502 -0.17853630298E+03 -0.10898448081E+03  0.66999450832E+02  0.21964005771E+03  0.00000000000E+00 0.  1.
<mgrwt>
<rscale>  0 0.17542200E+04</rscale>
<asrwt>0</asrwt>
<pdfrwt beam="1">  1        2 0.93228345E-01 0.17542200E+04</pdfrwt>
<pdfrwt beam="2">  1       -2 0.19531402E+00 0.17542200E+04</pdfrwt>
<totfact> 0.66258271E+00</totfact>
</mgrwt>
</event>
<event>
12    1  0.1549527E-007  0.2944092E+04  0.7818608E-02  0.8259878E-01
          2   -1    0    0  501    0  0.00000000000E+00  0.00000000000E+00  0.23909742207E+04  0.23909742207E+04  0.00000000000E+00 0. -1.
         -2   -1    0    0    0  501 -0.00000000000E+00 -0.00000000000E+00 -0.90629146859E+03  0.90629146859E+03  0.00000000000E+00 0.  1.
         23    2    1    2    0    0 -0.42635623195E+03 -0.30147243605E+03  0.20366786189E+04  0.21045244195E+04  0.91093190398E+02 0.  0.
        254    2    1    2    0    0  0.42635623195E+03  0.30147243605E+03 -0.55199586679E+03  0.11927412698E+04  0.91938405115E+03 0.  0.
        -24    2    4    4    0    0  0.34293598577E+03 -0.28757725801E+03 -0.27971786181E+03  0.53376027511E+03  0.79700560938E+02 0.  0.
         24    2    4    4    0    0  0.83420246184E+02  0.58904969406E+03 -0.27227800498E+03  0.65898099469E+03  0.78626711849E+02 0.  0.
         13    1    3    3    0    0 -0.33865705068E+03 -0.24779169228E+03  0.17606481725E+04  0.18099644494E+04  0.00000000000E+00 0. -1.
        -13    1    3    3    0    0 -0.87699181270E+02 -0.53680743767E+02  0.27603044648E+03  0.29455997017E+03  0.00000000000E+00 0.  1.
          2    1    6    6  502    0  0.74655093876E+02  0.42121112471E+03 -0.22995783802E+03  0.48566737783E+03  0.00000000000E+00 0. -1.
          1    1    5    5  503    0  0.33135262033E+03 -0.25820037093E+03 -0.24285887949E+03  0.48522409863E+03  0.00000000000E+00 0. -1.
         -2    1    5    5    0  503  0.11583365436E+02 -0.29376887084E+02 -0.36858982322E+02  0.48536176480E+02  0.00000000000E+00 0.  1.
         -1    1    6    6    0  502  0.87651523076E+01  0.16783856935E+03 -0.42320166962E+02  0.17331361686E+03  0.00000000000E+00 0.  1.
<mgrwt>
<rscale>  0 0.29440921E+04</rscale>
<asrwt>0</asrwt>
<pdfrwt beam="1">  1        2 0.36784218E+00 0.29440921E+04</pdfrwt>
<pdfrwt beam="2">  1       -2 0.13942946E+00 0.29440921E+04</pdfrwt>
<totfact> 0.12556696E+00</totfact>
</mgrwt>
</event>
<event>
12    1  0.1549527E-007  0.1139875E+04  0.7818608E-02  0.9167175E-01
          2   -1    0    0  501    0  0.00000000000E+00  0.00000000000E+00  0.18961848229E+04  0.18961848229E+04  0.00000000000E+00 0. -1.
         -2   -1    0    0    0  501 -0.00000000000E+00 -0.00000000000E+00 -0.17130647326E+03  0.17130647326E+03  0.00000000000E+00 0.  1.
         23    2    1    2    0    0  0.10204329670E+03 -0.35155852633E+02  0.23532950566E+02  0.14292033054E+03  0.90684357755E+02 0.  0.
        254    2    1    2    0    0 -0.10204329670E+03  0.35155852633E+02  0.17013453991E+04  0.19245709656E+04  0.89316765863E+03 0.  0.
        -24    2    4    4    0    0 -0.45295330320E+00 -0.39399926224E+03  0.49585878954E+03  0.63846119647E+03  0.80753553625E+02 0.  0.
         24    2    4    4    0    0 -0.10159034340E+03  0.42915511488E+03  0.12054866095E+04  0.12861097692E+04  0.79910337602E+02 0.  0.
         11    1    3    3    0    0 -0.12185852554E+02  0.90788732168E+01 -0.69188214428E+01  0.16697036609E+02  0.00000000000E+00 0. -1.
        -11    1    3    3    0    0  0.11422914926E+03 -0.44234725850E+02  0.30451772009E+02  0.12622329393E+03  0.00000000000E+00 0.  1.
          4    1    6    6  502    0  0.78169659112E+01  0.59012384163E+02  0.21462371567E+03  0.22272607789E+03  0.00000000000E+00 0. -1.
          3    1    5    5  503    0 -0.13784330437E+02 -0.27908700161E+02  0.70695561422E+02  0.77244842644E+02  0.00000000000E+00 0. -1.
         -4    1    5    5    0  503  0.13331377133E+02 -0.36609056208E+03  0.42516322812E+03  0.56121635383E+03  0.00000000000E+00 0.  1.
         -3    1    6    6    0  502 -0.10940730931E+03  0.37014273071E+03  0.99086289388E+03  0.10633836913E+04  0.00000000000E+00 0.  1.
<mgrwt>
<rscale>  0 0.11398750E+04</rscale>
<asrwt>0</asrwt>
<pdfrwt beam="1">  1        2 0.29172073E+00 0.11398750E+04</pdfrwt>
<pdfrwt beam="2">  1       -2 0.26354843E-01 0.11398750E+04</pdfrwt>
<totfact> 0.98581163E+01</totfact>
</mgrwt>
</event>
<event>
12    1  0.1549527E-007  0.2696409E+04  0.7818608E-02  0.8336171E-01
         -2   -1    0    0    0  501 -0.00000000000E+00  0.00000000000E+00  0.51847515021E+03  0.51847515021E+03  0.00000000000E+00 0. -1.
          2   -1    0    0  501    0  0.00000000000E+00 -0.00000000000E+00 -0.35057717473E+04  0.35057717473E+04  0.00000000000E+00 0.  1.
         23    2    1    2    0    0 -0.49008231730E+03 -0.10294296967E+04 -0.80068260797E+03  0.13961637790E+04  0.90964173688E+02 0.  0.
        254    2    1    2    0    0  0.49008231730E+03  0.10294296967E+04 -0.21866139891E+04  0.26280831185E+04  0.90864402403E+03 0.  0.
        -24    2    4    4    0    0  0.19479451560E+03  0.18026774679E+03 -0.14115654311E+04  0.14383936462E+04  0.77575455369E+02 0.  0.
         24    2    4    4    0    0  0.29528780169E+03  0.84916194988E+03 -0.77504855799E+03  0.11896894723E+04  0.79936664675E+02 0.  0.
         11    1    3    3    0    0 -0.49567423091E+02 -0.11796190290E+03 -0.57283361627E+02  0.14019031167E+03  0.00000000000E+00 0.  1.
        -11    1    3    3    0    0 -0.44051489420E+03 -0.91146779377E+03 -0.74339924634E+03  0.12559734673E+04  0.00000000000E+00 0. -1.
          4    1    6    6  502    0  0.17302815613E+03  0.54208089008E+03 -0.44256773068E+03  0.72087213183E+03  0.00000000000E+00 0. -1.
          1    1    5    5  503    0  0.16665398373E+03  0.16391534727E+03 -0.10675757675E+04  0.10928677004E+04  0.00000000000E+00 0. -1.
         -2    1    5    5    0  503  0.28140531869E+02  0.16352399516E+02 -0.34398966363E+03  0.34552594575E+03  0.00000000000E+00 0.  1.
         -3    1    6    6    0  502  0.12225964556E+03  0.30708105980E+03 -0.33248082731E+03  0.46881734050E+03  0.00000000000E+00 0.  1.
<mgrwt>
<rscale>  0 0.26964091E+04</rscale>
<asrwt>0</asrwt>
<pdfrwt beam="1">  1        2 0.53934949E+00 0.26964091E+04</pdfrwt>
<pdfrwt beam="2">  1       -2 0.79765409E-01 0.26964091E+04</pdfrwt>
<totfact> 0.98373770E-01</totfact>
</mgrwt>
</event>
<event>
12    1  0.1549527E-007  0.1800353E+04  0.7818608E-02  0.8706112E-01
          2   -1    0    0  501    0  0.00000000000E+00  0.00000000000E+00  0.33422188796E+04  0.33422188796E+04  0.00000000000E+00 0.  1.
         -2   -1    0    0    0  501 -0.00000000000E+00 -0.00000000000E+00 -0.24244899877E+03  0.24244899877E+03  0.00000000000E+00 0. -1.
         23    2    1    2    0    0 -0.61147837427E+03 -0.81770100558E+02  0.16299899189E+04  0.17451268933E+04  0.89490705856E+02 0.  0.
        254    2    1    2    0    0  0.61147837427E+03  0.81770100558E+02  0.14697799619E+04  0.18395409850E+04  0.91818611824E+03 0.  0.
        -24    2    4    4    0    0  0.40537340813E+03 -0.32079596349E+03  0.34887433021E+03  0.62879755601E+03  0.80221056825E+02 0.  0.
         24    2    4    4    0    0  0.20610496614E+03  0.40256606405E+03  0.11209056317E+04  0.12107434290E+04  0.70224802006E+02 0.  0.
         13    1    3    3    0    0 -0.23019413610E+03  0.75632290172E+01  0.66207980338E+03  0.70099658257E+03  0.00000000000E+00 0. -1.
        -13    1    3    3    0    0 -0.38128423817E+03 -0.89333329575E+02  0.96791011552E+03  0.10441303107E+04  0.00000000000E+00 0.  1.
          2    1    6    6  502    0  0.19657321027E+03  0.38231482520E+03  0.10958065171E+04  0.11771140877E+04  0.00000000000E+00 0. -1.
          1    1    5    5  503    0  0.23336173993E+03 -0.21179215664E+03  0.25086228898E+03  0.40279710440E+03  0.00000000000E+00 0. -1.
         -2    1    5    5    0  503  0.17201166820E+03 -0.10900380685E+03  0.98012041226E+02  0.22600045162E+03  0.00000000000E+00 0.  1.
         -1    1    6    6    0  502  0.95317558746E+01  0.20251238844E+02  0.25099114564E+02  0.33629341306E+02  0.00000000000E+00 0.  1.
<mgrwt>
<rscale>  0 0.18003529E+04</rscale>
<asrwt>0</asrwt>
<pdfrwt beam="1">  1        2 0.51418749E+00 0.18003529E+04</pdfrwt>
<pdfrwt beam="2">  1       -2 0.37299848E-01 0.18003529E+04</pdfrwt>
<totfact> 0.67208755E+00</totfact>
</mgrwt>
</event>
<event>
12    1  0.1549527E-007  0.1363086E+04  0.7818608E-02  0.8980981E-01
         -2   -1    0    0    0  501 -0.00000000000E+00  0.00000000000E+00  0.15348469979E+04  0.15348469979E+04  0.00000000000E+00 0.  1.
          2   -1    0    0  501    0  0.00000000000E+00 -0.00000000000E+00 -0.30263650549E+03  0.30263650549E+03  0.00000000000E+00 0. -1.
         23    2    1    2    0    0 -0.21145270052E+03  0.22381274579E+03  0.62940765447E+03  0.70666904139E+03  0.91775534962E+02 0.  0.
        254    2    1    2    0    0  0.21145270052E+03 -0.22381274579E+03  0.60280283793E+03  0.11308144620E+04  0.90585081350E+03 0.  0.
        -24    2    4    4    0    0 -0.24842167892E+03 -0.31820068349E+03  0.72083231764E+02  0.41753495226E+03  0.78577595622E+02 0.  0.
         24    2    4    4    0    0  0.45987437944E+03  0.94387937693E+02  0.53071960617E+03  0.71327950974E+03  0.81919661797E+02 0.  0.
         13    1    3    3    0    0 -0.84822202082E+01  0.49374309075E+01  0.86976751898E+02  0.87528747588E+02  0.00000000000E+00 0. -1.
        -13    1    3    3    0    0 -0.20297048032E+03  0.21887531489E+03  0.54243090257E+03  0.61914029380E+03  0.00000000000E+00 0.  1.
          4    1    6    6  502    0  0.39253133193E+03  0.94247346320E+02  0.48883327795E+03  0.63397269852E+03  0.00000000000E+00 0. -1.
          3    1    5    5  503    0 -0.20065769150E+03 -0.25952590691E+03  0.89206982810E+02  0.33996336758E+03  0.00000000000E+00 0. -1.
         -4    1    5    5    0  503 -0.47763987414E+02 -0.58674776578E+02 -0.17123751046E+02  0.77571584682E+02  0.00000000000E+00 0.  1.
         -3    1    6    6    0  502  0.67343047510E+02  0.14059137301E+00  0.41886328222E+02  0.79306811219E+02  0.00000000000E+00 0.  1.
<mgrwt>
<rscale>  0 0.13630858E+04</rscale>
<asrwt>0</asrwt>
<pdfrwt beam="1">  1        2 0.46559463E-01 0.13630858E+04</pdfrwt>
<pdfrwt beam="2">  1       -2 0.23613030E+00 0.13630858E+04</pdfrwt>
<totfact> 0.83106103E+00</totfact>
</mgrwt>
</event>
<event>
12    1  0.1549527E-007  0.1620508E+04  0.7818608E-02  0.8808047E-01
          1   -1    0    0  501    0  0.00000000000E+00  0.00000000000E+00  0.17921953011E+04  0.17921953011E+04  0.00000000000E+00 0. -1.
         -1   -1    0    0    0  501 -0.00000000000E+00 -0.00000000000E+00 -0.36631709873E+03  0.36631709873E+03  0.00000000000E+00 0.  1.
         23    2    1    2    0    0 -0.22711074717E+03 -0.48582718762E+03  0.85006126904E+03  0.10091777335E+04  0.90709365199E+02 0.  0.
        254    2    1    2    0    0  0.22711074717E+03  0.48582718762E+03  0.57581693331E+03  0.11493346663E+04  0.83773366103E+03 0.  0.
        -24    2    4    4    0    0  0.31702236490E+02  0.49036985769E+03 -0.39092652345E+02  0.49902362026E+03  0.77644761426E+02 0.  0.
         24    2    4    4    0    0  0.19540851068E+03 -0.45426700680E+01  0.61490958566E+03  0.65031104607E+03  0.81151316770E+02 0.  0.
         11    1    3    3    0    0  0.39962520285E+01 -0.43778394188E+01  0.29818206135E+02  0.30401659911E+02  0.00000000000E+00 0.  1.
        -11    1    3    3    0    0 -0.23110699920E+03 -0.48144934820E+03  0.82024306291E+03  0.97877607358E+03  0.00000000000E+00 0. -1.
          2    1    6    6  502    0  0.13843998645E+03  0.32202621489E+02  0.45321788537E+03  0.47498325265E+03  0.00000000000E+00 0. -1.
          1    1    5    5  503    0  0.10504403631E+02  0.18171842349E+03 -0.52227518677E+02  0.18936642162E+03  0.00000000000E+00 0. -1.
         -2    1    5    5    0  503  0.21197832859E+02  0.30865143420E+03  0.13134866332E+02  0.30965719863E+03  0.00000000000E+00 0.  1.
         -1    1    6    6    0  502  0.56968524233E+02 -0.36745291557E+02  0.16169170029E+03  0.17532779342E+03  0.00000000000E+00 0.  1.
<mgrwt>
<rscale>  0 0.16205083E+04</rscale>
<asrwt>0</asrwt>
<pdfrwt beam="1">  1        1 0.27572235E+00 0.16205083E+04</pdfrwt>
<pdfrwt beam="2">  1       -1 0.56356478E-01 0.16205083E+04</pdfrwt>
<totfact> 0.12588308E+01</totfact>
</mgrwt>
</event>
<event>
12    1  0.1549527E-007  0.2438715E+04  0.7818608E-02  0.8425150E-01
          3   -1    0    0  501    0  0.00000000000E+00  0.00000000000E+00  0.13706717001E+04  0.13706717001E+04  0.00000000000E+00 0. -1.
         -3   -1    0    0    0  501 -0.00000000000E+00 -0.00000000000E+00 -0.10847474342E+04  0.10847474342E+04  0.00000000000E+00 0.  1.
         23    2    1    2    0    0  0.55105659568E+03 -0.65848133381E+03  0.72884754988E+03  0.11298630646E+04  0.90059731551E+02 0.  0.
        254    2    1    2    0    0 -0.55105659568E+03  0.65848133381E+03 -0.44292328406E+03  0.13255560697E+04  0.90755540857E+03 0.  0.
        -24    2    4    4    0    0 -0.54024345978E+03 -0.22715268163E+02 -0.87765976677E+02  0.55311097169E+03  0.76484646138E+02 0.  0.
         24    2    4    4    0    0 -0.10813135897E+02  0.68119660197E+03 -0.35515730738E+03  0.77244509797E+03  0.79931107460E+02 0.  0.
         13    1    3    3    0    0  0.45244081356E+03 -0.51090586606E+03  0.53600981735E+03  0.86777532694E+03  0.00000000000E+00 0.  1.
        -13    1    3    3    0    0  0.98615782125E+02 -0.14757546775E+03  0.19283773253E+03  0.26208773770E+03  0.00000000000E+00 0. -1.
          4    1    6    6  502    0 -0.19535653939E+02  0.13802094793E+03 -0.42889892263E+02  0.14584569483E+03  0.00000000000E+00 0. -1.
          1    1    5    5  503    0 -0.25827525551E+03 -0.48345065288E+02 -0.34552191520E+02  0.26502303086E+03  0.00000000000E+00 0. -1.
         -4    1    5    5    0  503 -0.28196820427E+03  0.25629797125E+02 -0.53213785156E+02  0.28808794083E+03  0.00000000000E+00 0.  1.
         -3    1    6    6    0  502  0.87225180413E+01  0.54317565404E+03 -0.31226741512E+03  0.62659940314E+03  0.00000000000E+00 0.  1.
<mgrwt>
<rscale>  0 0.24387149E+04</rscale>
<asrwt>0</asrwt>
<pdfrwt beam="1">  1        3 0.21087257E+00 0.24387149E+04</pdfrwt>
<pdfrwt beam="2">  1       -3 0.16688422E+00 0.24387149E+04</pdfrwt>
<totfact> 0.71580827E-02</totfact>
</mgrwt>
</event>
<event>
12    1  0.1549527E-007  0.2636546E+04  0.7818608E-02  0.8355892E-01
         -1   -1    0    0    0  501 -0.00000000000E+00  0.00000000000E+00  0.66957310383E+03  0.66957310383E+03  0.00000000000E+00 0.  1.
          1   -1    0    0  501    0  0.00000000000E+00 -0.00000000000E+00 -0.25954493567E+04  0.25954493567E+04  0.00000000000E+00 0. -1.
         23    2    1    2    0    0 -0.10460358364E+04  0.32385163763E+03 -0.13279475349E+04  0.17234836334E+04  0.88771193898E+02 0.  0.
        254    2    1    2    0    0  0.10460358364E+04 -0.32385163763E+03 -0.59792871793E+03  0.15415388271E+04  0.90540176130E+03 0.  0.
        -24    2    4    4    0    0  0.55596622762E+03  0.21760927518E+03 -0.13036859879E+02  0.60251908644E+03  0.80044031083E+02 0.  0.
         24    2    4    4    0    0  0.49006960883E+03 -0.54146091281E+03 -0.58489185805E+03  0.93901974064E+03  0.79444610325E+02 0.  0.
         13    1    3    3    0    0 -0.91554183332E+02  0.23613901569E+02 -0.79391403537E+02  0.12346165311E+03  0.00000000000E+00 0.  1.
        -13    1    3    3    0    0 -0.95448165311E+03  0.30023773606E+03 -0.12485561314E+04  0.16000219803E+04  0.00000000000E+00 0. -1.
          4    1    6    6  502    0  0.39285216890E+03 -0.45412374019E+03 -0.44358432087E+03  0.74654420347E+03  0.00000000000E+00 0. -1.
          1    1    5    5  503    0  0.47069498327E+03  0.21381529939E+03 -0.87648860534E+01  0.51705664366E+03  0.00000000000E+00 0. -1.
         -2    1    5    5    0  503  0.85271244348E+02  0.37939757909E+01 -0.42719738254E+01  0.85462442776E+02  0.00000000000E+00 0.  1.
         -3    1    6    6    0  502  0.97217439926E+02 -0.87337172626E+02 -0.14130753717E+03  0.19247553717E+03  0.00000000000E+00 0.  1.
<mgrwt>
<rscale>  0 0.26365455E+04</rscale>
<asrwt>0</asrwt>
<pdfrwt beam="1">  1        1 0.39929990E+00 0.26365455E+04</pdfrwt>
<pdfrwt beam="2">  1       -1 0.10301125E+00 0.26365455E+04</pdfrwt>
<totfact> 0.90791091E-01</totfact>
</mgrwt>
</event>
<event>
12    1  0.1549527E-007  0.1687684E+04  0.7818608E-02  0.8768420E-01
          1   -1    0    0  501    0  0.00000000000E+00  0.00000000000E+00  0.12277779760E+04  0.12277779760E+04  0.00000000000E+00 0. -1.
         -1   -1    0    0    0  501 -0.00000000000E+00 -0.00000000000E+00 -0.57996573197E+03  0.57996573197E+03  0.00000000000E+00 0.  1.
         23    2    1    2    0    0 -0.59355632662E+03 -0.40196770453E+02  0.29637833698E+03  0.67144210716E+03  0.95233877420E+02 0.  0.
        254    2    1    2    0    0  0.59355632662E+03  0.40196770453E+02  0.35143390700E+03  0.11363016008E+04  0.90208128442E+03 0.  0.
        -24    2    4    4    0    0 -0.19301502865E+03  0.16316945842E+03  0.17276528011E+03  0.31649313723E+03  0.80255781475E+02 0.  0.
         24    2    4    4    0    0  0.78657135527E+03 -0.12297268796E+03  0.17866862689E+03  0.81980846354E+03  0.79665925849E+02 0.  0.
         11    1    3    3    0    0 -0.20037827862E+03  0.12758462802E+02  0.59666960516E+02  0.20946211852E+03  0.00000000000E+00 0. -1.
        -11    1    3    3    0    0 -0.39317804799E+03 -0.52955233255E+02  0.23671137647E+03  0.46197998864E+03  0.00000000000E+00 0.  1.
          4    1    6    6  502    0  0.22976339954E+03 -0.66050932072E+02  0.75183221902E+02  0.25061217498E+03  0.00000000000E+00 0. -1.
          3    1    5    5  503    0 -0.16736975297E+03  0.14270712553E+03  0.11057723667E+03  0.24618140294E+03  0.00000000000E+00 0. -1.
         -4    1    5    5    0  503 -0.25645275683E+02  0.20462332883E+02  0.62188043441E+02  0.70311734290E+02  0.00000000000E+00 0.  1.
         -3    1    6    6    0  502  0.55680795573E+03 -0.56921755891E+02  0.10348540499E+03  0.56919628855E+03  0.00000000000E+00 0.  1.
<mgrwt>
<rscale>  0 0.16876838E+04</rscale>
<asrwt>0</asrwt>
<pdfrwt beam="1">  1        1 0.18888892E+00 0.16876838E+04</pdfrwt>
<pdfrwt beam="2">  1       -1 0.89225497E-01 0.16876838E+04</pdfrwt>
<totfact> 0.11962148E+01</totfact>
</mgrwt>
</event>
<event>
12    1  0.1549527E-007  0.1629628E+04  0.7818608E-02  0.8802550E-01
         -2   -1    0    0    0  501 -0.00000000000E+00  0.00000000000E+00  0.84662579249E+03  0.84662579249E+03  0.00000000000E+00 0.  1.
          2   -1    0    0  501    0  0.00000000000E+00 -0.00000000000E+00 -0.78419744287E+03  0.78419744287E+03  0.00000000000E+00 0. -1.
         23    2    1    2    0    0 -0.44879459620E+03 -0.25679282892E+03 -0.18505120261E+03  0.56383513846E+03  0.12769874399E+03 0.  0.
        254    2    1    2    0    0  0.44879459620E+03  0.25679282892E+03  0.24747955222E+03  0.10669880969E+04  0.89992128744E+03 0.  0.
        -24    2    4    4    0    0  0.52499932217E+02 -0.30295735537E+03 -0.38105782418E+02  0.31988814037E+03  0.79605085533E+02 0.  0.
         24    2    4    4    0    0  0.39629466398E+03  0.55975018429E+03  0.28558533464E+03  0.74709995653E+03  0.78928018878E+02 0.  0.
         11    1    3    3    0    0 -0.39101159260E+03 -0.23179718138E+03 -0.20379153933E+03  0.49814755880E+03  0.00000000000E+00 0. -1.
        -11    1    3    3    0    0 -0.57783003600E+02 -0.24995647546E+02  0.18740336718E+02  0.65687579660E+02  0.00000000000E+00 0.  1.
          2    1    6    6  502    0  0.61921667459E+02  0.69832460608E+02  0.67279901998E+02  0.11505412061E+03  0.00000000000E+00 0. -1.
          1    1    5    5  503    0 -0.12524934885E+02 -0.28116873299E+02  0.12024472648E+02  0.33045733468E+02  0.00000000000E+00 0. -1.
         -2    1    5    5    0  503  0.65024867102E+02 -0.27484048207E+03 -0.50130255065E+02  0.28684240691E+03  0.00000000000E+00 0.  1.
         -1    1    6    6    0  502  0.33437299652E+03  0.48991772368E+03  0.21830543264E+03  0.63204583592E+03  0.00000000000E+00 0.  1.
<mgrwt>
<rscale>  0 0.16296279E+04</rscale>
<asrwt>0</asrwt>
<pdfrwt beam="1">  1        2 0.12064576E+00 0.16296279E+04</pdfrwt>
<pdfrwt beam="2">  1       -2 0.13025012E+00 0.16296279E+04</pdfrwt>
<totfact> 0.14622883E+01</totfact>
</mgrwt>
</event>
<event>
12    1  0.1549527E-007  0.1796734E+04  0.7818608E-02  0.8708038E-01
         -1   -1    0    0    0  501 -0.00000000000E+00  0.00000000000E+00  0.10168946518E+04  0.10168946518E+04  0.00000000000E+00 0.  1.
          1   -1    0    0  501    0  0.00000000000E+00 -0.00000000000E+00 -0.79365455444E+03  0.79365455444E+03  0.00000000000E+00 0. -1.
         23    2    1    2    0    0  0.41424361389E+03  0.17614416673E+03 -0.41643347245E+03  0.61992691062E+03  0.90928534653E+02 0.  0.
        254    2    1    2    0    0 -0.41424361389E+03 -0.17614416673E+03  0.63967356976E+03  0.11906222956E+04  0.89764950606E+03 0.  0.
        -24    2    4    4    0    0  0.17293273708E+02 -0.41573541806E+03  0.65557237507E+02  0.42884816304E+03  0.80486026166E+02 0.  0.
         24    2    4    4    0    0 -0.43153688760E+03  0.23959125133E+03  0.57411633226E+03  0.76177413253E+03  0.84036973748E+02 0.  0.
         11    1    3    3    0    0  0.26687334135E+02  0.31983079704E+02 -0.16937920282E+02  0.44966924890E+02  0.00000000000E+00 0.  1.
        -11    1    3    3    0    0  0.38755627976E+03  0.14416108702E+03 -0.39949555217E+03  0.57495998573E+03  0.00000000000E+00 0. -1.
          2    1    6    6  502    0 -0.26322303445E+03  0.12739285647E+03  0.28040355329E+03  0.40514375034E+03  0.00000000000E+00 0. -1.
          1    1    5    5  503    0 -0.12819033657E+02 -0.33894276263E+03  0.69645056711E+02  0.34626140109E+03  0.00000000000E+00 0. -1.
         -2    1    5    5    0  503  0.30112307366E+02 -0.76792655429E+02 -0.40878192041E+01  0.82586761945E+02  0.00000000000E+00 0.  1.
         -1    1    6    6    0  502 -0.16831385315E+03  0.11219839486E+03  0.29371277897E+03  0.35663038219E+03  0.00000000000E+00 0.  1.
<mgrwt>
<rscale>  0 0.17967338E+04</rscale>
<asrwt>0</asrwt>
<pdfrwt beam="1">  1        1 0.12210070E+00 0.17967338E+04</pdfrwt>
<pdfrwt beam="2">  1       -1 0.15644533E+00 0.17967338E+04</pdfrwt>
<totfact> 0.65753208E+00</totfact>
</mgrwt>
</event>
<event>
12    1  0.1549527E-007  0.1083511E+04  0.7818608E-02  0.9221413E-01
          2   -1    0    0  501    0  0.00000000000E+00  0.00000000000E+00  0.17913514401E+04  0.17913514401E+04  0.00000000000E+00 0. -1.
         -2   -1    0    0    0  501 -0.00000000000E+00 -0.00000000000E+00 -0.16384236296E+03  0.16384236296E+03  0.00000000000E+00 0.  1.
         23    2    1    2    0    0  0.12813716754E+02  0.48608567253E+02  0.49029823215E+03  0.50094039812E+03  0.89565293897E+02 0.  0.
        254    2    1    2    0    0 -0.12813716754E+02 -0.48608567253E+02  0.11372108450E+04  0.14542534050E+04  0.90502899163E+03 0.  0.
        -24    2    4    4    0    0 -0.21140380993E+03 -0.19900763983E+03  0.11548768235E+04  0.11933832845E+04  0.78278825777E+02 0.  0.
         24    2    4    4    0    0  0.19859009318E+03  0.15039907258E+03 -0.17665978502E+02  0.26087012050E+03  0.75387179514E+02 0.  0.
         11    1    3    3    0    0  0.30306989058E+01  0.74432905656E+02  0.38040731513E+03  0.38763277466E+03  0.00000000000E+00 0.  1.
        -11    1    3    3    0    0  0.97830178483E+01 -0.25824338403E+02  0.10989091701E+03  0.11330762346E+03  0.00000000000E+00 0. -1.
          4    1    6    6  502    0  0.13400432270E+03  0.13050964102E+03 -0.36785362144E+02  0.19063863136E+03  0.00000000000E+00 0. -1.
          3    1    5    5  503    0 -0.16379233774E+03 -0.16656342646E+03  0.10252865524E+04  0.10515625609E+04  0.00000000000E+00 0. -1.
         -4    1    5    5    0  503 -0.47611472190E+02 -0.32444213373E+02  0.12959027114E+03  0.14182072359E+03  0.00000000000E+00 0.  1.
         -3    1    6    6    0  502  0.64585770480E+02  0.19889431565E+02  0.19119383642E+02  0.70231489143E+02  0.00000000000E+00 0.  1.
<mgrwt>
<rscale>  0 0.10835114E+04</rscale>
<asrwt>0</asrwt>
<pdfrwt beam="1">  1        2 0.27559252E+00 0.10835114E+04</pdfrwt>
<pdfrwt beam="2">  1       -2 0.25206519E-01 0.10835114E+04</pdfrwt>
<totfact> 0.12261867E+02</totfact>
</mgrwt>
</event>
<event>
12    1  0.1549527E-007  0.1996016E+04  0.7818608E-02  0.8608486E-01
         -1   -1    0    0    0  501 -0.00000000000E+00  0.00000000000E+00  0.12789197901E+04  0.12789197901E+04  0.00000000000E+00 0.  1.
          1   -1    0    0  501    0  0.00000000000E+00 -0.00000000000E+00 -0.77879770729E+03  0.77879770729E+03  0.00000000000E+00 0. -1.
         23    2    1    2    0    0 -0.37342405149E+03  0.34819625435E+02  0.91621858623E+03  0.99373342317E+03  0.85974938425E+02 0.  0.
        254    2    1    2    0    0  0.37342405149E+03 -0.34819625435E+02 -0.41609650344E+03  0.10639840742E+04  0.90458160572E+03 0.  0.
        -24    2    4    4    0    0  0.42351518193E+03  0.35724616433E+03 -0.33565368132E+03  0.65298597116E+03  0.82081383307E+02 0.  0.
         24    2    4    4    0    0 -0.50091130447E+02 -0.39206578977E+03 -0.80442822121E+02  0.41099810304E+03  0.78890355637E+02 0.  0.
         11    1    3    3    0    0 -0.11280403605E+03  0.50025341357E+02  0.27571573499E+03  0.30207027634E+03  0.00000000000E+00 0. -1.
        -11    1    3    3    0    0 -0.26062001544E+03 -0.15205715922E+02  0.64050285123E+03  0.69166314683E+03  0.00000000000E+00 0.  1.
          4    1    6    6  502    0  0.37599027411E+01 -0.20334176857E+03 -0.67618620414E+02  0.21432286285E+03  0.00000000000E+00 0. -1.
          3    1    5    5  503    0  0.34046201737E+03  0.30502998571E+03 -0.24141363400E+03  0.51695088755E+03  0.00000000000E+00 0. -1.
         -4    1    5    5    0  503  0.83053164568E+02  0.52216178620E+02 -0.94240047321E+02  0.13603508361E+03  0.00000000000E+00 0.  1.
         -3    1    6    6    0  502 -0.53851033188E+02 -0.18872402120E+03 -0.12824201707E+02  0.19667524019E+03  0.00000000000E+00 0.  1.
<mgrwt>
<rscale>  0 0.19960158E+04</rscale>
<asrwt>0</asrwt>
<pdfrwt beam="1">  1        1 0.11981503E+00 0.19960158E+04</pdfrwt>
<pdfrwt beam="2">  1       -1 0.19675689E+00 0.19960158E+04</pdfrwt>
<totfact> 0.33941491E+00</totfact>
</mgrwt>
</event>
<event>
12    1  0.1549527E-007  0.1877714E+04  0.7818608E-02  0.8666030E-01
         -1   -1    0    0    0  501 -0.00000000000E+00  0.00000000000E+00  0.33727785568E+03  0.33727785568E+03  0.00000000000E+00 0.  1.
          1   -1    0    0  501    0  0.00000000000E+00 -0.00000000000E+00 -0.26134317494E+04  0.26134317494E+04  0.00000000000E+00 0. -1.
         23    2    1    2    0    0 -0.21704266596E+03  0.23623282977E+03 -0.18895522621E+04  0.19187821010E+04  0.91670775088E+02 0.  0.
        254    2    1    2    0    0  0.21704266596E+03 -0.23623282977E+03 -0.38660163154E+03  0.10319275040E+04  0.90138786511E+03 0.  0.
        -24    2    4    4    0    0  0.18771126892E+03  0.21663543117E+03  0.14290593976E+03  0.33027609257E+03  0.80583864313E+02 0.  0.
         24    2    4    4    0    0  0.29331397044E+02 -0.45286826094E+03 -0.52950757130E+03  0.70165141147E+03  0.77372104399E+02 0.  0.
         13    1    3    3    0    0 -0.16408135491E+03  0.22518770590E+03 -0.16313598512E+04  0.16549825250E+04  0.00000000000E+00 0. -1.
        -13    1    3    3    0    0 -0.52961311049E+02  0.11045123873E+02 -0.25819241093E+03  0.26379957599E+03  0.00000000000E+00 0.  1.
          2    1    6    6  502    0 -0.14110856993E+02 -0.28781849017E+02 -0.22121709329E+02  0.38947158324E+02  0.00000000000E+00 0. -1.
          3    1    5    5  503    0  0.90585109618E+02  0.71368751467E+02  0.21020251350E+02  0.11722206165E+03  0.00000000000E+00 0. -1.
         -4    1    5    5    0  503  0.97126159298E+02  0.14526667970E+03  0.12188568841E+03  0.21305403092E+03  0.00000000000E+00 0.  1.
         -1    1    6    6    0  502  0.43442254037E+02 -0.42408641192E+03 -0.50738586197E+03  0.66270425315E+03  0.00000000000E+00 0.  1.
<mgrwt>
<rscale>  0 0.18777142E+04</rscale>
<asrwt>0</asrwt>
<pdfrwt beam="1">  1        1 0.40206642E+00 0.18777142E+04</pdfrwt>
<pdfrwt beam="2">  1       -1 0.51888901E-01 0.18777142E+04</pdfrwt>
<totfact> 0.39618298E+00</totfact>
</mgrwt>
</event>
<event>
12    1  0.1549527E-007  0.2136468E+04  0.7818608E-02  0.8545347E-01
         -2   -1    0    0    0  501 -0.00000000000E+00  0.00000000000E+00  0.30447014730E+03  0.30447014730E+03  0.00000000000E+00 0.  1.
          2   -1    0    0  501    0  0.00000000000E+00 -0.00000000000E+00 -0.37479000102E+04  0.37479000102E+04  0.00000000000E+00 0. -1.
         23    2    1    2    0    0  0.69393344578E+03  0.52578973860E+03 -0.13864098595E+04  0.16396202858E+04  0.90685757977E+02 0.  0.
        254    2    1    2    0    0 -0.69393344578E+03 -0.52578973860E+03 -0.20570200033E+04  0.24127498717E+04  0.91215797571E+03 0.  0.
        -24    2    4    4    0    0 -0.21856876677E+03 -0.63112747226E+02  0.10503277217E+02  0.24008709699E+03  0.75999806827E+02 0.  0.
         24    2    4    4    0    0 -0.47536467901E+03 -0.46267699137E+03 -0.20675232806E+04  0.21726627747E+04  0.75956832367E+02 0.  0.
         11    1    3    3    0    0  0.93306928626E+01  0.91332883271E+01 -0.49896902806E+02  0.51576929868E+02  0.00000000000E+00 0. -1.
        -11    1    3    3    0    0  0.68460275292E+03  0.51665645027E+03 -0.13365129567E+04  0.15880433560E+04  0.00000000000E+00 0.  1.
          2    1    6    6  502    0 -0.20133607704E+03 -0.18272778219E+03 -0.73173673376E+03  0.78061790002E+03  0.00000000000E+00 0. -1.
          1    1    5    5  503    0 -0.50323355951E+02 -0.26768826257E+02  0.33991321544E+02  0.66365805606E+02  0.00000000000E+00 0. -1.
         -2    1    5    5    0  503 -0.16824541082E+03 -0.36343920968E+02 -0.23488044327E+02  0.17372129138E+03  0.00000000000E+00 0.  1.
         -1    1    6    6    0  502 -0.27402860197E+03 -0.27994920918E+03 -0.13357865468E+04  0.13920448747E+04  0.00000000000E+00 0.  1.
<mgrwt>
<rscale>  0 0.21364678E+04</rscale>
<asrwt>0</asrwt>
<pdfrwt beam="1">  1        2 0.57660001E+00 0.21364678E+04</pdfrwt>
<pdfrwt beam="2">  1       -2 0.46841560E-01 0.21364678E+04</pdfrwt>
<totfact> 0.21472199E+00</totfact>
</mgrwt>
</event>
<event>
12    1  0.1549527E-007  0.1405911E+04  0.7818608E-02  0.8949551E-01
          2   -1    0    0  501    0  0.00000000000E+00  0.00000000000E+00  0.10459954704E+04  0.10459954704E+04  0.00000000000E+00 0. -1.
         -2   -1    0    0    0  501 -0.00000000000E+00 -0.00000000000E+00 -0.47241738348E+03  0.47241738348E+03  0.00000000000E+00 0.  1.
         23    2    1    2    0    0 -0.16945679040E+03 -0.27545351625E+03 -0.99344548875E+02  0.35040195375E+03  0.91224702656E+02 0.  0.
        254    2    1    2    0    0  0.16945679040E+03  0.27545351625E+03  0.67292263577E+03  0.11680109001E+04  0.89823958142E+03 0.  0.
        -24    2    4    4    0    0  0.48445735855E+03  0.59622207890E+02  0.15217416129E+03  0.51757429995E+03  0.80451480250E+02 0.  0.
         24    2    4    4    0    0 -0.31500056816E+03  0.21583130836E+03  0.52074847447E+03  0.65043660016E+03  0.77976185846E+02 0.  0.
         13    1    3    3    0    0 -0.27694997985E+01 -0.64754237585E+02 -0.26429474414E+01  0.64867299817E+02  0.00000000000E+00 0. -1.
        -13    1    3    3    0    0 -0.16668729060E+03 -0.21069927866E+03 -0.96701601433E+02  0.28553465393E+03  0.00000000000E+00 0.  1.
          4    1    6    6  502    0 -0.15517382037E+03  0.13155302192E+03  0.33024043604E+03  0.38787092917E+03  0.00000000000E+00 0. -1.
          1    1    5    5  503    0  0.29430639992E+02 -0.14355801913E+02  0.23144291494E+01  0.32826943220E+02  0.00000000000E+00 0. -1.
         -2    1    5    5    0  503  0.45502671856E+03  0.73978009803E+02  0.14985973214E+03  0.48474735673E+03  0.00000000000E+00 0.  1.
         -3    1    6    6    0  502 -0.15982674779E+03  0.84278286434E+02  0.19050803844E+03  0.26256567099E+03  0.00000000000E+00 0.  1.
<mgrwt>
<rscale>  0 0.14059110E+04</rscale>
<asrwt>0</asrwt>
<pdfrwt beam="1">  1        2 0.16092238E+00 0.14059110E+04</pdfrwt>
<pdfrwt beam="2">  1       -2 0.72679598E-01 0.14059110E+04</pdfrwt>
<totfact> 0.39218918E+01</totfact>
</mgrwt>
</event>
<event>
12    1  0.1549527E-007  0.1279427E+04  0.7818608E-02  0.9046041E-01
         -1   -1    0    0    0  501 -0.00000000000E+00  0.00000000000E+00  0.40969835666E+03  0.40969835666E+03  0.00000000000E+00 0. -1.
          1   -1    0    0  501    0  0.00000000000E+00 -0.00000000000E+00 -0.99886520230E+03  0.99886520230E+03  0.00000000000E+00 0.  1.
         23    2    1    2    0    0  0.28731554952E+03 -0.58543845651E+02 -0.55070081196E+02  0.31735857974E+03  0.10819495105E+03 0.  0.
        254    2    1    2    0    0 -0.28731554952E+03  0.58543845651E+02 -0.53409676445E+03  0.10912049792E+04  0.90525761306E+03 0.  0.
        -24    2    4    4    0    0 -0.37054941357E+03 -0.35661489804E+03 -0.28067235939E+03  0.59119168230E+03  0.79054275627E+02 0.  0.
         24    2    4    4    0    0  0.83233864047E+02  0.41515874369E+03 -0.25342440506E+03  0.50001329692E+03  0.80651778852E+02 0.  0.
         11    1    3    3    0    0  0.13553786232E+03  0.11866703638E+01  0.21387131275E+02  0.13722000471E+03  0.00000000000E+00 0. -1.
        -11    1    3    3    0    0  0.15177768720E+03 -0.59730516015E+02 -0.76457212471E+02  0.18013857503E+03  0.00000000000E+00 0.  1.
          2    1    6    6  502    0 -0.58955627205E+01 -0.47429472047E+00 -0.42523343649E+01  0.72845701880E+01  0.00000000000E+00 0. -1.
          3    1    5    5  503    0  0.30579165179E+01 -0.10366398905E+02 -0.77683189325E+01  0.13310141199E+02  0.00000000000E+00 0. -1.
         -4    1    5    5    0  503 -0.37360733009E+03 -0.34624849913E+03 -0.27290404045E+03  0.57788154110E+03  0.00000000000E+00 0.  1.
         -1    1    6    6    0  502  0.89129426767E+02  0.41563303841E+03 -0.24917207070E+03  0.49272872673E+03  0.00000000000E+00 0.  1.
<mgrwt>
<rscale>  0 0.12794271E+04</rscale>
<asrwt>0</asrwt>
<pdfrwt beam="1">  1        1 0.15367157E+00 0.12794271E+04</pdfrwt>
<pdfrwt beam="2">  1       -1 0.63030517E-01 0.12794271E+04</pdfrwt>
<totfact> 0.38092550E+01</totfact>
</mgrwt>
</event>
<event>
12    1  0.1549527E-007  0.1596569E+04  0.7818608E-02  0.8822659E-01
          1   -1    0    0  501    0  0.00000000000E+00  0.00000000000E+00  0.15434001426E+04  0.15434001426E+04  0.00000000000E+00 0. -1.
         -1   -1    0    0    0  501 -0.00000000000E+00 -0.00000000000E+00 -0.41289220169E+03  0.41289220169E+03  0.00000000000E+00 0.  1.
         23    2    1    2    0    0 -0.19225050875E+03  0.13500499592E+03 -0.20818268748E+03  0.32664581266E+03  0.90392745990E+02 0.  0.
        254    2    1    2    0    0  0.19225050875E+03 -0.13500499592E+03  0.13386906284E+04  0.16296465316E+04  0.89914882665E+03 0.  0.
        -24    2    4    4    0    0  0.16422652853E+03 -0.20425215079E+03 -0.12191584469E+02  0.27436365423E+03  0.80233947015E+02 0.  0.
         24    2    4    4    0    0  0.28023980215E+02  0.69247154874E+02  0.13508822128E+04  0.13552828774E+04  0.79551322001E+02 0.  0.
         11    1    3    3    0    0 -0.95310657864E+02  0.90526292749E+02 -0.16649505819E+03  0.21213141112E+03  0.00000000000E+00 0.  1.
        -11    1    3    3    0    0 -0.96939850883E+02  0.44478703167E+02 -0.41687629283E+02  0.11451440154E+03  0.00000000000E+00 0. -1.
          4    1    6    6  502    0  0.28985051755E+02  0.52926629510E+02  0.13079792330E+04  0.13093704729E+04  0.00000000000E+00 0. -1.
          3    1    5    5  503    0  0.16712109234E+03 -0.20766022170E+03 -0.17848295174E+02  0.26715311868E+03  0.00000000000E+00 0. -1.
         -4    1    5    5    0  503 -0.28945638029E+01  0.34080709077E+01  0.56567107050E+01  0.72105355502E+01  0.00000000000E+00 0.  1.
         -3    1    6    6    0  502 -0.96107154031E+00  0.16320525363E+02  0.42902979881E+02  0.45912404526E+02  0.00000000000E+00 0.  1.
<mgrwt>
<rscale>  0 0.15965687E+04</rscale>
<asrwt>0</asrwt>
<pdfrwt beam="1">  1        1 0.23744617E+00 0.15965687E+04</pdfrwt>
<pdfrwt beam="2">  1       -1 0.63521878E-01 0.15965687E+04</pdfrwt>
<totfact> 0.14725869E+01</totfact>
</mgrwt>
</event>
<event>
12    1  0.1549527E-007  0.1455002E+04  0.7818608E-02  0.8914940E-01
         -2   -1    0    0    0  501 -0.00000000000E+00  0.00000000000E+00  0.36655642433E+03  0.36655642433E+03  0.00000000000E+00 0.  1.
          2   -1    0    0  501    0  0.00000000000E+00 -0.00000000000E+00 -0.14438648441E+04  0.14438648441E+04  0.00000000000E+00 0. -1.
         23    2    1    2    0    0  0.16260000629E+03 -0.18558687110E+03 -0.81450787665E+03  0.85622670233E+03  0.93913981311E+02 0.  0.
        254    2    1    2    0    0 -0.16260000629E+03  0.18558687110E+03 -0.26280054312E+03  0.95419456611E+03  0.88348282143E+03 0.  0.
        -24    2    4    4    0    0 -0.50539512141E+03 -0.72399230441E+01 -0.99002370729E+02  0.52131647300E+03  0.80577604702E+02 0.  0.
         24    2    4    4    0    0  0.34279511512E+03  0.19282679414E+03 -0.16379817239E+03  0.43287809311E+03  0.76569829085E+02 0.  0.
         11    1    3    3    0    0  0.12736377934E+03 -0.17433261007E+03 -0.76201496373E+03  0.79201022479E+03  0.00000000000E+00 0. -1.
        -11    1    3    3    0    0  0.35236226947E+02 -0.11254261031E+02 -0.52492912922E+02  0.64216477542E+02  0.00000000000E+00 0.  1.
          2    1    6    6  502    0  0.10228672830E+03  0.42787755726E+02 -0.12557679681E+02  0.11158432750E+03  0.00000000000E+00 0. -1.
          1    1    5    5  503    0 -0.34580369439E+03 -0.39073578900E+02 -0.83229360071E+02  0.35781848191E+03  0.00000000000E+00 0. -1.
         -2    1    5    5    0  503 -0.15959142703E+03  0.31833655856E+02 -0.15773010658E+02  0.16349799109E+03  0.00000000000E+00 0.  1.
         -1    1    6    6    0  502  0.24050838683E+03  0.15003903842E+03 -0.15124049271E+03  0.32129376561E+03  0.00000000000E+00 0.  1.
<mgrwt>
<rscale>  0 0.14550023E+04</rscale>
<asrwt>0</asrwt>
<pdfrwt beam="1">  1        2 0.22213306E+00 0.14550023E+04</pdfrwt>
<pdfrwt beam="2">  1       -2 0.56393295E-01 0.14550023E+04</pdfrwt>
<totfact> 0.39068298E+01</totfact>
</mgrwt>
</event>
<event>
12    1  0.1549527E-007  0.1641969E+04  0.7818608E-02  0.8795172E-01
         -1   -1    0    0    0  501 -0.00000000000E+00  0.00000000000E+00  0.78864965463E+03  0.78864965463E+03  0.00000000000E+00 0.  1.
          1   -1    0    0  501    0  0.00000000000E+00 -0.00000000000E+00 -0.85464546793E+03  0.85464546793E+03  0.00000000000E+00 0. -1.
         23    2    1    2    0    0  0.99817235918E+02  0.36419363821E+02 -0.58834352730E+03  0.60514994931E+03  0.93640292532E+02 0.  0.
        254    2    1    2    0    0 -0.99817235918E+02 -0.36419363821E+02  0.52234771401E+03  0.10381451732E+04  0.89084702153E+03 0.  0.
        -24    2    4    4    0    0  0.38465007866E+03 -0.92996152068E+02  0.21180127606E+03  0.45465061757E+03  0.72411575068E+02 0.  0.
         24    2    4    4    0    0 -0.48446731458E+03  0.56576788247E+02  0.31054643795E+03  0.58349455568E+03  0.78213135199E+02 0.  0.
         11    1    3    3    0    0  0.11246019084E+03  0.45415793556E+02 -0.55845568630E+03  0.57147409599E+03  0.00000000000E+00 0. -1.
        -11    1    3    3    0    0 -0.12642954920E+02 -0.89964297351E+01 -0.29887841005E+02  0.33675853323E+02  0.00000000000E+00 0.  1.
          4    1    6    6  502    0 -0.37221684739E+03  0.51981311397E+02  0.27487851344E+03  0.46562392053E+03  0.00000000000E+00 0. -1.
          3    1    5    5  503    0  0.37811017638E+03 -0.85512955415E+02  0.19223603731E+03  0.43270597993E+03  0.00000000000E+00 0. -1.
         -4    1    5    5    0  503  0.65399022836E+01 -0.74831966530E+01  0.19565238748E+02  0.21944637643E+02  0.00000000000E+00 0.  1.
         -3    1    6    6    0  502 -0.11225046719E+03  0.45954768507E+01  0.35667924505E+02  0.11787063515E+03  0.00000000000E+00 0.  1.
<mgrwt>
<rscale>  0 0.16419694E+04</rscale>
<asrwt>0</asrwt>
<pdfrwt beam="1">  1        1 0.13148392E+00 0.16419694E+04</pdfrwt>
<pdfrwt beam="2">  1       -1 0.12133071E+00 0.16419694E+04</pdfrwt>
<totfact> 0.11437811E+01</totfact>
</mgrwt>
</event>
<event>
12    1  0.1549527E-007  0.2011258E+04  0.7818608E-02  0.8601375E-01
         -1   -1    0    0    0  501 -0.00000000000E+00  0.00000000000E+00  0.87930948742E+03  0.87930948742E+03  0.00000000000E+00 0.  1.
          1   -1    0    0  501    0  0.00000000000E+00 -0.00000000000E+00 -0.11500956366E+04  0.11500956366E+04  0.00000000000E+00 0. -1.
         23    2    1    2    0    0  0.43377830314E+03 -0.45043714032E+03  0.40266847654E+03  0.74933920890E+03  0.91159828575E+02 0.  0.
        254    2    1    2    0    0 -0.43377830314E+03  0.45043714032E+03 -0.67345462575E+03  0.12800659152E+04  0.89105015602E+03 0.  0.
        -24    2    4    4    0    0 -0.12421057822E+03  0.10274402473E+03 -0.77570767293E+03  0.79660374909E+03  0.82888701627E+02 0.  0.
         24    2    4    4    0    0 -0.30956772492E+03  0.34769311559E+03  0.10225304718E+03  0.48346216607E+03  0.80977166080E+02 0.  0.
         13    1    3    3    0    0  0.37648428429E+02 -0.15171211422E+02  0.45185609376E+02  0.60739683189E+02  0.00000000000E+00 0. -1.
        -13    1    3    3    0    0  0.39612987471E+03 -0.43526592890E+03  0.35748286716E+03  0.68859952571E+03  0.00000000000E+00 0.  1.
          2    1    6    6  502    0 -0.21645037857E+03  0.19540358365E+03  0.39585864602E+02  0.29427940390E+03  0.00000000000E+00 0. -1.
          3    1    5    5  503    0 -0.12319595890E+03  0.10402464244E+03 -0.77757840784E+03  0.79411998518E+03  0.00000000000E+00 0. -1.
         -4    1    5    5    0  503 -0.10146193142E+01 -0.12806177092E+01  0.18707349060E+01  0.24837639095E+01  0.00000000000E+00 0.  1.
         -1    1    6    6    0  502 -0.93117346352E+02  0.15228953194E+03  0.62667182574E+02  0.18918276217E+03  0.00000000000E+00 0.  1.
<mgrwt>
<rscale>  0 0.20112583E+04</rscale>
<asrwt>0</asrwt>
<pdfrwt beam="1">  1        1 0.17693779E+00 0.20112583E+04</pdfrwt>
<pdfrwt beam="2">  1       -1 0.13527838E+00 0.20112583E+04</pdfrwt>
<totfact> 0.49393149E+00</totfact>
</mgrwt>
</event>
<event>
12    1  0.1549527E-007  0.2626085E+04  0.7818608E-02  0.8359394E-01
         -1   -1    0    0    0  501 -0.00000000000E+00  0.00000000000E+00  0.11708945732E+04  0.11708945732E+04  0.00000000000E+00 0.  1.
          1   -1    0    0  501    0  0.00000000000E+00 -0.00000000000E+00 -0.14724470648E+04  0.14724470648E+04  0.00000000000E+00 0. -1.
         23    2    1    2    0    0 -0.91745319757E+02  0.86401225770E+00 -0.12942827887E+04  0.13005391777E+04  0.88409645681E+02 0.  0.
        254    2    1    2    0    0  0.91745319757E+02 -0.86401225770E+00  0.99273029705E+03  0.13428024603E+04  0.89954825026E+03 0.  0.
        -24    2    4    4    0    0  0.20300915546E+03  0.31540592767E+02 -0.99051233575E+02  0.24204055128E+03  0.81024412364E+02 0.  0.
         24    2    4    4    0    0 -0.11126383571E+03 -0.32404605025E+02  0.10917815306E+04  0.11007619090E+04  0.79121237465E+02 0.  0.
         13    1    3    3    0    0 -0.16868623171E+02 -0.38265999338E+02 -0.51301847339E+03  0.51472010957E+03  0.00000000000E+00 0.  1.
        -13    1    3    3    0    0 -0.74876696586E+02  0.39130011595E+02 -0.78126431528E+03  0.78581906813E+03  0.00000000000E+00 0. -1.
          4    1    6    6  502    0  0.67584396178E+01 -0.19967447746E+02  0.20318054265E+03  0.20427116387E+03  0.00000000000E+00 0. -1.
          3    1    5    5  503    0  0.44042568611E+02  0.37787085213E+02 -0.46924155149E+02  0.74629002373E+02  0.00000000000E+00 0. -1.
         -4    1    5    5    0  503  0.15896658685E+03 -0.62464924458E+01 -0.52127078425E+02  0.16741154891E+03  0.00000000000E+00 0.  1.
         -3    1    6    6    0  502 -0.11802227532E+03 -0.12437157278E+02  0.88860098797E+03  0.89649074517E+03  0.00000000000E+00 0.  1.
<mgrwt>
<rscale>  0 0.26260847E+04</rscale>
<asrwt>0</asrwt>
<pdfrwt beam="1">  1        1 0.22653032E+00 0.26260847E+04</pdfrwt>
<pdfrwt beam="2">  1       -1 0.18013763E+00 0.26260847E+04</pdfrwt>
<totfact> 0.12474843E+00</totfact>
</mgrwt>
</event>
<event>
12    1  0.1549527E-007  0.1572115E+04  0.7818608E-02  0.8837865E-01
          2   -1    0    0  501    0  0.00000000000E+00  0.00000000000E+00  0.14443689117E+04  0.14443689117E+04  0.00000000000E+00 0. -1.
         -2   -1    0    0    0  501 -0.00000000000E+00 -0.00000000000E+00 -0.42778972421E+03  0.42778972421E+03  0.00000000000E+00 0.  1.
         23    2    1    2    0    0  0.87878286918E+02 -0.24163290826E+03 -0.19798185040E+03  0.33710186355E+03  0.91278681267E+02 0.  0.
        254    2    1    2    0    0 -0.87878286918E+02  0.24163290826E+03  0.12145610379E+04  0.15350567723E+04  0.90284645644E+03 0.  0.
        -24    2    4    4    0    0 -0.68965437884E+02  0.68759086179E+02  0.13146769586E+04  0.13206651608E+04  0.79353120869E+02 0.  0.
         24    2    4    4    0    0 -0.18912849034E+02  0.17287382209E+03 -0.10011592076E+03  0.21439161156E+03  0.75481860711E+02 0.  0.
         13    1    3    3    0    0  0.53546432402E+02 -0.12753684921E+03 -0.16118611010E+03  0.21240016576E+03  0.00000000000E+00 0.  1.
        -13    1    3    3    0    0  0.34331854516E+02 -0.11409605906E+03 -0.36795740308E+02  0.12470169779E+03  0.00000000000E+00 0. -1.
          2    1    6    6  502    0 -0.39858218425E+02  0.16022757575E+03 -0.86847745130E+02  0.18655852819E+03  0.00000000000E+00 0. -1.
          1    1    5    5  503    0 -0.34997554183E+02  0.75117365670E+02  0.11101935754E+04  0.11132821845E+04  0.00000000000E+00 0. -1.
         -2    1    5    5    0  503 -0.33967883702E+02 -0.63582794910E+01  0.20448338318E+03  0.20738297625E+03  0.00000000000E+00 0.  1.
         -1    1    6    6    0  502  0.20945369391E+02  0.12646246338E+02 -0.13268175627E+02  0.27833083369E+02  0.00000000000E+00 0.  1.
<mgrwt>
<rscale>  0 0.15721147E+04</rscale>
<asrwt>0</asrwt>
<pdfrwt beam="1">  1        2 0.22221060E+00 0.15721147E+04</pdfrwt>
<pdfrwt beam="2">  1       -2 0.65813804E-01 0.15721147E+04</pdfrwt>
<totfact> 0.27877929E+01</totfact>
</mgrwt>
</event>
<event>
12    1  0.1549527E-007  0.2572523E+04  0.7818608E-02  0.8377595E-01
         -2   -1    0    0    0  501 -0.00000000000E+00  0.00000000000E+00  0.63274728899E+03  0.63274728899E+03  0.00000000000E+00 0.  1.
          2   -1    0    0  501    0  0.00000000000E+00 -0.00000000000E+00 -0.26147390553E+04  0.26147390553E+04  0.00000000000E+00 0. -1.
         23    2    1    2    0    0  0.82581881032E+03 -0.11298744262E+03 -0.18606614754E+04  0.20410165360E+04  0.94575390739E+02 0.  0.
        254    2    1    2    0    0 -0.82581881032E+03  0.11298744262E+03 -0.12133029094E+03  0.12064698083E+04  0.86377398038E+03 0.  0.
        -24    2    4    4    0    0 -0.98853930783E+03  0.14228813590E+02 -0.77060807682E+02  0.99495541343E+03  0.81150997428E+02 0.  0.
         24    2    4    4    0    0  0.16272049751E+03  0.98758629027E+02 -0.44269483255E+02  0.21151439487E+03  0.80915542237E+02 0.  0.
         11    1    3    3    0    0  0.13401713999E+03  0.15257296557E+02 -0.32277315385E+03  0.34982265186E+03  0.00000000000E+00 0.  1.
        -11    1    3    3    0    0  0.69180167033E+03 -0.12824473917E+03 -0.15378883215E+04  0.16911938841E+04  0.00000000000E+00 0. -1.
          4    1    6    6  502    0 -0.15790815191E+01  0.25712429456E+02  0.20379452714E+01  0.25841357315E+02  0.00000000000E+00 0. -1.
          1    1    5    5  503    0 -0.12407928521E+03 -0.24584666926E+02 -0.15499118583E+02  0.12743742599E+03  0.00000000000E+00 0. -1.
         -2    1    5    5    0  503 -0.86446002261E+03  0.38813480515E+02 -0.61561689099E+02  0.86751798744E+03  0.00000000000E+00 0.  1.
         -3    1    6    6    0  502  0.16429957903E+03  0.73046199571E+02 -0.46307428526E+02  0.18567303756E+03  0.00000000000E+00 0.  1.
<mgrwt>
<rscale>  0 0.25725233E+04</rscale>
<asrwt>0</asrwt>
<pdfrwt beam="1">  1        2 0.40226755E+00 0.25725233E+04</pdfrwt>
<pdfrwt beam="2">  1       -2 0.97345736E-01 0.25725233E+04</pdfrwt>
<totfact> 0.23273086E+00</totfact>
</mgrwt>
</event>
<event>
12    1  0.1549527E-007  0.1601548E+04  0.7818608E-02  0.8819598E-01
         -1   -1    0    0    0  501 -0.00000000000E+00  0.00000000000E+00  0.65940246588E+03  0.65940246588E+03  0.00000000000E+00 0.  1.
          1   -1    0    0  501    0  0.00000000000E+00 -0.00000000000E+00 -0.97245440859E+03  0.97245440859E+03  0.00000000000E+00 0. -1.
         23    2    1    2    0    0 -0.93413832799E+02  0.26331185975E+03  0.34357646016E+03  0.45204838947E+03  0.90794728930E+02 0.  0.
        254    2    1    2    0    0  0.93413832799E+02 -0.26331185975E+03 -0.65662840286E+03  0.11798084850E+04  0.93953601431E+03 0.  0.
        -24    2    4    4    0    0 -0.11615528668E+03  0.12284982862E+03  0.16195008109E+03  0.24742399278E+03  0.80041691790E+02 0.  0.
         24    2    4    4    0    0  0.20956911948E+03 -0.38616168837E+03 -0.81857848396E+03  0.93238449222E+03  0.78930612105E+02 0.  0.
         13    1    3    3    0    0 -0.26214215191E+02  0.18862223421E+03  0.25387482387E+03  0.31736092783E+03  0.00000000000E+00 0.  1.
        -13    1    3    3    0    0 -0.67199617609E+02  0.74689625540E+02  0.89701636286E+02  0.13468746164E+03  0.00000000000E+00 0. -1.
          4    1    6    6  502    0  0.17498204711E+03 -0.28172166002E+03 -0.55153111564E+03  0.64356225966E+03  0.00000000000E+00 0. -1.
          1    1    5    5  503    0 -0.67555041798E+02  0.95354647146E+02  0.15029705178E+03  0.19038223704E+03  0.00000000000E+00 0. -1.
         -2    1    5    5    0  503 -0.48600244879E+02  0.27495181476E+02  0.11653029308E+02  0.57041755747E+02  0.00000000000E+00 0.  1.
         -3    1    6    6    0  502  0.34587072370E+02 -0.10444002835E+03 -0.26704736832E+03  0.28882223256E+03  0.00000000000E+00 0.  1.
<mgrwt>
<rscale>  0 0.16015478E+04</rscale>
<asrwt>0</asrwt>
<pdfrwt beam="1">  1        1 0.14960837E+00 0.16015478E+04</pdfrwt>
<pdfrwt beam="2">  1       -1 0.10144653E+00 0.16015478E+04</pdfrwt>
<totfact> 0.14075815E+01</totfact>
</mgrwt>
</event>
<event>
12    1  0.1549527E-007  0.1619699E+04  0.7818608E-02  0.8808537E-01
         -2   -1    0    0    0  501 -0.00000000000E+00  0.00000000000E+00  0.30123714514E+04  0.30123714514E+04  0.00000000000E+00 0.  1.
          2   -1    0    0  501    0  0.00000000000E+00 -0.00000000000E+00 -0.21772078067E+03  0.21772078067E+03  0.00000000000E+00 0. -1.
         23    2    1    2    0    0  0.52728840580E+03  0.86032152204E+02  0.12778043284E+04  0.13882651236E+04  0.95192215116E+02 0.  0.
        254    2    1    2    0    0 -0.52728840580E+03 -0.86032152204E+02  0.15168463424E+04  0.18418271084E+04  0.89781383198E+03 0.  0.
        -24    2    4    4    0    0 -0.77480791617E+03 -0.95527471749E+02  0.11696810688E+04  0.14085293850E+04  0.79676978689E+02 0.  0.
         24    2    4    4    0    0  0.24751951037E+03  0.94953195448E+01  0.34716527358E+03  0.43329772342E+03  0.76597133342E+02 0.  0.
         13    1    3    3    0    0  0.52467933639E+03  0.73645497782E+02  0.12419310519E+04  0.13502239825E+04  0.00000000000E+00 0. -1.
        -13    1    3    3    0    0  0.26090694100E+01  0.12386654422E+02  0.35873276500E+02  0.38041141121E+02  0.00000000000E+00 0.  1.
          4    1    6    6  502    0  0.65909634329E+01 -0.62545435379E+01 -0.14867588315E+01  0.92070932256E+01  0.00000000000E+00 0. -1.
          3    1    5    5  503    0 -0.56034326030E+03 -0.80181936970E+02  0.78442506838E+03  0.96733468887E+03  0.00000000000E+00 0. -1.
         -4    1    5    5    0  503 -0.21446465588E+03 -0.15345534779E+02  0.38525600040E+03  0.44119469614E+03  0.00000000000E+00 0.  1.
         -3    1    6    6    0  502  0.24092854693E+03  0.15749863083E+02  0.34865203241E+03  0.42409063019E+03  0.00000000000E+00 0.  1.
<mgrwt>
<rscale>  0 0.16196986E+04</rscale>
<asrwt>0</asrwt>
<pdfrwt beam="1">  1        2 0.33495507E-01 0.16196986E+04</pdfrwt>
<pdfrwt beam="2">  1       -2 0.46344173E+00 0.16196986E+04</pdfrwt>
<totfact> 0.42829920E-01</totfact>
</mgrwt>
</event>
<event>
12    1  0.1549527E-007  0.2883272E+04  0.7818608E-02  0.8277872E-01
          2   -1    0    0  501    0  0.00000000000E+00  0.00000000000E+00  0.26689619980E+04  0.26689619980E+04  0.00000000000E+00 0. -1.
         -2   -1    0    0    0  501 -0.00000000000E+00 -0.00000000000E+00 -0.77869780996E+03  0.77869780996E+03  0.00000000000E+00 0.  1.
         23    2    1    2    0    0  0.40274167582E+03 -0.39327912013E+03  0.22552351914E+04  0.23261568561E+04  0.89725286999E+02 0.  0.
        254    2    1    2    0    0 -0.40274167582E+03  0.39327912013E+03 -0.36497100336E+03  0.11215029518E+04  0.89871892929E+03 0.  0.
        -24    2    4    4    0    0  0.56301005594E+02 -0.28305889325E+02 -0.47347718399E+03  0.48365918214E+03  0.75990355350E+02 0.  0.
         24    2    4    4    0    0 -0.45904268142E+03  0.42158500946E+03  0.10850618063E+03  0.63784376968E+03  0.81344819877E+02 0.  0.
         13    1    3    3    0    0  0.24625021376E+03 -0.17951728555E+03  0.11652875644E+04  0.12044752929E+04  0.00000000000E+00 0. -1.
        -13    1    3    3    0    0  0.15649146206E+03 -0.21376183459E+03  0.10899476270E+04  0.11216815632E+04  0.00000000000E+00 0.  1.
          2    1    6    6  502    0 -0.45955516349E+03  0.41775537823E+03  0.11369225313E+03  0.63137661721E+03  0.00000000000E+00 0. -1.
          3    1    5    5  503    0  0.56024438486E+02 -0.25718947652E+02 -0.47603548047E+03  0.48001039639E+03  0.00000000000E+00 0. -1.
         -4    1    5    5    0  503  0.27656710778E+00 -0.25869416731E+01  0.25582964779E+01  0.36487857506E+01  0.00000000000E+00 0.  1.
         -1    1    6    6    0  502  0.51248207090E+00  0.38296312254E+01 -0.51860724965E+01  0.64671524749E+01  0.00000000000E+00 0.  1.
<mgrwt>
<rscale>  0 0.28832724E+04</rscale>
<asrwt>0</asrwt>
<pdfrwt beam="1">  1        2 0.41060953E+00 0.28832724E+04</pdfrwt>
<pdfrwt beam="2">  1       -2 0.11979966E+00 0.28832724E+04</pdfrwt>
<totfact> 0.12764555E+00</totfact>
</mgrwt>
</event>
<event>
12    1  0.1549527E-007  0.1330370E+04  0.7818608E-02  0.9005823E-01
          1   -1    0    0  501    0  0.00000000000E+00  0.00000000000E+00  0.25098542059E+04  0.25098542059E+04  0.00000000000E+00 0. -1.
         -1   -1    0    0    0  501 -0.00000000000E+00 -0.00000000000E+00 -0.17629343266E+03  0.17629343266E+03  0.00000000000E+00 0.  1.
         23    2    1    2    0    0 -0.25884531259E+03  0.49298778006E+02  0.11390935355E+04  0.11731950544E+04  0.97063317597E+02 0.  0.
        254    2    1    2    0    0  0.25884531259E+03 -0.49298778006E+02  0.11944672377E+04  0.15129525841E+04  0.89041691055E+03 0.  0.
        -24    2    4    4    0    0  0.51235055575E+03 -0.22017977898E+03  0.98198546491E+03  0.11321401456E+04  0.80396697907E+02 0.  0.
         24    2    4    4    0    0 -0.25350524316E+03  0.17088100098E+03  0.21248177279E+03  0.38081243851E+03  0.80027400008E+02 0.  0.
         11    1    3    3    0    0 -0.25191563392E+03  0.47533269134E+02  0.11372823808E+04  0.11658182157E+04  0.00000000000E+00 0. -1.
        -11    1    3    3    0    0 -0.69296786743E+01  0.17655088718E+01  0.18111547057E+01  0.73768387181E+01  0.00000000000E+00 0.  1.
          4    1    6    6  502    0 -0.75295486936E+02  0.12862362016E+02  0.67791692641E+02  0.10213013415E+03  0.00000000000E+00 0. -1.
          1    1    5    5  503    0  0.16282772369E+03 -0.33921812202E+02  0.25968121371E+03  0.30837945732E+03  0.00000000000E+00 0. -1.
         -2    1    5    5    0  503  0.34952283206E+03 -0.18625796678E+03  0.72230425120E+03  0.82376068832E+03  0.00000000000E+00 0.  1.
         -3    1    6    6    0  502 -0.17820975622E+03  0.15801863896E+03  0.14469008015E+03  0.27868230436E+03  0.00000000000E+00 0.  1.
<mgrwt>
<rscale>  0 0.13303696E+04</rscale>
<asrwt>0</asrwt>
<pdfrwt beam="1">  1        1 0.38613139E+00 0.13303696E+04</pdfrwt>
<pdfrwt beam="2">  1       -1 0.27122068E-01 0.13303696E+04</pdfrwt>
<totfact> 0.15978052E+01</totfact>
</mgrwt>
</event>
<event>
12    1  0.1549527E-007  0.2970314E+04  0.7818608E-02  0.8252259E-01
         -1   -1    0    0    0  501 -0.00000000000E+00  0.00000000000E+00  0.11843609080E+04  0.11843609080E+04  0.00000000000E+00 0.  1.
          1   -1    0    0  501    0  0.00000000000E+00 -0.00000000000E+00 -0.18623476878E+04  0.18623476878E+04  0.00000000000E+00 0. -1.
         23    2    1    2    0    0 -0.10580026775E+04  0.49261784201E+03  0.38403541854E+03  0.12320356785E+04  0.91578962411E+02 0.  0.
        254    2    1    2    0    0  0.10580026775E+04 -0.49261784201E+03 -0.10620221984E+04  0.18146729174E+04  0.89616105889E+03 0.  0.
        -24    2    4    4    0    0  0.82986898629E+03 -0.57102371394E+03 -0.36825054999E+03  0.10758150378E+04  0.83778945858E+02 0.  0.
         24    2    4    4    0    0  0.22813369125E+03  0.78405871929E+02 -0.69377164837E+03  0.73885787959E+03  0.79996276874E+02 0.  0.
         11    1    3    3    0    0 -0.18365964681E+03  0.11354325690E+03  0.97448604652E+02  0.23689484503E+03  0.00000000000E+00 0. -1.
        -11    1    3    3    0    0 -0.87434303073E+03  0.37907458511E+03  0.28658681389E+03  0.99514083342E+03  0.00000000000E+00 0.  1.
          4    1    6    6  502    0  0.22252128493E+03  0.56457886975E+02 -0.60082873111E+03  0.64319388940E+03  0.00000000000E+00 0. -1.
          1    1    5    5  503    0  0.45033623174E+03 -0.35690215823E+03 -0.19360986602E+03  0.60635521964E+03  0.00000000000E+00 0. -1.
         -2    1    5    5    0  503  0.37953275455E+03 -0.21412155570E+03 -0.17464068397E+03  0.46945981819E+03  0.00000000000E+00 0.  1.
         -3    1    6    6    0  502  0.56124063227E+01  0.21947984955E+02 -0.92942917264E+02  0.95663990184E+02  0.00000000000E+00 0.  1.
<mgrwt>
<rscale>  0 0.29703143E+04</rscale>
<asrwt>0</asrwt>
<pdfrwt beam="1">  1        1 0.28651503E+00 0.29703143E+04</pdfrwt>
<pdfrwt beam="2">  1       -1 0.18220937E+00 0.29703143E+04</pdfrwt>
<totfact> 0.63267102E-01</totfact>
</mgrwt>
</event>
<event>
12    1  0.1549527E-007  0.1796812E+04  0.7818608E-02  0.8707997E-01
         -3   -1    0    0    0  501 -0.00000000000E+00  0.00000000000E+00  0.10151691132E+04  0.10151691132E+04  0.00000000000E+00 0.  1.
          3   -1    0    0  501    0  0.00000000000E+00 -0.00000000000E+00 -0.79507292565E+03  0.79507292565E+03  0.00000000000E+00 0. -1.
         23    2    1    2    0    0  0.64557667233E+03 -0.13680931520E+03 -0.32172378954E+02  0.66716624597E+03  0.92680684105E+02 0.  0.
        254    2    1    2    0    0 -0.64557667233E+03  0.13680931520E+03  0.25226856648E+03  0.11430757928E+04  0.89860826281E+03 0.  0.
        -24    2    4    4    0    0 -0.17512826508E+03 -0.28218964800E+03 -0.16890550752E+03  0.38108613881E+03  0.79979172636E+02 0.  0.
         24    2    4    4    0    0 -0.47044840725E+03  0.41899896320E+03  0.42117407400E+03  0.76198965404E+03  0.79742066755E+02 0.  0.
         11    1    3    3    0    0  0.24244042123E+03 -0.79417333315E+02 -0.48288629835E+02  0.25964641813E+03  0.00000000000E+00 0. -1.
        -11    1    3    3    0    0  0.40313625110E+03 -0.57391981882E+02  0.16116250881E+02  0.40751982783E+03  0.00000000000E+00 0.  1.
          4    1    6    6  502    0 -0.40990534638E+03  0.39633503797E+03  0.38378729656E+03  0.68731109719E+03  0.00000000000E+00 0. -1.
          1    1    5    5  503    0 -0.15928780998E+03 -0.19030070750E+03 -0.12852274450E+03  0.27947282791E+03  0.00000000000E+00 0. -1.
         -2    1    5    5    0  503 -0.15840455097E+02 -0.91888940500E+02 -0.40382763014E+02  0.10161331090E+03  0.00000000000E+00 0.  1.
         -3    1    6    6    0  502 -0.60543060874E+02  0.22663925223E+02  0.37386777431E+02  0.74678556850E+02  0.00000000000E+00 0.  1.
<mgrwt>
<rscale>  0 0.17968122E+04</rscale>
<asrwt>0</asrwt>
<pdfrwt beam="1">  1        3 0.12231891E+00 0.17968122E+04</pdfrwt>
<pdfrwt beam="2">  1       -3 0.15617986E+00 0.17968122E+04</pdfrwt>
<totfact> 0.38753055E-01</totfact>
</mgrwt>
</event>
<event>
12    1  0.1549527E-007  0.2915544E+04  0.7818608E-02  0.8268268E-01
          2   -1    0    0  501    0  0.00000000000E+00  0.00000000000E+00  0.28523651740E+04  0.28523651740E+04  0.00000000000E+00 0.  1.
         -2   -1    0    0    0  501 -0.00000000000E+00 -0.00000000000E+00 -0.74503058901E+03  0.74503058901E+03  0.00000000000E+00 0. -1.
         23    2    1    2    0    0 -0.46173453074E+03 -0.24814961239E+03  0.24430082607E+04  0.25002669585E+04  0.90931266273E+02 0.  0.
        254    2    1    2    0    0  0.46173453074E+03  0.24814961239E+03 -0.33567367573E+03  0.10971288044E+04  0.90345879260E+03 0.  0.
        -24    2    4    4    0    0  0.43986184092E+03  0.50143979679E+03 -0.44855812069E+03  0.80772025950E+03  0.79292629363E+02 0.  0.
         24    2    4    4    0    0  0.21872689822E+02 -0.25329018440E+03  0.11288444495E+03  0.28940854494E+03  0.79875377291E+02 0.  0.
         11    1    3    3    0    0 -0.24831560499E+03 -0.92072231138E+02  0.13502151753E+04  0.13759429330E+04  0.00000000000E+00 0.  1.
        -11    1    3    3    0    0 -0.21341892575E+03 -0.15607738125E+03  0.10927930854E+04  0.11243240255E+04  0.00000000000E+00 0. -1.
          4    1    6    6  502    0  0.42562061809E+02 -0.23513802271E+03  0.10083456741E+03  0.25936273597E+03  0.00000000000E+00 0. -1.
          3    1    5    5  503    0  0.36442758651E+03  0.36492899995E+03 -0.34174085173E+03  0.61868202702E+03  0.00000000000E+00 0. -1.
         -4    1    5    5    0  503  0.75434254404E+02  0.13651079684E+03 -0.10681726896E+03  0.18903823248E+03  0.00000000000E+00 0.  1.
         -3    1    6    6    0  502 -0.20689371988E+02 -0.18152161692E+02  0.12049877547E+02  0.30045808963E+02  0.00000000000E+00 0.  1.
<mgrwt>
<rscale>  0 0.29155441E+04</rscale>
<asrwt>0</asrwt>
<pdfrwt beam="1">  1        2 0.43882541E+00 0.29155441E+04</pdfrwt>
<pdfrwt beam="2">  1       -2 0.11462009E+00 0.29155441E+04</pdfrwt>
<totfact> 0.11005520E+00</totfact>
</mgrwt>
</event>
<event>
12    1  0.1549527E-007  0.1515995E+04  0.7818608E-02  0.8873886E-01
          2   -1    0    0  501    0  0.00000000000E+00  0.00000000000E+00  0.70673777204E+03  0.70673777204E+03  0.00000000000E+00 0.  1.
         -2   -1    0    0    0  501 -0.00000000000E+00 -0.00000000000E+00 -0.81297504341E+03  0.81297504341E+03  0.00000000000E+00 0. -1.
         23    2    1    2    0    0 -0.37857789285E+03 -0.11171991691E+03 -0.32120397836E+03  0.51655039369E+03  0.88598830208E+02 0.  0.
        254    2    1    2    0    0  0.37857789285E+03  0.11171991691E+03  0.21496670698E+03  0.10031624218E+04  0.89683978421E+03 0.  0.
        -24    2    4    4    0    0  0.50444129972E+03 -0.14315003288E+03  0.39121420705E+03  0.65931760732E+03  0.81842499619E+02 0.  0.
         24    2    4    4    0    0 -0.12586340687E+03  0.25486994978E+03 -0.17624750007E+03  0.34384481445E+03  0.79785880046E+02 0.  0.
         11    1    3    3    0    0 -0.30654441712E+03 -0.11386831523E+03 -0.29329573048E+03  0.43926968755E+03  0.00000000000E+00 0. -1.
        -11    1    3    3    0    0 -0.72033475734E+02  0.21483983269E+01 -0.27908247879E+02  0.77280706140E+02  0.00000000000E+00 0.  1.
          2    1    6    6  502    0 -0.87635569604E+02  0.23161036450E+03 -0.13076751860E+03  0.28004195743E+03  0.00000000000E+00 0. -1.
          1    1    5    5  503    0  0.33917254677E+03 -0.13527847665E+03  0.26336165370E+03  0.45021955018E+03  0.00000000000E+00 0. -1.
         -2    1    5    5    0  503  0.16526875296E+03 -0.78715562285E+01  0.12785255334E+03  0.20909805714E+03  0.00000000000E+00 0.  1.
         -1    1    6    6    0  502 -0.38227837265E+02  0.23259585288E+02 -0.45479981467E+02  0.63802857020E+02  0.00000000000E+00 0.  1.
<mgrwt>
<rscale>  0 0.15159949E+04</rscale>
<asrwt>0</asrwt>
<pdfrwt beam="1">  1        2 0.10872889E+00 0.15159949E+04</pdfrwt>
<pdfrwt beam="2">  1       -2 0.12507308E+00 0.15159949E+04</pdfrwt>
<totfact> 0.18698211E+01</totfact>
</mgrwt>
</event>
<event>
12    1  0.1549527E-007  0.1913995E+04  0.7818608E-02  0.8647921E-01
         -2   -1    0    0    0  501 -0.00000000000E+00  0.00000000000E+00  0.73621363520E+03  0.73621363520E+03  0.00000000000E+00 0.  1.
          2   -1    0    0  501    0  0.00000000000E+00 -0.00000000000E+00 -0.12439922334E+04  0.12439922334E+04  0.00000000000E+00 0. -1.
         23    2    1    2    0    0 -0.22303656232E+03 -0.55866325571E+03  0.25617697174E+03  0.65793986530E+03  0.73541036724E+02 0.  0.
        254    2    1    2    0    0  0.22303656232E+03  0.55866325571E+03 -0.76395556994E+03  0.13222660033E+04  0.89605207951E+03 0.  0.
        -24    2    4    4    0    0  0.29969369933E+03  0.53298556640E+03 -0.71541388747E+02  0.62035030425E+03  0.76330873608E+02 0.  0.
         24    2    4    4    0    0 -0.76657137007E+02  0.25677689311E+02 -0.69241418119E+03  0.70191569904E+03  0.81930396448E+02 0.  0.
         13    1    3    3    0    0 -0.21824382364E+03 -0.48088479284E+03  0.22285043927E+03  0.57318659163E+03  0.00000000000E+00 0.  1.
        -13    1    3    3    0    0 -0.47927386824E+01 -0.77778462876E+02  0.33326532473E+02  0.84753273672E+02  0.00000000000E+00 0. -1.
          2    1    6    6  502    0 -0.58038330888E+02  0.53768399436E+02 -0.54401584786E+03  0.54973878466E+03  0.00000000000E+00 0. -1.
          3    1    5    5  503    0  0.27697570782E+03  0.43746575066E+03 -0.53632298279E+02  0.52054610664E+03  0.00000000000E+00 0. -1.
         -4    1    5    5    0  503  0.22717991504E+02  0.95519815748E+02 -0.17909090468E+02  0.99804197606E+02  0.00000000000E+00 0.  1.
         -1    1    6    6    0  502 -0.18618806118E+02 -0.28090710125E+02 -0.14839833333E+03  0.15217691438E+03  0.00000000000E+00 0.  1.
<mgrwt>
<rscale>  0 0.19139948E+04</rscale>
<asrwt>0</asrwt>
<pdfrwt beam="1">  1        2 0.19138342E+00 0.19139948E+04</pdfrwt>
<pdfrwt beam="2">  1       -2 0.11326364E+00 0.19139948E+04</pdfrwt>
<totfact> 0.10210993E+01</totfact>
</mgrwt>
</event>
<event>
12    1  0.1549527E-007  0.2055195E+04  0.7818608E-02  0.8581241E-01
          2   -1    0    0  501    0  0.00000000000E+00  0.00000000000E+00  0.14069226784E+04  0.14069226784E+04  0.00000000000E+00 0.  1.
         -2   -1    0    0    0  501 -0.00000000000E+00 -0.00000000000E+00 -0.75054310494E+03  0.75054310494E+03  0.00000000000E+00 0. -1.
         23    2    1    2    0    0  0.58543597542E+03 -0.56802955761E+03  0.18445672861E+03  0.84124997137E+03  0.91018514417E+02 0.  0.
        254    2    1    2    0    0 -0.58543597542E+03  0.56802955761E+03  0.47192284484E+03  0.13162158120E+04  0.91886888758E+03 0.  0.
        -24    2    4    4    0    0 -0.79253276599E+03  0.60499971319E+03  0.34543639541E+03  0.10582978657E+04  0.80840776008E+02 0.  0.
         24    2    4    4    0    0  0.20709679057E+03 -0.36970155587E+02  0.12648644943E+03  0.25791794631E+03  0.79164209511E+02 0.  0.
         11    1    3    3    0    0  0.28319512411E+03 -0.29024634314E+03  0.13690486177E+03  0.42800158785E+03  0.00000000000E+00 0. -1.
        -11    1    3    3    0    0  0.30224085132E+03 -0.27778321447E+03  0.47551866841E+02  0.41324838352E+03  0.00000000000E+00 0.  1.
          2    1    6    6  502    0  0.11574561573E+02  0.17145011622E+02  0.20097706903E+02  0.28841631748E+02  0.00000000000E+00 0. -1.
          1    1    5    5  503    0 -0.17077988442E+03  0.93564458982E+02  0.53745060807E+02  0.20201140678E+03  0.00000000000E+00 0. -1.
         -2    1    5    5    0  503 -0.62175288157E+03  0.51143525421E+03  0.29169133460E+03  0.85628645888E+03  0.00000000000E+00 0.  1.
         -1    1    6    6    0  502  0.19552222900E+03 -0.54115167209E+02  0.10638874253E+03  0.22907631456E+03  0.00000000000E+00 0.  1.
<mgrwt>
<rscale>  0 0.20551945E+04</rscale>
<asrwt>0</asrwt>
<pdfrwt beam="1">  1        2 0.21644964E+00 0.20551945E+04</pdfrwt>
<pdfrwt beam="2">  1       -2 0.11546817E+00 0.20551945E+04</pdfrwt>
<totfact> 0.77442481E+00</totfact>
</mgrwt>
</event>
<event>
12    1  0.1549527E-007  0.1391974E+04  0.7818608E-02  0.8959649E-01
         -2   -1    0    0    0  501 -0.00000000000E+00  0.00000000000E+00  0.57111500226E+03  0.57111500226E+03  0.00000000000E+00 0. -1.
          2   -1    0    0  501    0  0.00000000000E+00 -0.00000000000E+00 -0.84816208828E+03  0.84816208828E+03  0.00000000000E+00 0.  1.
         23    2    1    2    0    0 -0.19499800154E+03 -0.30012641601E+03  0.87062758895E+02  0.37964217660E+03  0.91913938399E+02 0.  0.
        254    2    1    2    0    0  0.19499800154E+03  0.30012641601E+03 -0.36410984492E+03  0.10396349139E+04  0.90562944349E+03 0.  0.
        -24    2    4    4    0    0  0.37123594189E+03 -0.13824974662E+03 -0.38720549680E+03  0.55970643179E+03  0.80087926973E+02 0.  0.
         24    2    4    4    0    0 -0.17623794035E+03  0.43837616263E+03  0.23095651878E+02  0.47992848215E+03  0.81021400011E+02 0.  0.
         11    1    3    3    0    0 -0.15883754199E+03 -0.29203746534E+03  0.79824008997E+02  0.34188758140E+03  0.00000000000E+00 0. -1.
        -11    1    3    3    0    0 -0.36160459554E+02 -0.80889506735E+01  0.72387498974E+01  0.37754595193E+02  0.00000000000E+00 0.  1.
          2    1    6    6  502    0 -0.42592535250E+02  0.37504298965E+02  0.51580230644E+01  0.56985100700E+02  0.00000000000E+00 0. -1.
          3    1    5    5  503    0  0.18386041681E+02  0.10556514156E+02 -0.19362377248E+02  0.28712160708E+02  0.00000000000E+00 0. -1.
         -4    1    5    5    0  503  0.35284990021E+03 -0.14880626077E+03 -0.36784311955E+03  0.53099427108E+03  0.00000000000E+00 0.  1.
         -1    1    6    6    0  502 -0.13364540510E+03  0.40087186367E+03  0.17937628813E+02  0.42294338145E+03  0.00000000000E+00 0.  1.
<mgrwt>
<rscale>  0 0.13919743E+04</rscale>
<asrwt>0</asrwt>
<pdfrwt beam="1">  1        2 0.13048647E+00 0.13919743E+04</pdfrwt>
<pdfrwt beam="2">  1       -2 0.87863847E-01 0.13919743E+04</pdfrwt>
<totfact> 0.34637192E+01</totfact>
</mgrwt>
</event>
<event>
12    1  0.1549527E-007  0.1835618E+04  0.7818608E-02  0.8687584E-01
         -4   -1    0    0    0  501 -0.00000000000E+00  0.00000000000E+00  0.19605923300E+04  0.19605923300E+04  0.00000000000E+00 0. -1.
          4   -1    0    0  501    0  0.00000000000E+00 -0.00000000000E+00 -0.42965251486E+03  0.42965251486E+03  0.00000000000E+00 0.  1.
         23    2    1    2    0    0  0.37456882323E+03  0.42745147824E+03  0.10799646466E+04  0.12238316733E+04  0.91781028281E+02 0.  0.
        254    2    1    2    0    0 -0.37456882323E+03 -0.42745147824E+03  0.45097516854E+03  0.11664131715E+04  0.91330417414E+03 0.  0.
        -24    2    4    4    0    0  0.29740414566E+01  0.19135314827E+03 -0.11945047264E+03  0.24044821665E+03  0.83198901441E+02 0.  0.
         24    2    4    4    0    0 -0.37754286468E+03 -0.61880462651E+03  0.57042564119E+03  0.92596495489E+03  0.81042612825E+02 0.  0.
         13    1    3    3    0    0  0.17166167115E+03  0.17221552266E+03  0.37244652240E+03  0.44479470280E+03  0.00000000000E+00 0.  1.
        -13    1    3    3    0    0  0.20290715207E+03  0.25523595558E+03  0.70751812417E+03  0.77903697050E+03  0.00000000000E+00 0. -1.
          4    1    6    6  502    0 -0.37001748481E+03 -0.61835801575E+03  0.56926682743E+03  0.91833778944E+03  0.00000000000E+00 0. -1.
          1    1    5    5  503    0 -0.27559204511E+02  0.12014961411E+03 -0.10437146648E+03  0.16152040904E+03  0.00000000000E+00 0. -1.
         -2    1    5    5    0  503  0.30533245968E+02  0.71203534164E+02 -0.15079006164E+02  0.78927807607E+02  0.00000000000E+00 0.  1.
         -3    1    6    6    0  502 -0.75253798758E+01 -0.44661076203E+00  0.11588137593E+01  0.76271654484E+01  0.00000000000E+00 0.  1.
<mgrwt>
<rscale>  0 0.18356181E+04</rscale>
<asrwt>0</asrwt>
<pdfrwt beam="1">  1        4 0.66100388E-01 0.18356181E+04</pdfrwt>
<pdfrwt beam="2">  1       -4 0.30162958E+00 0.18356181E+04</pdfrwt>
<totfact> 0.12107800E-01</totfact>
</mgrwt>
</event>
<event>
12    1  0.1549527E-007  0.1568269E+04  0.7818608E-02  0.8840282E-01
         -2   -1    0    0    0  501 -0.00000000000E+00  0.00000000000E+00  0.37447377741E+03  0.37447377741E+03  0.00000000000E+00 0. -1.
          2   -1    0    0  501    0  0.00000000000E+00 -0.00000000000E+00 -0.16419489693E+04  0.16419489693E+04  0.00000000000E+00 0.  1.
         23    2    1    2    0    0  0.36140308314E+03 -0.33138049174E+01 -0.91902055811E+03  0.99246856361E+03  0.98852889296E+02 0.  0.
        254    2    1    2    0    0 -0.36140308314E+03  0.33138049174E+01 -0.34845463375E+03  0.10239541831E+04  0.89243395690E+03 0.  0.
        -24    2    4    4    0    0 -0.56402769610E+03 -0.21408493010E+03 -0.37534627374E+03  0.71494739643E+03  0.79406266686E+02 0.  0.
         24    2    4    4    0    0  0.20262461295E+03  0.21739873501E+03  0.26891639993E+02  0.30900678664E+03  0.80268861490E+02 0.  0.
         11    1    3    3    0    0  0.34565876831E+03 -0.13848817900E+02 -0.90510863725E+03  0.96896512790E+03  0.00000000000E+00 0.  1.
        -11    1    3    3    0    0  0.15744314833E+02  0.10535012982E+02 -0.13911920856E+02  0.23503435706E+02  0.00000000000E+00 0. -1.
          2    1    6    6  502    0  0.16543090905E+03  0.19162157373E+03 -0.57366666329E+01  0.25321753993E+03  0.00000000000E+00 0. -1.
          1    1    5    5  503    0 -0.28029622054E+03 -0.80124878300E+02 -0.21746561145E+03  0.36369940822E+03  0.00000000000E+00 0. -1.
         -2    1    5    5    0  503 -0.28373147556E+03 -0.13396005180E+03 -0.15788066229E+03  0.35124798821E+03  0.00000000000E+00 0.  1.
         -1    1    6    6    0  502  0.37193703907E+02  0.25777161286E+02  0.32628306626E+02  0.55789246702E+02  0.00000000000E+00 0.  1.
<mgrwt>
<rscale>  0 0.15682689E+04</rscale>
<asrwt>0</asrwt>
<pdfrwt beam="1">  1        2 0.25260753E+00 0.15682689E+04</pdfrwt>
<pdfrwt beam="2">  1       -2 0.57611351E-01 0.15682689E+04</pdfrwt>
<totfact> 0.28652414E+01</totfact>
</mgrwt>
</event>
<event>
12    1  0.1549527E-007  0.1486958E+04  0.7818608E-02  0.8893172E-01
         -1   -1    0    0    0  501 -0.00000000000E+00  0.00000000000E+00  0.67490792240E+03  0.67490792240E+03  0.00000000000E+00 0.  1.
          1   -1    0    0  501    0  0.00000000000E+00 -0.00000000000E+00 -0.81901742370E+03  0.81901742370E+03  0.00000000000E+00 0. -1.
         23    2    1    2    0    0 -0.37031238985E+03  0.11794631629E+03  0.19158093188E+03  0.44286787684E+03  0.91575669667E+02 0.  0.
        254    2    1    2    0    0  0.37031238985E+03 -0.11794631629E+03 -0.33569043317E+03  0.10510574693E+04  0.91705568923E+03 0.  0.
        -24    2    4    4    0    0  0.43201706037E+02  0.19601243065E+03  0.23341920045E+03  0.31904733562E+03  0.83781972145E+02 0.  0.
         24    2    4    4    0    0  0.32711068382E+03 -0.31395874694E+03 -0.56910963362E+03  0.73201013363E+03  0.79884706981E+02 0.  0.
         13    1    3    3    0    0 -0.37001536791E+03  0.11455339804E+03  0.17342244913E+03  0.42439274188E+03  0.00000000000E+00 0.  1.
        -13    1    3    3    0    0 -0.29702193851E+00  0.33929182508E+01  0.18158482749E+02  0.18475134967E+02  0.00000000000E+00 0. -1.
          4    1    6    6  502    0  0.10675340036E+03 -0.11885462726E+03 -0.26026712537E+03  0.30538776573E+03  0.00000000000E+00 0. -1.
          1    1    5    5  503    0  0.44049675569E+02  0.34820688180E+02  0.55082502815E+02  0.78657080796E+02  0.00000000000E+00 0. -1.
         -2    1    5    5    0  503 -0.84796953168E+00  0.16119174247E+03  0.17833669764E+03  0.24039025483E+03  0.00000000000E+00 0.  1.
         -3    1    6    6    0  502  0.22035728346E+03 -0.19510411968E+03 -0.30884250825E+03  0.42662236790E+03  0.00000000000E+00 0.  1.
<mgrwt>
<rscale>  0 0.14869584E+04</rscale>
<asrwt>0</asrwt>
<pdfrwt beam="1">  1        1 0.12600268E+00 0.14869584E+04</pdfrwt>
<pdfrwt beam="2">  1       -1 0.10383199E+00 0.14869584E+04</pdfrwt>
<totfact> 0.18017741E+01</totfact>
</mgrwt>
</event>
<event>
12    1  0.1549527E-007  0.1597544E+04  0.7818608E-02  0.8822059E-01
         -1   -1    0    0    0  501 -0.00000000000E+00  0.00000000000E+00  0.29808267519E+03  0.29808267519E+03  0.00000000000E+00 0.  1.
          1   -1    0    0  501    0  0.00000000000E+00 -0.00000000000E+00 -0.21404676864E+04  0.21404676864E+04  0.00000000000E+00 0. -1.
         23    2    1    2    0    0 -0.40255741040E+03 -0.25486990847E+03 -0.10023223810E+04  0.11132235407E+04  0.87208699379E+02 0.  0.
        254    2    1    2    0    0  0.40255741040E+03  0.25486990847E+03 -0.84006263018E+03  0.13253268208E+04  0.90762041652E+03 0.  0.
        -24    2    4    4    0    0 -0.23936233484E+03  0.20355321858E+03 -0.95161455313E+02  0.33773233647E+03  0.79241330038E+02 0.  0.
         24    2    4    4    0    0  0.64191974525E+03  0.51316689884E+02 -0.74490117486E+03  0.98759448436E+03  0.75965408060E+02 0.  0.
         11    1    3    3    0    0 -0.11396539055E+03 -0.34077666520E+02 -0.20512454325E+03  0.23711911741E+03  0.00000000000E+00 0.  1.
        -11    1    3    3    0    0 -0.28859201986E+03 -0.22079224195E+03 -0.79719783776E+03  0.87610442332E+03  0.00000000000E+00 0. -1.
          4    1    6    6  502    0  0.53349955293E+02  0.17455397460E+02 -0.93233088285E+02  0.10882700667E+03  0.00000000000E+00 0. -1.
          3    1    5    5  503    0 -0.13975288000E+03  0.12208973247E+03 -0.96252272440E+02  0.20904848766E+03  0.00000000000E+00 0. -1.
         -4    1    5    5    0  503 -0.99609454843E+02  0.81463486115E+02  0.10908171267E+01  0.12868384882E+03  0.00000000000E+00 0.  1.
         -3    1    6    6    0  502  0.58856978995E+03  0.33861292424E+02 -0.65166808658E+03  0.87876747769E+03  0.00000000000E+00 0.  1.
<mgrwt>
<rscale>  0 0.15975435E+04</rscale>
<asrwt>0</asrwt>
<pdfrwt beam="1">  1        1 0.32930270E+00 0.15975435E+04</pdfrwt>
<pdfrwt beam="2">  1       -1 0.45858876E-01 0.15975435E+04</pdfrwt>
<totfact> 0.10859341E+01</totfact>
</mgrwt>
</event>
<event>
12    1  0.1549527E-007  0.1632073E+04  0.7818608E-02  0.8801083E-01
         -2   -1    0    0    0  501 -0.00000000000E+00  0.00000000000E+00  0.47082843993E+03  0.47082843993E+03  0.00000000000E+00 0.  1.
          2   -1    0    0  501    0  0.00000000000E+00 -0.00000000000E+00 -0.14143491262E+04  0.14143491262E+04  0.00000000000E+00 0. -1.
         23    2    1    2    0    0 -0.27700294674E+03 -0.26832379869E+03 -0.80175475109E+03  0.89426614934E+03  0.90404488339E+02 0.  0.
        254    2    1    2    0    0  0.27700294674E+03  0.26832379869E+03 -0.14176593521E+03  0.99091141683E+03  0.90170924481E+03 0.  0.
        -24    2    4    4    0    0 -0.74683664095E+02 -0.21738112014E+03 -0.27894241995E+03  0.37053601168E+03  0.81583461712E+02 0.  0.
         24    2    4    4    0    0  0.35168661083E+03  0.48570491883E+03  0.13717648474E+03  0.62037540515E+03  0.80346219147E+02 0.  0.
         13    1    3    3    0    0 -0.14030897459E+02  0.67311116627E+01 -0.32565254286E+02  0.36092516321E+02  0.00000000000E+00 0.  1.
        -13    1    3    3    0    0 -0.26297204928E+03 -0.27505491036E+03 -0.76918949680E+03  0.85817363302E+03  0.00000000000E+00 0. -1.
          4    1    6    6  502    0  0.18241897484E+03  0.31313412373E+03  0.65699123605E+02  0.36830155671E+03  0.00000000000E+00 0. -1.
          1    1    5    5  503    0 -0.80234332599E+02 -0.20399285246E+03 -0.22280676222E+03  0.31255957076E+03  0.00000000000E+00 0. -1.
         -2    1    5    5    0  503  0.55506685034E+01 -0.13388267676E+02 -0.56135657731E+02  0.57976440914E+02  0.00000000000E+00 0.  1.
         -3    1    6    6    0  502  0.16926763599E+03  0.17257079510E+03  0.71477361135E+02  0.25207384844E+03  0.00000000000E+00 0.  1.
<mgrwt>
<rscale>  0 0.16320733E+04</rscale>
<asrwt>0</asrwt>
<pdfrwt beam="1">  1        2 0.21759217E+00 0.16320733E+04</pdfrwt>
<pdfrwt beam="2">  1       -2 0.72435146E-01 0.16320733E+04</pdfrwt>
<totfact> 0.23423540E+01</totfact>
</mgrwt>
</event>
<event>
12    1  0.1549527E-007  0.2210932E+04  0.7818608E-02  0.8513892E-01
          1   -1    0    0  501    0  0.00000000000E+00  0.00000000000E+00  0.27536565678E+04  0.27536565678E+04  0.00000000000E+00 0. -1.
         -1   -1    0    0    0  501 -0.00000000000E+00 -0.00000000000E+00 -0.44379346118E+03  0.44379346118E+03  0.00000000000E+00 0.  1.
         23    2    1    2    0    0 -0.38023979962E+03  0.78118770622E+03  0.13851203721E+04  0.16373058985E+04  0.85881444120E+02 0.  0.
        254    2    1    2    0    0  0.38023979962E+03 -0.78118770622E+03  0.92474273451E+03  0.15601441305E+04  0.90777973391E+03 0.  0.
        -24    2    4    4    0    0  0.19880347958E+03 -0.13869600818E+03  0.84555683997E+03  0.88326661466E+03  0.80213071044E+02 0.  0.
         24    2    4    4    0    0  0.18143632003E+03 -0.64249169803E+03  0.79185894539E+02  0.67687751583E+03  0.78600542428E+02 0.  0.
         13    1    3    3    0    0 -0.17518346468E+03  0.42645307147E+03  0.79213237034E+03  0.91652886512E+03  0.00000000000E+00 0. -1.
        -13    1    3    3    0    0 -0.20505633494E+03  0.35473463475E+03  0.59298800173E+03  0.72077703334E+03  0.00000000000E+00 0.  1.
          4    1    6    6  502    0  0.16389248866E+03 -0.54138157609E+03  0.93307158094E+02  0.57328961662E+03  0.00000000000E+00 0. -1.
          3    1    5    5  503    0  0.16790502516E+03 -0.14167346313E+03  0.67328459101E+03  0.70822002804E+03  0.00000000000E+00 0. -1.
         -4    1    5    5    0  503  0.30898454422E+02  0.29774549427E+01  0.17227224896E+03  0.17504658662E+03  0.00000000000E+00 0.  1.
         -3    1    6    6    0  502  0.17543831377E+02 -0.10111012194E+03 -0.14121263555E+02  0.10358789921E+03  0.00000000000E+00 0.  1.
<mgrwt>
<rscale>  0 0.22109317E+04</rscale>
<asrwt>0</asrwt>
<pdfrwt beam="1">  1        1 0.42363946E+00 0.22109317E+04</pdfrwt>
<pdfrwt beam="2">  1       -1 0.68275919E-01 0.22109317E+04</pdfrwt>
<totfact> 0.17790872E+00</totfact>
</mgrwt>
</event>
<event>
12    1  0.1549527E-007  0.1451361E+04  0.7818608E-02  0.8917458E-01
          1   -1    0    0  501    0  0.00000000000E+00  0.00000000000E+00  0.12481650638E+04  0.12481650638E+04  0.00000000000E+00 0. -1.
         -1   -1    0    0    0  501 -0.00000000000E+00 -0.00000000000E+00 -0.42190901541E+03  0.42190901541E+03  0.00000000000E+00 0.  1.
         23    2    1    2    0    0  0.42724284552E+03 -0.32196708261E+02  0.12383677672E+03  0.45535770789E+03  0.91880453834E+02 0.  0.
        254    2    1    2    0    0 -0.42724284552E+03  0.32196708261E+02  0.70241927171E+03  0.12147163714E+04  0.89362741259E+03 0.  0.
        -24    2    4    4    0    0 -0.37744737088E+03 -0.38816689729E+03  0.48661473415E+03  0.73249188725E+03  0.81304412297E+02 0.  0.
         24    2    4    4    0    0 -0.49795474642E+02  0.42036360555E+03  0.21580453756E+03  0.48222448412E+03  0.82363247142E+02 0.  0.
         13    1    3    3    0    0  0.14099879059E+03 -0.20054815706E+02 -0.20175181303E+01  0.14243217670E+03  0.00000000000E+00 0. -1.
        -13    1    3    3    0    0  0.28624405493E+03 -0.12141892555E+02  0.12585429485E+03  0.31292553119E+03  0.00000000000E+00 0.  1.
          4    1    6    6  502    0 -0.71525353909E+02  0.27031766880E+03  0.13840258165E+03  0.31199806558E+03  0.00000000000E+00 0. -1.
          3    1    5    5  503    0 -0.89023368160E+02 -0.12329844826E+03  0.17647633752E+03  0.23296258311E+03  0.00000000000E+00 0. -1.
         -4    1    5    5    0  503 -0.28842400271E+03 -0.26486844903E+03  0.31013839663E+03  0.49952930414E+03  0.00000000000E+00 0.  1.
         -1    1    6    6    0  502  0.21729879267E+02  0.15004593675E+03  0.77401955907E+02  0.17022641854E+03  0.00000000000E+00 0.  1.
<mgrwt>
<rscale>  0 0.14513609E+04</rscale>
<asrwt>0</asrwt>
<pdfrwt beam="1">  1        1 0.19202539E+00 0.14513609E+04</pdfrwt>
<pdfrwt beam="2">  1       -1 0.64909080E-01 0.14513609E+04</pdfrwt>
<totfact> 0.23035501E+01</totfact>
</mgrwt>
</event>
<event>
12    1  0.1549527E-007  0.2125941E+04  0.7818608E-02  0.8549901E-01
          2   -1    0    0  501    0  0.00000000000E+00  0.00000000000E+00  0.27286258875E+04  0.27286258875E+04  0.00000000000E+00 0. -1.
         -2   -1    0    0    0  501 -0.00000000000E+00 -0.00000000000E+00 -0.41409349348E+03  0.41409349348E+03  0.00000000000E+00 0.  1.
         23    2    1    2    0    0 -0.44324154597E+03  0.90292247208E+02  0.20550605553E+04  0.21061589539E+04  0.89531531170E+02 0.  0.
        254    2    1    2    0    0  0.44324154597E+03 -0.90292247208E+02  0.25947183869E+03  0.10365604271E+04  0.89583264392E+03 0.  0.
        -24    2    4    4    0    0  0.27450732349E+03 -0.92251661503E+02  0.58709976351E+03  0.65932363396E+03  0.78465803296E+02 0.  0.
         24    2    4    4    0    0  0.16873422248E+03  0.19594142951E+01 -0.32762792482E+03  0.37723679311E+03  0.80575826469E+02 0.  0.
         11    1    3    3    0    0 -0.13395680694E+02 -0.56558730920E+01  0.25439310219E+02  0.29301734865E+02  0.00000000000E+00 0.  1.
        -11    1    3    3    0    0 -0.42984586528E+03  0.95948120300E+02  0.20296212451E+04  0.20768572191E+04  0.00000000000E+00 0. -1.
          4    1    6    6  502    0  0.12971080874E+03  0.95417441526E+01 -0.30481407870E+03  0.33140241605E+03  0.00000000000E+00 0. -1.
          3    1    5    5  503    0  0.16758345522E+03 -0.15403615802E+02  0.32225359401E+03  0.36355036060E+03  0.00000000000E+00 0. -1.
         -2    1    5    5    0  503  0.10692386828E+03 -0.76848045701E+02  0.26484616950E+03  0.29577327337E+03  0.00000000000E+00 0.  1.
         -3    1    6    6    0  502  0.39023413739E+02 -0.75823298575E+01 -0.22813846120E+02  0.45834377062E+02  0.00000000000E+00 0.  1.
<mgrwt>
<rscale>  0 0.21259409E+04</rscale>
<asrwt>0</asrwt>
<pdfrwt beam="1">  1        2 0.41978859E+00 0.21259409E+04</pdfrwt>
<pdfrwt beam="2">  1       -2 0.63706693E-01 0.21259409E+04</pdfrwt>
<totfact> 0.53554889E+00</totfact>
</mgrwt>
</event>
<event>
12    1  0.1549527E-007  0.1527378E+04  0.7818608E-02  0.8866448E-01
          2   -1    0    0  501    0  0.00000000000E+00  0.00000000000E+00  0.19818610957E+04  0.19818610957E+04  0.00000000000E+00 0.  1.
         -2   -1    0    0    0  501 -0.00000000000E+00 -0.00000000000E+00 -0.29427955813E+03  0.29427955813E+03  0.00000000000E+00 0. -1.
         23    2    1    2    0    0  0.16770271333E+02  0.47218061212E+03  0.78068399588E+03  0.91705162570E+03  0.90996759929E+02 0.  0.
        254    2    1    2    0    0 -0.16770271333E+02 -0.47218061212E+03  0.90689754173E+03  0.13590890282E+04  0.89522291236E+03 0.  0.
        -24    2    4    4    0    0  0.16473668150E+02 -0.57016606646E+03  0.15717076348E+03  0.59784181066E+03  0.85740635666E+02 0.  0.
         24    2    4    4    0    0 -0.33243939483E+02  0.97985454333E+02  0.74972677825E+03  0.76124721750E+03  0.81858263862E+02 0.  0.
         11    1    3    3    0    0  0.27210668594E+02  0.21223492496E+03  0.43117853226E+03  0.48135123407E+03  0.00000000000E+00 0.  1.
        -11    1    3    3    0    0 -0.10440397261E+02  0.25994568717E+03  0.34950546362E+03  0.43570039164E+03  0.00000000000E+00 0. -1.
          4    1    6    6  502    0 -0.23394903570E+02  0.11826311758E+02  0.52836914261E+02  0.58982392894E+02  0.00000000000E+00 0. -1.
          1    1    5    5  503    0  0.38078400997E+02 -0.16619609318E+03  0.25456133686E+02  0.17239234540E+03  0.00000000000E+00 0. -1.
         -2    1    5    5    0  503 -0.21604732846E+02 -0.40396997328E+03  0.13171462980E+03  0.42544946526E+03  0.00000000000E+00 0.  1.
         -3    1    6    6    0  502 -0.98490359134E+01  0.86159142575E+02  0.69688986398E+03  0.70226482461E+03  0.00000000000E+00 0.  1.
<mgrwt>
<rscale>  0 0.15273784E+04</rscale>
<asrwt>0</asrwt>
<pdfrwt beam="1">  1        2 0.30490170E+00 0.15273784E+04</pdfrwt>
<pdfrwt beam="2">  1       -2 0.45273779E-01 0.15273784E+04</pdfrwt>
<totfact> 0.30514240E+01</totfact>
</mgrwt>
</event>
<event>
12    1  0.1549527E-007  0.1453348E+04  0.7818608E-02  0.8916082E-01
         -2   -1    0    0    0  501 -0.00000000000E+00  0.00000000000E+00  0.22790150536E+03  0.22790150536E+03  0.00000000000E+00 0. -1.
          2   -1    0    0  501    0  0.00000000000E+00 -0.00000000000E+00 -0.23170335940E+04  0.23170335940E+04  0.00000000000E+00 0.  1.
         23    2    1    2    0    0  0.15507734434E+03  0.24672519520E+02  0.75752701863E+02  0.19556996465E+03  0.88608257446E+02 0.  0.
        254    2    1    2    0    0 -0.15507734434E+03 -0.24672519520E+02 -0.21648847905E+04  0.23493651347E+04  0.89896199256E+03 0.  0.
        -24    2    4    4    0    0 -0.14000559478E+03 -0.10683580203E+03 -0.22173039757E+04  0.22257140601E+04  0.79691288492E+02 0.  0.
         24    2    4    4    0    0 -0.15071749553E+02  0.82163282506E+02  0.52419185252E+02  0.12365107456E+03  0.74591250368E+02 0.  0.
         13    1    3    3    0    0 -0.32522085486E+01  0.19502254995E+02 -0.45901018163E+00  0.19776893100E+02  0.00000000000E+00 0.  1.
        -13    1    3    3    0    0  0.15832955288E+03  0.51702645244E+01  0.76211712045E+02  0.17579307155E+03  0.00000000000E+00 0. -1.
          2    1    6    6  502    0 -0.32250722564E+02  0.32070564225E+02  0.54086720594E+02  0.70668264024E+02  0.00000000000E+00 0. -1.
          1    1    5    5  503    0 -0.41054060960E+02  0.52792745731E+01 -0.64016538641E+03  0.64150216572E+03  0.00000000000E+00 0. -1.
         -2    1    5    5    0  503 -0.98951533822E+02 -0.11211507660E+03 -0.15771385893E+04  0.15842118944E+04  0.00000000000E+00 0.  1.
         -1    1    6    6    0  502  0.17178973011E+02  0.50092718282E+02 -0.16675353418E+01  0.52982810540E+02  0.00000000000E+00 0.  1.
<mgrwt>
<rscale>  0 0.14533485E+04</rscale>
<asrwt>0</asrwt>
<pdfrwt beam="1">  1        2 0.35646671E+00 0.14533485E+04</pdfrwt>
<pdfrwt beam="2">  1       -2 0.35061770E-01 0.14533485E+04</pdfrwt>
<totfact> 0.32883378E+01</totfact>
</mgrwt>
</event>
<event>
12    1  0.1549527E-007  0.1388765E+04  0.7818608E-02  0.8961992E-01
         -1   -1    0    0    0  501 -0.00000000000E+00  0.00000000000E+00  0.32436645440E+03  0.32436645440E+03  0.00000000000E+00 0.  1.
          1   -1    0    0  501    0  0.00000000000E+00 -0.00000000000E+00 -0.14864877667E+04  0.14864877667E+04  0.00000000000E+00 0. -1.
         23    2    1    2    0    0 -0.23266387565E+03  0.13475158432E+03  0.34635753740E+02  0.28828131381E+03  0.98061266301E+02 0.  0.
        254    2    1    2    0    0  0.23266387565E+03 -0.13475158432E+03 -0.11967570660E+04  0.15225729073E+04  0.90205893064E+03 0.  0.
        -24    2    4    4    0    0  0.14665930659E+03  0.28774072108E+03 -0.10942956512E+03  0.35020646772E+03  0.79787627681E+02 0.  0.
         24    2    4    4    0    0  0.86004569058E+02 -0.42249230540E+03 -0.10873275009E+04  0.11723664395E+04  0.79154534467E+02 0.  0.
         11    1    3    3    0    0 -0.11737548755E+03  0.35307472571E+02 -0.24415861969E+02  0.12497902629E+03  0.00000000000E+00 0. -1.
        -11    1    3    3    0    0 -0.11528838809E+03  0.99444111750E+02  0.59051615709E+02  0.16330228752E+03  0.00000000000E+00 0.  1.
          2    1    6    6  502    0 -0.20665739911E+01 -0.50476069331E+02 -0.19813527074E+03  0.20447417885E+03  0.00000000000E+00 0. -1.
          3    1    5    5  503    0  0.13327147659E+03  0.17930747106E+03 -0.72783628407E+02  0.23496789613E+03  0.00000000000E+00 0. -1.
         -4    1    5    5    0  503  0.13387829997E+02  0.10843325003E+03 -0.36645936709E+02  0.11523857158E+03  0.00000000000E+00 0.  1.
         -1    1    6    6    0  502  0.88071143050E+02 -0.37201623607E+03 -0.88919223016E+03  0.96789226070E+03  0.00000000000E+00 0.  1.
<mgrwt>
<rscale>  0 0.13887646E+04</rscale>
<asrwt>0</asrwt>
<pdfrwt beam="1">  1        1 0.22869042E+00 0.13887646E+04</pdfrwt>
<pdfrwt beam="2">  1       -1 0.49902533E-01 0.13887646E+04</pdfrwt>
<totfact> 0.26279890E+01</totfact>
</mgrwt>
</event>
<event>
12    1  0.1549527E-007  0.1952993E+04  0.7818608E-02  0.8628919E-01
         -1   -1    0    0    0  501 -0.00000000000E+00  0.00000000000E+00  0.56215663279E+03  0.56215663279E+03  0.00000000000E+00 0.  1.
          1   -1    0    0  501    0  0.00000000000E+00 -0.00000000000E+00 -0.16962277979E+04  0.16962277979E+04  0.00000000000E+00 0. -1.
         23    2    1    2    0    0  0.48863874471E+02 -0.68785358394E+03 -0.59231104604E+02  0.69822137287E+03  0.92057213777E+02 0.  0.
        254    2    1    2    0    0 -0.48863874471E+02  0.68785358394E+03 -0.10748400606E+04  0.15601630579E+04  0.89626858707E+03 0.  0.
        -24    2    4    4    0    0  0.38362708078E+03  0.17281537731E+03 -0.26580033359E+03  0.50489296956E+03  0.85042351946E+02 0.  0.
         24    2    4    4    0    0 -0.43249095525E+03  0.51503820663E+03 -0.80903972696E+03  0.10552700883E+04  0.82078613541E+02 0.  0.
         11    1    3    3    0    0  0.18148585982E+02 -0.62902994233E+03 -0.51049743323E+02  0.63135894372E+03  0.00000000000E+00 0. -1.
        -11    1    3    3    0    0  0.30715288489E+02 -0.58823641614E+02 -0.81813612813E+01  0.66862429152E+02  0.00000000000E+00 0.  1.
          2    1    6    6  502    0 -0.19977557041E+03  0.29886250878E+03 -0.41099210993E+03  0.54602526692E+03  0.00000000000E+00 0. -1.
          1    1    5    5  503    0  0.34171425063E+03  0.12094709091E+03 -0.22821870035E+03  0.42834635877E+03  0.00000000000E+00 0. -1.
         -2    1    5    5    0  503  0.41912830151E+02  0.51868286398E+02 -0.37581633241E+02  0.76546610782E+02  0.00000000000E+00 0.  1.
         -1    1    6    6    0  502 -0.23271538484E+03  0.21617569785E+03 -0.39804761703E+03  0.50924482138E+03  0.00000000000E+00 0.  1.
<mgrwt>
<rscale>  0 0.19529933E+04</rscale>
<asrwt>0</asrwt>
<pdfrwt beam="1">  1        1 0.26095812E+00 0.19529933E+04</pdfrwt>
<pdfrwt beam="2">  1       -1 0.86485636E-01 0.19529933E+04</pdfrwt>
<totfact> 0.58866463E+00</totfact>
</mgrwt>
</event>
<event>
12    1  0.1549527E-007  0.1182705E+04  0.7818608E-02  0.9128131E-01
          1   -1    0    0  501    0  0.00000000000E+00  0.00000000000E+00  0.64797662359E+03  0.64797662359E+03  0.00000000000E+00 0. -1.
         -1   -1    0    0    0  501 -0.00000000000E+00 -0.00000000000E+00 -0.53967630048E+03  0.53967630048E+03  0.00000000000E+00 0.  1.
         23    2    1    2    0    0 -0.18458891999E+03 -0.77555144121E+02  0.96338978577E+02  0.24110974413E+03  0.93620725035E+02 0.  0.
        254    2    1    2    0    0  0.18458891999E+03  0.77555144121E+02  0.11961344538E+02  0.94654317995E+03  0.92504759228E+03 0.  0.
        -24    2    4    4    0    0  0.32675516041E+03 -0.35017970863E+03 -0.96676397160E+01  0.48722145161E+03  0.88862345555E+02 0.  0.
         24    2    4    4    0    0 -0.14216624042E+03  0.42773485275E+03  0.21628984254E+02  0.45932172834E+03  0.85675509862E+02 0.  0.
         13    1    3    3    0    0 -0.12250030969E+03 -0.53664180541E+02  0.12847468468E+02  0.13435485698E+03  0.00000000000E+00 0. -1.
        -13    1    3    3    0    0 -0.62088610303E+02 -0.23890963580E+02  0.83491510110E+02  0.10675488715E+03  0.00000000000E+00 0.  1.
          2    1    6    6  502    0 -0.76526424841E+02  0.16774911571E+03 -0.28388185951E+02  0.18655280384E+03  0.00000000000E+00 0. -1.
          1    1    5    5  503    0  0.12256418734E+03 -0.73152139724E+02  0.41576167156E+01  0.14279531274E+03  0.00000000000E+00 0. -1.
         -2    1    5    5    0  503  0.20419097307E+03 -0.27702756891E+03 -0.13825256432E+02  0.34442613887E+03  0.00000000000E+00 0.  1.
         -1    1    6    6    0  502 -0.65639815577E+02  0.25998573704E+03  0.50017170205E+02  0.27276892450E+03  0.00000000000E+00 0.  1.
<mgrwt>
<rscale>  0 0.11827047E+04</rscale>
<asrwt>0</asrwt>
<pdfrwt beam="1">  1        1 0.99688711E-01 0.11827047E+04</pdfrwt>
<pdfrwt beam="2">  1       -1 0.83027123E-01 0.11827047E+04</pdfrwt>
<totfact> 0.43698675E+01</totfact>
</mgrwt>
</event>
<event>
12    1  0.1549527E-007  0.1516035E+04  0.7818608E-02  0.8873859E-01
         -2   -1    0    0    0  501 -0.00000000000E+00  0.00000000000E+00  0.62501128419E+03  0.62501128419E+03  0.00000000000E+00 0.  1.
          2   -1    0    0  501    0  0.00000000000E+00 -0.00000000000E+00 -0.91932805734E+03  0.91932805734E+03  0.00000000000E+00 0. -1.
         23    2    1    2    0    0  0.21959773474E+03 -0.28459637535E+03 -0.43123894929E+03  0.56872858572E+03  0.90922554241E+02 0.  0.
        254    2    1    2    0    0 -0.21959773474E+03  0.28459637535E+03  0.13692217614E+03  0.97561075581E+03  0.89657704776E+03 0.  0.
        -24    2    4    4    0    0 -0.50757713194E+03  0.84229582809E+02  0.27508803696E+03  0.58895769619E+03  0.80427435244E+02 0.  0.
         24    2    4    4    0    0  0.28797939720E+03  0.20036679254E+03 -0.13816586082E+03  0.38665305962E+03  0.85625922812E+02 0.  0.
         11    1    3    3    0    0  0.18235592398E+03 -0.16938370334E+03 -0.30752995443E+03  0.39562506852E+03  0.00000000000E+00 0. -1.
        -11    1    3    3    0    0  0.37241810761E+02 -0.11521267201E+03 -0.12370899485E+03  0.17310351720E+03  0.00000000000E+00 0.  1.
          4    1    6    6  502    0  0.23157777135E+03  0.11638092696E+03 -0.11066553973E+03  0.28181491449E+03  0.00000000000E+00 0. -1.
          1    1    5    5  503    0 -0.23100990568E+03  0.39193483426E+02  0.80274310999E+02  0.24768058194E+03  0.00000000000E+00 0. -1.
         -2    1    5    5    0  503 -0.27656722625E+03  0.45036099384E+02  0.19481372596E+03  0.34127711425E+03  0.00000000000E+00 0.  1.
         -3    1    6    6    0  502  0.56401625843E+02  0.83985865580E+02 -0.27500321091E+02  0.10483814513E+03  0.00000000000E+00 0.  1.
<mgrwt>
<rscale>  0 0.15160348E+04</rscale>
<asrwt>0</asrwt>
<pdfrwt beam="1">  1        2 0.14143509E+00 0.15160348E+04</pdfrwt>
<pdfrwt beam="2">  1       -2 0.96155582E-01 0.15160348E+04</pdfrwt>
<totfact> 0.24884154E+01</totfact>
</mgrwt>
</event>
<event>
12    1  0.1549527E-007  0.2159052E+04  0.7818608E-02  0.8535668E-01
         -2   -1    0    0    0  501 -0.00000000000E+00  0.00000000000E+00  0.36655900233E+03  0.36655900233E+03  0.00000000000E+00 0.  1.
          2   -1    0    0  501    0  0.00000000000E+00 -0.00000000000E+00 -0.31792318008E+04  0.31792318008E+04  0.00000000000E+00 0. -1.
         23    2    1    2    0    0  0.62991444931E+03 -0.49898129576E+03 -0.54617946202E+03  0.97598194223E+03  0.91946722923E+02 0.  0.
        254    2    1    2    0    0 -0.62991444931E+03  0.49898129576E+03 -0.22664933365E+04  0.25698088609E+04  0.90617381908E+03 0.  0.
        -24    2    4    4    0    0 -0.13572612774E+03 -0.72295225210E+02  0.80238757640E+01  0.17172668202E+03  0.76009798014E+02 0.  0.
         24    2    4    4    0    0 -0.49418832157E+03  0.57127652097E+03 -0.22745172122E+04  0.23980821789E+04  0.82405263152E+02 0.  0.
         11    1    3    3    0    0  0.28632416056E+03 -0.26917641072E+03 -0.22789869475E+03  0.45428546100E+03  0.00000000000E+00 0.  1.
        -11    1    3    3    0    0  0.34359028875E+03 -0.22980488505E+03 -0.31828076727E+03  0.52169648124E+03  0.00000000000E+00 0. -1.
          4    1    6    6  502    0 -0.24786856018E+03  0.22593829074E+03 -0.10363789319E+04  0.10892971242E+04  0.00000000000E+00 0. -1.
          3    1    5    5  503    0 -0.61748079149E+02 -0.67454522731E+01  0.32209404147E+02  0.69969794343E+02  0.00000000000E+00 0. -1.
         -4    1    5    5    0  503 -0.73978048596E+02 -0.65549772937E+02 -0.24185528383E+02  0.10175688768E+03  0.00000000000E+00 0.  1.
         -3    1    6    6    0  502 -0.24631976139E+03  0.34533823024E+03 -0.12381382803E+04  0.13087850547E+04  0.00000000000E+00 0.  1.
<mgrwt>
<rscale>  0 0.21590517E+04</rscale>
<asrwt>0</asrwt>
<pdfrwt beam="1">  1        2 0.48911257E+00 0.21590517E+04</pdfrwt>
<pdfrwt beam="2">  1       -2 0.56393695E-01 0.21590517E+04</pdfrwt>
<totfact> 0.36283471E+00</totfact>
</mgrwt>
</event>
<event>
12    1  0.1549527E-007  0.2470609E+04  0.7818608E-02  0.8413531E-01
         -1   -1    0    0    0  501 -0.00000000000E+00  0.00000000000E+00  0.70281788114E+03  0.70281788114E+03  0.00000000000E+00 0.  1.
          1   -1    0    0  501    0  0.00000000000E+00 -0.00000000000E+00 -0.21712278589E+04  0.21712278589E+04  0.00000000000E+00 0. -1.
         23    2    1    2    0    0  0.37376370263E+03 -0.25463564232E+03  0.49385430898E+03  0.67623842764E+03  0.94168555142E+02 0.  0.
        254    2    1    2    0    0 -0.37376370263E+03  0.25463564232E+03 -0.19622642867E+04  0.21978073124E+04  0.88053235924E+03 0.  0.
        -24    2    4    4    0    0 -0.52554978266E+03  0.53449039692E+02 -0.18199027588E+04  0.18967173508E+04  0.80195283528E+02 0.  0.
         24    2    4    4    0    0  0.15178608003E+03  0.20118660263E+03 -0.14236152787E+03  0.30108996152E+03  0.82905350521E+02 0.  0.
         13    1    3    3    0    0  0.31941477747E+03 -0.18052600377E+03  0.42462328806E+03  0.56117766783E+03  0.00000000000E+00 0. -1.
        -13    1    3    3    0    0  0.54348925161E+02 -0.74109638544E+02  0.69231020917E+02  0.11506075981E+03  0.00000000000E+00 0.  1.
          4    1    6    6  502    0  0.15006104716E+03  0.14880162432E+03 -0.12664002836E+03  0.24636951528E+03  0.00000000000E+00 0. -1.
          3    1    5    5  503    0 -0.49324824407E+03  0.35937520825E+02 -0.17370908321E+04  0.18061201218E+04  0.00000000000E+00 0. -1.
         -4    1    5    5    0  503 -0.32301538585E+02  0.17511518868E+02 -0.82811926762E+02  0.90597228998E+02  0.00000000000E+00 0.  1.
         -3    1    6    6    0  502  0.17250328685E+01  0.52384978304E+02 -0.15721499516E+02  0.54720446246E+02  0.00000000000E+00 0.  1.
<mgrwt>
<rscale>  0 0.24706094E+04</rscale>
<asrwt>0</asrwt>
<pdfrwt beam="1">  1        1 0.33403506E+00 0.24706094E+04</pdfrwt>
<pdfrwt beam="2">  1       -1 0.10812583E+00 0.24706094E+04</pdfrwt>
<totfact> 0.16130241E+00</totfact>
</mgrwt>
</event>
<event>
12    1  0.1549527E-007  0.1996157E+04  0.7818608E-02  0.8608420E-01
         -1   -1    0    0    0  501 -0.00000000000E+00  0.00000000000E+00  0.51641165291E+03  0.51641165291E+03  0.00000000000E+00 0.  1.
          1   -1    0    0  501    0  0.00000000000E+00 -0.00000000000E+00 -0.19290041338E+04  0.19290041338E+04  0.00000000000E+00 0. -1.
         23    2    1    2    0    0 -0.41172642354E+03 -0.33515863546E+03  0.14034752261E+03  0.55681917832E+03  0.92196591465E+02 0.  0.
        254    2    1    2    0    0  0.41172642354E+03  0.33515863546E+03 -0.15529400035E+04  0.18885966084E+04  0.93451834436E+03 0.  0.
        -24    2    4    4    0    0 -0.12713652877E+02  0.53369965854E+03 -0.11341945934E+04  0.12561220831E+04  0.80301616211E+02 0.  0.
         24    2    4    4    0    0  0.42444007642E+03 -0.19854102308E+03 -0.41874541008E+03  0.63247452523E+03  0.71473003831E+02 0.  0.
         11    1    3    3    0    0 -0.16877488008E+03 -0.85306460547E+02  0.31477797199E+02  0.19171073020E+03  0.00000000000E+00 0. -1.
        -11    1    3    3    0    0 -0.24295154346E+03 -0.24985217491E+03  0.10886972541E+03  0.36510844812E+03  0.00000000000E+00 0.  1.
          4    1    6    6  502    0  0.34281010631E+03 -0.17421415682E+03 -0.37330191397E+03  0.53593251478E+03  0.00000000000E+00 0. -1.
          1    1    5    5  503    0  0.16729048049E+02  0.21454071432E+03 -0.38107289739E+03  0.43763470187E+03  0.00000000000E+00 0. -1.
         -2    1    5    5    0  503 -0.29442700926E+02  0.31915894422E+03 -0.75312169600E+03  0.81848738127E+03  0.00000000000E+00 0.  1.
         -3    1    6    6    0  502  0.81629970104E+02 -0.24326866262E+02 -0.45443496115E+02  0.96542010444E+02  0.00000000000E+00 0.  1.
<mgrwt>
<rscale>  0 0.19961565E+04</rscale>
<asrwt>0</asrwt>
<pdfrwt beam="1">  1        1 0.29676986E+00 0.19961565E+04</pdfrwt>
<pdfrwt beam="2">  1       -1 0.79447947E-01 0.19961565E+04</pdfrwt>
<totfact> 0.48909793E+00</totfact>
</mgrwt>
</event>
<event>
12    1  0.1549527E-007  0.1323178E+04  0.7818608E-02  0.9011384E-01
          1   -1    0    0  501    0  0.00000000000E+00  0.00000000000E+00  0.19543015706E+04  0.19543015706E+04  0.00000000000E+00 0. -1.
         -1   -1    0    0    0  501 -0.00000000000E+00 -0.00000000000E+00 -0.22396764160E+03  0.22396764160E+03  0.00000000000E+00 0.  1.
         23    2    1    2    0    0  0.15951525283E+03  0.89189380033E+02  0.92315648536E+03  0.94551378834E+03  0.91534507693E+02 0.  0.
        254    2    1    2    0    0 -0.15951525283E+03 -0.89189380033E+02  0.80717744364E+03  0.12327554239E+04  0.91364689466E+03 0.  0.
        -24    2    4    4    0    0  0.15401130378E+03 -0.42303454487E+03  0.31184619606E+03  0.55342673962E+03  0.79720751876E+02 0.  0.
         24    2    4    4    0    0 -0.31352655660E+03  0.33384516484E+03  0.49533124759E+03  0.67932868424E+03  0.79893182484E+02 0.  0.
         11    1    3    3    0    0  0.51105627101E+01  0.11605956067E+02  0.99960645445E+01  0.16147364300E+02  0.00000000000E+00 0.  1.
        -11    1    3    3    0    0  0.15440469012E+03  0.77583423965E+02  0.91316042081E+03  0.92936642404E+03  0.00000000000E+00 0. -1.
          2    1    6    6  502    0 -0.28675926941E+03  0.27906516017E+03  0.45650330091E+03  0.60704489616E+03  0.00000000000E+00 0. -1.
          3    1    5    5  503    0  0.99772414204E+02 -0.26803458231E+03  0.15038295390E+03  0.32312861955E+03  0.00000000000E+00 0. -1.
         -4    1    5    5    0  503  0.54238889571E+02 -0.15499996256E+03  0.16146324216E+03  0.23029812006E+03  0.00000000000E+00 0.  1.
         -3    1    6    6    0  502 -0.26767287195E+02  0.54780004673E+02  0.38827946679E+02  0.72283788079E+02  0.00000000000E+00 0.  1.
<mgrwt>
<rscale>  0 0.13231785E+04</rscale>
<asrwt>0</asrwt>
<pdfrwt beam="1">  1        1 0.30066177E+00 0.13231785E+04</pdfrwt>
<pdfrwt beam="2">  1       -1 0.34456562E-01 0.13231785E+04</pdfrwt>
<totfact> 0.25078142E+01</totfact>
</mgrwt>
</event>
<event>
12    1  0.1549527E-007  0.1275798E+04  0.7818608E-02  0.9048981E-01
         -1   -1    0    0    0  501 -0.00000000000E+00  0.00000000000E+00  0.14182519655E+04  0.14182519655E+04  0.00000000000E+00 0.  1.
          1   -1    0    0  501    0  0.00000000000E+00 -0.00000000000E+00 -0.28691315176E+03  0.28691315176E+03  0.00000000000E+00 0. -1.
         23    2    1    2    0    0  0.31728026721E+02 -0.13862144733E+03  0.65886531832E+03  0.68041270037E+03  0.92926647425E+02 0.  0.
        254    2    1    2    0    0 -0.31728026721E+02  0.13862144733E+03  0.47247349538E+03  0.10247524169E+04  0.89814460899E+03 0.  0.
        -24    2    4    4    0    0  0.25642762267E+02  0.46132589572E+02 -0.26059220338E+03  0.27985740598E+03  0.87327568058E+02 0.  0.
         24    2    4    4    0    0 -0.57370788988E+02  0.92488857757E+02  0.73306569876E+03  0.74489501087E+03  0.75084367730E+02 0.  0.
         11    1    3    3    0    0  0.13495119482E+02 -0.10561382214E+03  0.27810732227E+03  0.29779200858E+03  0.00000000000E+00 0.  1.
        -11    1    3    3    0    0  0.18232907240E+02 -0.33007625191E+02  0.38075799605E+03  0.38262069179E+03  0.00000000000E+00 0. -1.
          4    1    6    6  502    0 -0.43277263756E+02  0.77948758036E+02  0.34607606166E+03  0.35737595176E+03  0.00000000000E+00 0. -1.
          1    1    5    5  503    0  0.19738138075E+02 -0.11686926782E+02 -0.14826947448E+02  0.27313306701E+02  0.00000000000E+00 0. -1.
         -2    1    5    5    0  503  0.59046241918E+01  0.57819516354E+02 -0.24576525593E+03  0.25254409928E+03  0.00000000000E+00 0.  1.
         -3    1    6    6    0  502 -0.14093525232E+02  0.14540099722E+02  0.38698963710E+03  0.38751905911E+03  0.00000000000E+00 0.  1.
<mgrwt>
<rscale>  0 0.12757980E+04</rscale>
<asrwt>0</asrwt>
<pdfrwt beam="1">  1        1 0.44140486E-01 0.12757980E+04</pdfrwt>
<pdfrwt beam="2">  1       -1 0.21819261E+00 0.12757980E+04</pdfrwt>
<totfact> 0.10356986E+01</totfact>
</mgrwt>
</event>
<event>
12    1  0.1549527E-007  0.1752159E+04  0.7818608E-02  0.8732163E-01
         -1   -1    0    0    0  501 -0.00000000000E+00  0.00000000000E+00  0.16109726083E+04  0.16109726083E+04  0.00000000000E+00 0.  1.
          1   -1    0    0  501    0  0.00000000000E+00 -0.00000000000E+00 -0.47642998588E+03  0.47642998588E+03  0.00000000000E+00 0. -1.
         23    2    1    2    0    0 -0.12168980132E+03  0.32994827980E+03  0.10494581605E+04  0.11106279511E+04  0.91965972075E+02 0.  0.
        254    2    1    2    0    0  0.12168980132E+03 -0.32994827980E+03  0.85084461926E+02  0.97677464309E+03  0.90728995510E+03 0.  0.
        -24    2    4    4    0    0 -0.10192342750E+03 -0.57873360739E+02 -0.36961705744E+03  0.39607746836E+03  0.80764353705E+02 0.  0.
         24    2    4    4    0    0  0.22361322883E+03 -0.27207491906E+03  0.45470151937E+03  0.58069717473E+03  0.80175428511E+02 0.  0.
         11    1    3    3    0    0 -0.86911046376E+02  0.25978062738E+03  0.91392773280E+03  0.95409821566E+03  0.00000000000E+00 0.  1.
        -11    1    3    3    0    0 -0.34778754946E+02  0.70167652422E+02  0.13553042769E+03  0.15652973542E+03  0.00000000000E+00 0. -1.
          2    1    6    6  502    0  0.19520218411E+03 -0.20114648768E+03  0.31643216108E+03  0.42272108387E+03  0.00000000000E+00 0. -1.
          1    1    5    5  503    0 -0.84343359493E+02 -0.48460284536E+02 -0.17316597560E+03  0.19861685873E+03  0.00000000000E+00 0. -1.
         -2    1    5    5    0  503 -0.17580068011E+02 -0.94130762032E+01 -0.19645108185E+03  0.19746060963E+03  0.00000000000E+00 0.  1.
         -1    1    6    6    0  502  0.28411044713E+02 -0.70928431380E+02  0.13826935830E+03  0.15797609086E+03  0.00000000000E+00 0.  1.
<mgrwt>
<rscale>  0 0.17521594E+04</rscale>
<asrwt>0</asrwt>
<pdfrwt beam="1">  1        1 0.73296922E-01 0.17521594E+04</pdfrwt>
<pdfrwt beam="2">  1       -1 0.24784194E+00 0.17521594E+04</pdfrwt>
<totfact> 0.32328199E+00</totfact>
</mgrwt>
</event>
<event>
12    1  0.1549527E-007  0.1189249E+04  0.7818608E-02  0.9122319E-01
          2   -1    0    0  501    0  0.00000000000E+00  0.00000000000E+00  0.35286078762E+04  0.35286078762E+04  0.00000000000E+00 0. -1.
         -2   -1    0    0    0  501 -0.00000000000E+00 -0.00000000000E+00 -0.10020331023E+03  0.10020331023E+03  0.00000000000E+00 0.  1.
         23    2    1    2    0    0 -0.21222956016E+03  0.10860093762E+03  0.61476430192E+03  0.66560588437E+03  0.90887273784E+02 0.  0.
        254    2    1    2    0    0  0.21222956016E+03 -0.10860093762E+03  0.28136402640E+04  0.29632053020E+04  0.89843117532E+03 0.  0.
        -24    2    4    4    0    0  0.41151760469E+03  0.53601270981E+02  0.25628267570E+04  0.25974310208E+04  0.79668603482E+02 0.  0.
         24    2    4    4    0    0 -0.19928804453E+03 -0.16220220860E+03  0.25081350705E+03  0.36577428122E+03  0.69700274879E+02 0.  0.
         13    1    3    3    0    0 -0.95584163706E+02  0.40237990815E+02  0.15594788242E+03  0.18728366263E+03  0.00000000000E+00 0.  1.
        -13    1    3    3    0    0 -0.11664539645E+03  0.68362946804E+02  0.45881641950E+03  0.47832222174E+03  0.00000000000E+00 0. -1.
          4    1    6    6  502    0 -0.82896181175E+02 -0.61454145086E+02  0.55759929203E+02  0.11729261915E+03  0.00000000000E+00 0. -1.
          1    1    5    5  503    0  0.19074430913E+02  0.15243343847E+02  0.25440645449E+03  0.25557550261E+03  0.00000000000E+00 0. -1.
         -2    1    5    5    0  503  0.39244317377E+03  0.38357927134E+02  0.23084203025E+04  0.23418555182E+04  0.00000000000E+00 0.  1.
         -3    1    6    6    0  502 -0.11639186335E+03 -0.10074806351E+03  0.19505357784E+03  0.24848166207E+03  0.00000000000E+00 0.  1.
<mgrwt>
<rscale>  0 0.11892488E+04</rscale>
<asrwt>0</asrwt>
<pdfrwt beam="1">  1        2 0.54286266E+00 0.11892488E+04</pdfrwt>
<pdfrwt beam="2">  1       -2 0.15415897E-01 0.11892488E+04</pdfrwt>
<totfact> 0.26397745E+01</totfact>
</mgrwt>
</event>
<event>
12    1  0.1549527E-007  0.2037490E+04  0.7818608E-02  0.8589291E-01
          1   -1    0    0  501    0  0.00000000000E+00  0.00000000000E+00  0.14795263774E+04  0.14795263774E+04  0.00000000000E+00 0. -1.
         -1   -1    0    0    0  501 -0.00000000000E+00 -0.00000000000E+00 -0.70146884156E+03  0.70146884156E+03  0.00000000000E+00 0.  1.
         23    2    1    2    0    0 -0.80545718453E+03  0.13090777455E+03  0.35155418142E+03  0.89318831805E+03  0.91087361862E+02 0.  0.
        254    2    1    2    0    0  0.80545718453E+03 -0.13090777455E+03  0.42650335440E+03  0.12878069009E+04  0.90035736299E+03 0.  0.
        -24    2    4    4    0    0 -0.42283701520E+02  0.12676551748E+03  0.36387553438E+03  0.39593332047E+03  0.80624945907E+02 0.  0.
         24    2    4    4    0    0  0.84774088605E+03 -0.25767329203E+03  0.62627820013E+02  0.89187358040E+03  0.80349886601E+02 0.  0.
         11    1    3    3    0    0 -0.70264844433E+03  0.12896369067E+03  0.33501959656E+03  0.78904030310E+03  0.00000000000E+00 0.  1.
        -11    1    3    3    0    0 -0.10280874019E+03  0.19440838754E+01  0.16534584857E+02  0.10414801495E+03  0.00000000000E+00 0. -1.
          2    1    6    6  502    0  0.56479221556E+03 -0.21079196672E+03  0.39670626475E+02  0.60415002988E+03  0.00000000000E+00 0. -1.
          1    1    5    5  503    0  0.32790823892E+01  0.90659249091E+02  0.15997436845E+03  0.18390663497E+03  0.00000000000E+00 0. -1.
         -2    1    5    5    0  503 -0.45562783909E+02  0.36106268393E+02  0.20390116594E+03  0.21202668550E+03  0.00000000000E+00 0.  1.
         -1    1    6    6    0  502  0.28294867048E+03 -0.46881325308E+02  0.22957193538E+02  0.28772355053E+03  0.00000000000E+00 0.  1.
<mgrwt>
<rscale>  0 0.20374903E+04</rscale>
<asrwt>0</asrwt>
<pdfrwt beam="1">  1        1 0.22761944E+00 0.20374903E+04</pdfrwt>
<pdfrwt beam="2">  1       -1 0.10791828E+00 0.20374903E+04</pdfrwt>
<totfact> 0.49900233E+00</totfact>
</mgrwt>
</event>
<event>
12    1  0.1549527E-007  0.1348752E+04  0.7818608E-02  0.8991773E-01
          1   -1    0    0  501    0  0.00000000000E+00  0.00000000000E+00  0.69156404673E+03  0.69156404673E+03  0.00000000000E+00 0. -1.
         -1   -1    0    0    0  501 -0.00000000000E+00 -0.00000000000E+00 -0.65761524776E+03  0.65761524776E+03  0.00000000000E+00 0.  1.
         23    2    1    2    0    0  0.28497237679E+03 -0.19575757269E+03  0.13011936826E+03  0.38184798608E+03  0.96677565548E+02 0.  0.
        254    2    1    2    0    0 -0.28497237679E+03  0.19575757269E+03 -0.96170569286E+02  0.96733130842E+03  0.89830440222E+03 0.  0.
        -24    2    4    4    0    0  0.13769545626E+03  0.36220617556E+03 -0.26570395919E+03  0.47629916246E+03  0.78159746298E+02 0.  0.
         24    2    4    4    0    0 -0.42266783305E+03 -0.16644860287E+03  0.16953338990E+03  0.49103214596E+03  0.77574245605E+02 0.  0.
         13    1    3    3    0    0  0.25897064855E+03 -0.16434330036E+03  0.79510230139E+02  0.31685389990E+03  0.00000000000E+00 0. -1.
        -13    1    3    3    0    0  0.26001728234E+02 -0.31414272323E+02  0.50609138119E+02  0.64994086176E+02  0.00000000000E+00 0.  1.
          4    1    6    6  502    0 -0.33047499179E+03 -0.12768119784E+03  0.16525393240E+03  0.39092847255E+03  0.00000000000E+00 0. -1.
          1    1    5    5  503    0  0.92525715733E+01  0.85112046670E+02 -0.88797991093E+02  0.12334810007E+03  0.00000000000E+00 0. -1.
         -2    1    5    5    0  503  0.12844288469E+03  0.27709412889E+03 -0.17690596810E+03  0.35295106239E+03  0.00000000000E+00 0.  1.
         -3    1    6    6    0  502 -0.92192841263E+02 -0.38767405031E+02  0.42794575000E+01  0.10010367341E+03  0.00000000000E+00 0.  1.
<mgrwt>
<rscale>  0 0.13487521E+04</rscale>
<asrwt>0</asrwt>
<pdfrwt beam="1">  1        1 0.10639447E+00 0.13487521E+04</pdfrwt>
<pdfrwt beam="2">  1       -1 0.10117158E+00 0.13487521E+04</pdfrwt>
<totfact> 0.25220165E+01</totfact>
</mgrwt>
</event>
<event>
12    1  0.1549527E-007  0.2514476E+04  0.7818608E-02  0.8397846E-01
          2   -1    0    0  501    0  0.00000000000E+00  0.00000000000E+00  0.19159230761E+04  0.19159230761E+04  0.00000000000E+00 0. -1.
         -2   -1    0    0    0  501 -0.00000000000E+00 -0.00000000000E+00 -0.82500578503E+03  0.82500578503E+03  0.00000000000E+00 0.  1.
         23    2    1    2    0    0 -0.82474374712E+01 -0.20424798667E+03  0.16449859888E+04  0.16600672743E+04  0.89772998688E+02 0.  0.
        254    2    1    2    0    0  0.82474374712E+01  0.20424798667E+03 -0.55406869778E+03  0.10808615869E+04  0.90525376983E+03 0.  0.
        -24    2    4    4    0    0  0.11839980151E+03  0.50038930914E+03 -0.11319652616E+03  0.53264910197E+03  0.80583116063E+02 0.  0.
         24    2    4    4    0    0 -0.11015236404E+03 -0.29614132248E+03 -0.44087217163E+03  0.54821248488E+03  0.79595418754E+02 0.  0.
         13    1    3    3    0    0  0.85182803840E+01 -0.26750502796E+02  0.54532763638E+03  0.54604979763E+03  0.00000000000E+00 0.  1.
        -13    1    3    3    0    0 -0.16765717855E+02 -0.17749748387E+03  0.10996583525E+04  0.11140174766E+04  0.00000000000E+00 0. -1.
          2    1    6    6  502    0 -0.12977099446E+02 -0.14367388878E+02 -0.46931452599E+01  0.19921159244E+02  0.00000000000E+00 0. -1.
          1    1    5    5  503    0 -0.86899889453E+01  0.22876578768E+02 -0.15443235561E+02  0.28936953685E+02  0.00000000000E+00 0. -1.
         -2    1    5    5    0  503  0.12708979045E+03  0.47751273038E+03 -0.97753290596E+02  0.50371214829E+03  0.00000000000E+00 0.  1.
         -1    1    6    6    0  502 -0.97175264592E+02 -0.28177393360E+03 -0.43617902637E+03  0.52829132564E+03  0.00000000000E+00 0.  1.
<mgrwt>
<rscale>  0 0.25144762E+04</rscale>
<asrwt>0</asrwt>
<pdfrwt beam="1">  1        2 0.29475740E+00 0.25144762E+04</pdfrwt>
<pdfrwt beam="2">  1       -2 0.12692397E+00 0.25144762E+04</pdfrwt>
<totfact> 0.30583591E+00</totfact>
</mgrwt>
</event>
<event>
12    1  0.1549527E-007  0.1630030E+04  0.7818608E-02  0.8802309E-01
         -2   -1    0    0    0  501 -0.00000000000E+00  0.00000000000E+00  0.57043833508E+03  0.57043833508E+03  0.00000000000E+00 0.  1.
          2   -1    0    0  501    0  0.00000000000E+00 -0.00000000000E+00 -0.11644546638E+04  0.11644546638E+04  0.00000000000E+00 0. -1.
         23    2    1    2    0    0  0.25809011097E+03 -0.32885756017E+03 -0.61621981657E+03  0.75067081367E+03  0.94984250795E+02 0.  0.
        254    2    1    2    0    0 -0.25809011097E+03  0.32885756017E+03  0.22203487869E+02  0.98422218520E+03  0.89075390243E+03 0.  0.
        -24    2    4    4    0    0 -0.33216700997E+03 -0.22847409106E+03  0.62596424442E+02  0.41504439875E+03  0.76211598762E+02 0.  0.
         24    2    4    4    0    0  0.74076898994E+02  0.55733165123E+03 -0.40392936573E+02  0.56917778644E+03  0.78903782084E+02 0.  0.
         11    1    3    3    0    0  0.10007049963E+03 -0.19349078621E+03 -0.35779090992E+03  0.41888796171E+03  0.00000000000E+00 0. -1.
        -11    1    3    3    0    0  0.15801961135E+03 -0.13536677396E+03 -0.25842890665E+03  0.33178285196E+03  0.00000000000E+00 0.  1.
          4    1    6    6  502    0  0.21657326671E+02  0.40715447370E+03 -0.43819726384E+02  0.41007800925E+03  0.00000000000E+00 0. -1.
          1    1    5    5  503    0 -0.25435846717E+03 -0.21115431624E+03  0.49905075703E+02  0.33432752156E+03  0.00000000000E+00 0. -1.
         -2    1    5    5    0  503 -0.77808542795E+02 -0.17319774825E+02  0.12691348739E+02  0.80716877199E+02  0.00000000000E+00 0.  1.
         -3    1    6    6    0  502  0.52419572323E+02  0.15017717753E+03  0.34267898110E+01  0.15909977719E+03  0.00000000000E+00 0.  1.
<mgrwt>
<rscale>  0 0.16300302E+04</rscale>
<asrwt>0</asrwt>
<pdfrwt beam="1">  1        2 0.17914687E+00 0.16300302E+04</pdfrwt>
<pdfrwt beam="2">  1       -2 0.87759744E-01 0.16300302E+04</pdfrwt>
<totfact> 0.21323266E+01</totfact>
</mgrwt>
</event>
<event>
12    1  0.1549527E-007  0.2207323E+04  0.7818608E-02  0.8515386E-01
          2   -1    0    0  501    0  0.00000000000E+00  0.00000000000E+00  0.75741409922E+03  0.75741409922E+03  0.00000000000E+00 0. -1.
         -2   -1    0    0    0  501 -0.00000000000E+00 -0.00000000000E+00 -0.16081934439E+04  0.16081934439E+04  0.00000000000E+00 0.  1.
         23    2    1    2    0    0 -0.74145399138E+02  0.54026327389E+02  0.62328897266E+03  0.63546437083E+03  0.83123034682E+02 0.  0.
        254    2    1    2    0    0  0.74145399138E+02 -0.54026327389E+02 -0.14740683174E+04  0.17301431723E+04  0.90116680377E+03 0.  0.
        -24    2    4    4    0    0  0.15538623662E+03 -0.17919989670E+03 -0.15314460723E+04  0.15516461911E+04  0.77597322272E+02 0.  0.
         24    2    4    4    0    0 -0.81240837486E+02  0.12517356931E+03  0.57377754971E+02  0.17849698121E+03  0.79375496254E+02 0.  0.
         11    1    3    3    0    0 -0.60148880645E+02  0.38242740784E+02  0.21252456502E+03  0.22415861750E+03  0.00000000000E+00 0.  1.
        -11    1    3    3    0    0 -0.13996518494E+02  0.15783586605E+02  0.41076440764E+03  0.41130575332E+03  0.00000000000E+00 0. -1.
          4    1    6    6  502    0 -0.96717295427E+02  0.99342110841E+02  0.43264418224E+02  0.14524083484E+03  0.00000000000E+00 0. -1.
          3    1    5    5  503    0  0.59686038973E+02 -0.11371298999E+03 -0.96008497374E+03  0.96863627030E+03  0.00000000000E+00 0. -1.
         -4    1    5    5    0  503  0.95700197651E+02 -0.65486906711E+02 -0.57136109859E+03  0.58300992081E+03  0.00000000000E+00 0.  1.
         -3    1    6    6    0  502  0.15476457941E+02  0.25831458467E+02  0.14113336747E+02  0.33256146365E+02  0.00000000000E+00 0.  1.
<mgrwt>
<rscale>  0 0.22073227E+04</rscale>
<asrwt>0</asrwt>
<pdfrwt beam="1">  1        2 0.11652525E+00 0.22073227E+04</pdfrwt>
<pdfrwt beam="2">  1       -2 0.24741437E+00 0.22073227E+04</pdfrwt>
<totfact> 0.22540235E+00</totfact>
</mgrwt>
</event>
<event>
12    1  0.1549527E-007  0.1733002E+04  0.7818608E-02  0.8742763E-01
         -1   -1    0    0    0  501 -0.00000000000E+00  0.00000000000E+00  0.76096763808E+03  0.76096763808E+03  0.00000000000E+00 0.  1.
          1   -1    0    0  501    0  0.00000000000E+00 -0.00000000000E+00 -0.98666989748E+03  0.98666989748E+03  0.00000000000E+00 0. -1.
         23    2    1    2    0    0  0.20793502229E+02 -0.16748618827E+03 -0.72292483073E+03  0.74773737972E+03  0.89481199989E+02 0.  0.
        254    2    1    2    0    0 -0.20793502229E+02  0.16748618827E+03  0.49722257132E+03  0.99990015584E+03  0.85093245515E+03 0.  0.
        -24    2    4    4    0    0  0.30536049754E+03  0.34425894927E+03  0.16755225228E+03  0.49725886155E+03  0.86216938805E+02 0.  0.
         24    2    4    4    0    0 -0.32615399977E+03 -0.17677276099E+03  0.32967031904E+03  0.50264129429E+03  0.79628580762E+02 0.  0.
         11    1    3    3    0    0 -0.31698922712E+02 -0.55784856431E+02 -0.18417489070E+03  0.19503118282E+03  0.00000000000E+00 0. -1.
        -11    1    3    3    0    0  0.52492424941E+02 -0.11170133184E+03 -0.53874994003E+03  0.55270619690E+03  0.00000000000E+00 0.  1.
          4    1    6    6  502    0 -0.29919840090E+03 -0.13180122053E+03  0.28113068170E+03  0.43119103078E+03  0.00000000000E+00 0. -1.
          1    1    5    5  503    0  0.10702998924E+03  0.98314630158E+02  0.14091700564E+02  0.14601288000E+03  0.00000000000E+00 0. -1.
         -2    1    5    5    0  503  0.19833050830E+03  0.24594431911E+03  0.15346055171E+03  0.35124598155E+03  0.00000000000E+00 0.  1.
         -3    1    6    6    0  502 -0.26955598869E+02 -0.44971540464E+02  0.48539637339E+02  0.71450263506E+02  0.00000000000E+00 0.  1.
<mgrwt>
<rscale>  0 0.17330019E+04</rscale>
<asrwt>0</asrwt>
<pdfrwt beam="1">  1        1 0.15179537E+00 0.17330019E+04</pdfrwt>
<pdfrwt beam="2">  1       -1 0.11707194E+00 0.17330019E+04</pdfrwt>
<totfact> 0.96730231E+00</totfact>
</mgrwt>
</event>
<event>
12    1  0.1549527E-007  0.1712015E+04  0.7818608E-02  0.8754541E-01
         -1   -1    0    0    0  501 -0.00000000000E+00  0.00000000000E+00  0.29123242611E+03  0.29123242611E+03  0.00000000000E+00 0.  1.
          1   -1    0    0  501    0  0.00000000000E+00 -0.00000000000E+00 -0.25160269744E+04  0.25160269744E+04  0.00000000000E+00 0. -1.
         23    2    1    2    0    0  0.24219618938E+03 -0.42125939556E+03 -0.14280767584E+04  0.15113027562E+04  0.92273075358E+02 0.  0.
        254    2    1    2    0    0 -0.24219618938E+03  0.42125939556E+03 -0.79671778989E+03  0.12959566443E+04  0.89923629531E+03 0.  0.
        -24    2    4    4    0    0 -0.51861462519E+03  0.42764812884E+02 -0.28852335230E+03  0.60023486301E+03  0.79032950481E+02 0.  0.
         24    2    4    4    0    0  0.27641843582E+03  0.37849458268E+03 -0.50819443759E+03  0.69572178133E+03  0.78114722376E+02 0.  0.
         13    1    3    3    0    0  0.24105299383E+03 -0.39499109109E+03 -0.12837837948E+04  0.13646337750E+04  0.00000000000E+00 0. -1.
        -13    1    3    3    0    0  0.11431955442E+01 -0.26268304473E+02 -0.14429296360E+03  0.14666898125E+03  0.00000000000E+00 0.  1.
          2    1    6    6  502    0  0.54882677269E+01  0.45584275824E+02 -0.47590275993E+02  0.66127767648E+02  0.00000000000E+00 0. -1.
          1    1    5    5  503    0 -0.20218851583E+03  0.42356218739E+02 -0.81339654032E+02  0.22201437907E+03  0.00000000000E+00 0. -1.
         -2    1    5    5    0  503 -0.31642610937E+03  0.40859414519E+00 -0.20718369827E+03  0.37822048393E+03  0.00000000000E+00 0.  1.
         -1    1    6    6    0  502  0.27093016809E+03  0.33291030685E+03 -0.46060416160E+03  0.62959401369E+03  0.00000000000E+00 0.  1.
<mgrwt>
<rscale>  0 0.17120148E+04</rscale>
<asrwt>0</asrwt>
<pdfrwt beam="1">  1        1 0.38708110E+00 0.17120148E+04</pdfrwt>
<pdfrwt beam="2">  1       -1 0.44804986E-01 0.17120148E+04</pdfrwt>
<totfact> 0.62073368E+00</totfact>
</mgrwt>
</event>
<event>
12    1  0.1549527E-007  0.4201128E+04  0.7818608E-02  0.7965158E-01
          2   -1    0    0  501    0  0.00000000000E+00  0.00000000000E+00  0.18706458696E+04  0.18706458696E+04  0.00000000000E+00 0. -1.
         -2   -1    0    0    0  501 -0.00000000000E+00 -0.00000000000E+00 -0.23587405907E+04  0.23587405907E+04  0.00000000000E+00 0.  1.
         23    2    1    2    0    0  0.38777631790E+03  0.54737092041E+03 -0.21316233930E+04  0.22368181718E+04  0.97733550264E+02 0.  0.
        254    2    1    2    0    0 -0.38777631790E+03 -0.54737092041E+03  0.16435286719E+04  0.19925682886E+04  0.90507264469E+03 0.  0.
        -24    2    4    4    0    0 -0.61309691790E+03 -0.41118426880E+03  0.74161182697E+03  0.10494615418E+04  0.80131717278E+02 0.  0.
         24    2    4    4    0    0  0.22532060000E+03 -0.13618665161E+03  0.90191684491E+03  0.94310674681E+03  0.81732269573E+02 0.  0.
         11    1    3    3    0    0  0.29543773714E+03  0.38951061946E+03 -0.16764700163E+04  0.17462971382E+04  0.00000000000E+00 0.  1.
        -11    1    3    3    0    0  0.92338580758E+02  0.15786030095E+03 -0.45515337666E+03  0.49052103359E+03  0.00000000000E+00 0. -1.
          4    1    6    6  502    0  0.10987487891E+03 -0.11226895777E+03  0.54787731832E+03  0.56995294878E+03  0.00000000000E+00 0. -1.
          3    1    5    5  503    0 -0.17090354454E+03 -0.10798958481E+03  0.15500141346E+03  0.25474538296E+03  0.00000000000E+00 0. -1.
         -4    1    5    5    0  503 -0.44219337336E+03 -0.30319468399E+03  0.58661041352E+03  0.79471615882E+03  0.00000000000E+00 0.  1.
         -3    1    6    6    0  502  0.11544572110E+03 -0.23917693837E+02  0.35403952659E+03  0.37315379804E+03  0.00000000000E+00 0.  1.
<mgrwt>
<rscale>  0 0.42011276E+04</rscale>
<asrwt>0</asrwt>
<pdfrwt beam="1">  1        2 0.28779167E+00 0.42011276E+04</pdfrwt>
<pdfrwt beam="2">  1       -2 0.36288317E+00 0.42011276E+04</pdfrwt>
<totfact> 0.78869159E-02</totfact>
</mgrwt>
</event>
<event>
12    1  0.1549527E-007  0.1853135E+04  0.7818608E-02  0.8678542E-01
         -2   -1    0    0    0  501 -0.00000000000E+00  0.00000000000E+00  0.30475728201E+03  0.30475728201E+03  0.00000000000E+00 0.  1.
          2   -1    0    0  501    0  0.00000000000E+00 -0.00000000000E+00 -0.28170856452E+04  0.28170856452E+04  0.00000000000E+00 0. -1.
         23    2    1    2    0    0 -0.20296665788E+03 -0.43155180331E+03 -0.86548222645E+02  0.49284491805E+03  0.89292190340E+02 0.  0.
        254    2    1    2    0    0  0.20296665788E+03  0.43155180331E+03 -0.24257801405E+04  0.26289980091E+04  0.89430912929E+03 0.  0.
        -24    2    4    4    0    0 -0.28769422917E+03  0.24214855792E+03 -0.50022563125E+03  0.63138703544E+03  0.83785516404E+02 0.  0.
         24    2    4    4    0    0  0.49066088705E+03  0.18940324539E+03 -0.19255545092E+04  0.19976109737E+04  0.77895690600E+02 0.  0.
         11    1    3    3    0    0 -0.20303380936E+03 -0.42595772544E+03 -0.96304299203E+02  0.48159861883E+03  0.00000000000E+00 0.  1.
        -11    1    3    3    0    0  0.67151485647E-01 -0.55940778685E+01  0.97560765576E+01  0.11246299228E+02  0.00000000000E+00 0. -1.
          4    1    6    6  502    0  0.27241156324E+03  0.13607216182E+03 -0.12024797778E+04  0.12404359351E+04  0.00000000000E+00 0. -1.
          3    1    5    5  503    0  0.84373560403E+00  0.22743779568E+02 -0.28148874665E+02  0.36198764394E+02  0.00000000000E+00 0. -1.
         -4    1    5    5    0  503 -0.28853796477E+03  0.21940477836E+03 -0.47207675659E+03  0.59518827105E+03  0.00000000000E+00 0.  1.
         -3    1    6    6    0  502  0.21824932381E+03  0.53331083563E+02 -0.72307473145E+03  0.75717503859E+03  0.00000000000E+00 0.  1.
<mgrwt>
<rscale>  0 0.18531350E+04</rscale>
<asrwt>0</asrwt>
<pdfrwt beam="1">  1        2 0.43339780E+00 0.18531350E+04</pdfrwt>
<pdfrwt beam="2">  1       -2 0.46885734E-01 0.18531350E+04</pdfrwt>
<totfact> 0.91743637E+00</totfact>
</mgrwt>
</event>
<event>
12    1  0.1549527E-007  0.1607028E+04  0.7818608E-02  0.8816242E-01
         -1   -1    0    0    0  501 -0.00000000000E+00  0.00000000000E+00  0.36976962031E+03  0.36976962031E+03  0.00000000000E+00 0.  1.
          1   -1    0    0  501    0  0.00000000000E+00 -0.00000000000E+00 -0.17460455216E+04  0.17460455216E+04  0.00000000000E+00 0. -1.
         23    2    1    2    0    0 -0.38284953977E+02 -0.48400780631E+03 -0.11314242014E+03  0.50666051896E+03  0.90412277742E+02 0.  0.
        254    2    1    2    0    0  0.38284953977E+02  0.48400780631E+03 -0.12631334812E+04  0.16091546230E+04  0.87071414086E+03 0.  0.
        -24    2    4    4    0    0  0.15189536589E+03  0.44218134825E+03 -0.16669334390E+03  0.50274486271E+03  0.79807137302E+02 0.  0.
         24    2    4    4    0    0 -0.11361041191E+03  0.41826458065E+02 -0.10964401373E+04  0.11064097603E+04  0.85468150051E+02 0.  0.
         13    1    3    3    0    0  0.11619349218E+02 -0.46755358877E+02 -0.35329831097E+02  0.59743366371E+02  0.00000000000E+00 0. -1.
        -13    1    3    3    0    0 -0.49904303196E+02 -0.43725244744E+03 -0.77812589042E+02  0.44691715259E+03  0.00000000000E+00 0.  1.
          2    1    6    6  502    0 -0.11241094145E+03  0.30404848509E+02 -0.68634255976E+03  0.69615140876E+03  0.00000000000E+00 0. -1.
          1    1    5    5  503    0  0.14374508646E+03  0.32376368916E+03 -0.10805650196E+03  0.37035359309E+03  0.00000000000E+00 0. -1.
         -2    1    5    5    0  503  0.81502794268E+01  0.11841765909E+03 -0.58636841935E+02  0.13239126962E+03  0.00000000000E+00 0.  1.
         -1    1    6    6    0  502 -0.11994704611E+01  0.11421609555E+02 -0.41009757754E+03  0.41025835153E+03  0.00000000000E+00 0.  1.
<mgrwt>
<rscale>  0 0.16070278E+04</rscale>
<asrwt>0</asrwt>
<pdfrwt beam="1">  1        1 0.26862239E+00 0.16070278E+04</pdfrwt>
<pdfrwt beam="2">  1       -1 0.56887634E-01 0.16070278E+04</pdfrwt>
<totfact> 0.13300945E+01</totfact>
</mgrwt>
</event>
<event>
12    1  0.1549527E-007  0.1442048E+04  0.7818608E-02  0.8923932E-01
         -1   -1    0    0    0  501 -0.00000000000E+00  0.00000000000E+00  0.70664927815E+03  0.70664927815E+03  0.00000000000E+00 0.  1.
          1   -1    0    0  501    0  0.00000000000E+00 -0.00000000000E+00 -0.73569117374E+03  0.73569117374E+03  0.00000000000E+00 0. -1.
         23    2    1    2    0    0 -0.95998052611E+01 -0.16573035310E+03 -0.40157299903E+03  0.44372361584E+03  0.89839120119E+02 0.  0.
        254    2    1    2    0    0  0.95998052611E+01  0.16573035310E+03  0.37253110344E+03  0.99861683605E+03  0.91153576782E+03 0.  0.
        -24    2    4    4    0    0 -0.22307230452E+03 -0.15263716729E+02 -0.22494134657E+03  0.32753820597E+03  0.81782839767E+02 0.  0.
         24    2    4    4    0    0  0.23267210978E+03  0.18099406983E+03  0.59747245002E+03  0.67107863009E+03  0.80486242589E+02 0.  0.
         13    1    3    3    0    0  0.20935120484E+02 -0.60075199569E+02 -0.23988209720E+03  0.24817479613E+03  0.00000000000E+00 0. -1.
        -13    1    3    3    0    0 -0.30534925745E+02 -0.10565515353E+03 -0.16169090183E+03  0.19554881972E+03  0.00000000000E+00 0.  1.
          2    1    6    6  502    0  0.63965806896E+02  0.99313293279E+02  0.23159237508E+03  0.25998035093E+03  0.00000000000E+00 0. -1.
          1    1    5    5  503    0 -0.20746551605E+03 -0.36042074688E+02 -0.21078774758E+03  0.29794705239E+03  0.00000000000E+00 0. -1.
         -2    1    5    5    0  503 -0.15606788465E+02  0.20778357959E+02 -0.14153598995E+02  0.29591153580E+02  0.00000000000E+00 0.  1.
         -1    1    6    6    0  502  0.16870630288E+03  0.81680776553E+02  0.36588007494E+03  0.41109827916E+03  0.00000000000E+00 0.  1.
<mgrwt>
<rscale>  0 0.14420480E+04</rscale>
<asrwt>0</asrwt>
<pdfrwt beam="1">  1        1 0.11318326E+00 0.14420480E+04</pdfrwt>
<pdfrwt beam="2">  1       -1 0.10871527E+00 0.14420480E+04</pdfrwt>
<totfact> 0.19254056E+01</totfact>
</mgrwt>
</event>
<event>
12    1  0.1549527E-007  0.1560724E+04  0.7818608E-02  0.8845047E-01
         -2   -1    0    0    0  501 -0.00000000000E+00  0.00000000000E+00  0.55260461990E+03  0.55260461990E+03  0.00000000000E+00 0.  1.
          2   -1    0    0  501    0  0.00000000000E+00 -0.00000000000E+00 -0.11019898966E+04  0.11019898966E+04  0.00000000000E+00 0. -1.
         23    2    1    2    0    0  0.32772658504E+03 -0.53505141581E+02  0.21313423915E+03  0.40534113309E+03  0.92777775111E+02 0.  0.
        254    2    1    2    0    0 -0.32772658504E+03  0.53505141581E+02 -0.76251951582E+03  0.12492533834E+04  0.93216441102E+03 0.  0.
        -24    2    4    4    0    0 -0.57193016250E+03  0.25679244644E+03 -0.34976959540E+03  0.72231947328E+03  0.79750738464E+02 0.  0.
         24    2    4    4    0    0  0.24420357745E+03 -0.20328730486E+03 -0.41274992042E+03  0.52693391011E+03  0.79597319416E+02 0.  0.
         11    1    3    3    0    0  0.30700880782E+03 -0.41464337053E+02  0.22051931657E+03  0.38026631234E+03  0.00000000000E+00 0.  1.
        -11    1    3    3    0    0  0.20717777227E+02 -0.12040804528E+02 -0.73850774160E+01  0.25074820744E+02  0.00000000000E+00 0. -1.
          2    1    6    6  502    0  0.44933827381E+02 -0.10689257815E+02 -0.32785224779E+02  0.56640798366E+02  0.00000000000E+00 0. -1.
          3    1    5    5  503    0 -0.88606394543E+02  0.12787780820E+02 -0.64501671831E+02  0.11034077289E+03  0.00000000000E+00 0. -1.
         -4    1    5    5    0  503 -0.48332376795E+03  0.24400466562E+03 -0.28526792357E+03  0.61197870039E+03  0.00000000000E+00 0.  1.
         -1    1    6    6    0  502  0.19926975007E+03 -0.19259804705E+03 -0.37996469564E+03  0.47029311174E+03  0.00000000000E+00 0.  1.
<mgrwt>
<rscale>  0 0.15607238E+04</rscale>
<asrwt>0</asrwt>
<pdfrwt beam="1">  1        2 0.16953691E+00 0.15607238E+04</pdfrwt>
<pdfrwt beam="2">  1       -2 0.85016096E-01 0.15607238E+04</pdfrwt>
<totfact> 0.25170145E+01</totfact>
</mgrwt>
</event>
<event>
12    1  0.1549527E-007  0.2519124E+04  0.7818608E-02  0.8396204E-01
         -1   -1    0    0    0  501 -0.00000000000E+00  0.00000000000E+00  0.26624053544E+04  0.26624053544E+04  0.00000000000E+00 0.  1.
          1   -1    0    0  501    0  0.00000000000E+00 -0.00000000000E+00 -0.59588841144E+03  0.59588841144E+03  0.00000000000E+00 0. -1.
         23    2    1    2    0    0  0.40012928187E+03 -0.16410736129E+03 -0.40116843062E+03  0.59732141907E+03  0.93926033189E+02 0.  0.
        254    2    1    2    0    0 -0.40012928187E+03  0.16410736129E+03  0.24676853736E+04  0.26609723468E+04  0.89680993475E+03 0.  0.
        -24    2    4    4    0    0 -0.30782369691E+02  0.48931883955E+03  0.12752263079E+04  0.13685643337E+04  0.79910687767E+02 0.  0.
         24    2    4    4    0    0 -0.36934691218E+03 -0.32521147826E+03  0.11924590657E+04  0.12924080131E+04  0.78614259973E+02 0.  0.
         11    1    3    3    0    0  0.36889035413E+03 -0.16673709652E+03 -0.34029466789E+03  0.52884951897E+03  0.00000000000E+00 0. -1.
        -11    1    3    3    0    0  0.31238927746E+02  0.26297352252E+01 -0.60873762727E+02  0.68471900095E+02  0.00000000000E+00 0.  1.
          2    1    6    6  502    0 -0.24011438576E+03 -0.22255474552E+03  0.69425271818E+03  0.76757564429E+03  0.00000000000E+00 0. -1.
          1    1    5    5  503    0 -0.21554430801E+02  0.17968518800E+03  0.57679589730E+03  0.60452036145E+03  0.00000000000E+00 0. -1.
         -2    1    5    5    0  503 -0.92279388901E+01  0.30963365156E+03  0.69843041059E+03  0.76404397220E+03  0.00000000000E+00 0.  1.
         -1    1    6    6    0  502 -0.12923252642E+03 -0.10265673274E+03  0.49820634755E+03  0.52483236886E+03  0.00000000000E+00 0.  1.
<mgrwt>
<rscale>  0 0.25191241E+04</rscale>
<asrwt>0</asrwt>
<pdfrwt beam="1">  1        1 0.91675142E-01 0.25191241E+04</pdfrwt>
<pdfrwt beam="2">  1       -1 0.40960082E+00 0.25191241E+04</pdfrwt>
<totfact> 0.18860316E-01</totfact>
</mgrwt>
</event>
<event>
12    1  0.1549527E-007  0.2335674E+04  0.7818608E-02  0.8463987E-01
         -1   -1    0    0    0  501 -0.00000000000E+00  0.00000000000E+00  0.95542420040E+03  0.95542420040E+03  0.00000000000E+00 0.  1.
          1   -1    0    0  501    0  0.00000000000E+00 -0.00000000000E+00 -0.14274739155E+04  0.14274739155E+04  0.00000000000E+00 0. -1.
         23    2    1    2    0    0 -0.35168247206E+03 -0.67864862426E+03  0.45460093121E+03  0.89410492398E+03  0.92288092784E+02 0.  0.
        254    2    1    2    0    0  0.35168247206E+03  0.67864862426E+03 -0.92665064628E+03  0.14887931919E+04  0.87953353070E+03 0.  0.
        -24    2    4    4    0    0  0.27736762863E+03  0.69548027683E+03 -0.23565954481E+03  0.78896781308E+03  0.79430297447E+02 0.  0.
         24    2    4    4    0    0  0.74314843436E+02 -0.16831652571E+02 -0.69099110147E+03  0.69982537881E+03  0.80503776576E+02 0.  0.
         11    1    3    3    0    0 -0.13984384708E+03 -0.18500272446E+03  0.11833010195E+03  0.26035422534E+03  0.00000000000E+00 0. -1.
        -11    1    3    3    0    0 -0.21183862498E+03 -0.49364589980E+03  0.33627082925E+03  0.63375069864E+03  0.00000000000E+00 0.  1.
          2    1    6    6  502    0  0.36053469954E+02 -0.37542107848E+02 -0.19165008211E+03  0.19859258931E+03  0.00000000000E+00 0. -1.
          1    1    5    5  503    0  0.23914959956E+03  0.62686183676E+03 -0.18673372489E+03  0.69643217715E+03  0.00000000000E+00 0. -1.
         -2    1    5    5    0  503  0.38218029061E+02  0.68618440068E+02 -0.48925819916E+02  0.92535635931E+02  0.00000000000E+00 0.  1.
         -1    1    6    6    0  502  0.38261373482E+02  0.20710455277E+02 -0.49934101936E+03  0.50123278950E+03  0.00000000000E+00 0.  1.
<mgrwt>
<rscale>  0 0.23356739E+04</rscale>
<asrwt>0</asrwt>
<pdfrwt beam="1">  1        1 0.21961137E+00 0.23356739E+04</pdfrwt>
<pdfrwt beam="2">  1       -1 0.14698834E+00 0.23356739E+04</pdfrwt>
<totfact> 0.24401624E+00</totfact>
</mgrwt>
</event>
<event>
12    1  0.1549527E-007  0.1843926E+04  0.7818608E-02  0.8683283E-01
         -1   -1    0    0    0  501 -0.00000000000E+00  0.00000000000E+00  0.37499370669E+03  0.37499370669E+03  0.00000000000E+00 0.  1.
          1   -1    0    0  501    0  0.00000000000E+00 -0.00000000000E+00 -0.22667457729E+04  0.22667457729E+04  0.00000000000E+00 0. -1.
         23    2    1    2    0    0  0.34039532178E+03  0.62852220702E+02 -0.16382377422E+04  0.16770846531E+04  0.94713552636E+02 0.  0.
        254    2    1    2    0    0 -0.34039532178E+03 -0.62852220702E+02 -0.25351432404E+03  0.96465482649E+03  0.86398497964E+03 0.  0.
        -24    2    4    4    0    0  0.25718656831E+03 -0.30558191005E+01 -0.23678179688E+03  0.35827383458E+03  0.78359761767E+02 0.  0.
         24    2    4    4    0    0 -0.59758189009E+03 -0.59796401601E+02 -0.16732527156E+02  0.60638099191E+03  0.82086569417E+02 0.  0.
         13    1    3    3    0    0  0.89822497031E+02 -0.21025819400E+02 -0.51385253366E+03  0.52206761286E+03  0.00000000000E+00 0. -1.
        -13    1    3    3    0    0  0.25057282474E+03  0.83878040102E+02 -0.11243852085E+04  0.11550170403E+04  0.00000000000E+00 0.  1.
          4    1    6    6  502    0 -0.53085794938E+03 -0.38232521466E+02  0.72173414914E+01  0.53228185967E+03  0.00000000000E+00 0. -1.
          1    1    5    5  503    0  0.20746034488E+03 -0.22445479803E+02 -0.21779089650E+03  0.30162305757E+03  0.00000000000E+00 0. -1.
         -2    1    5    5    0  503  0.49726223430E+02  0.19389660703E+02 -0.18990900382E+02  0.56650777012E+02  0.00000000000E+00 0.  1.
         -3    1    6    6    0  502 -0.66723940703E+02 -0.21563880135E+02 -0.23949868647E+02  0.74099132233E+02  0.00000000000E+00 0.  1.
<mgrwt>
<rscale>  0 0.18439256E+04</rscale>
<asrwt>0</asrwt>
<pdfrwt beam="1">  1        1 0.34873011E+00 0.18439256E+04</pdfrwt>
<pdfrwt beam="2">  1       -1 0.57691341E-01 0.18439256E+04</pdfrwt>
<totfact> 0.56137005E+00</totfact>
</mgrwt>
</event>
<event>
12    1  0.1549527E-007  0.3258107E+04  0.7818608E-02  0.8173638E-01
          1   -1    0    0  501    0  0.00000000000E+00  0.00000000000E+00  0.37811491122E+04  0.37811491122E+04  0.00000000000E+00 0. -1.
         -1   -1    0    0    0  501 -0.00000000000E+00 -0.00000000000E+00 -0.70185421855E+03  0.70185421855E+03  0.00000000000E+00 0.  1.
         23    2    1    2    0    0 -0.70400336785E+03 -0.36413775457E+03  0.31766548353E+04  0.32753826819E+04  0.93694846836E+02 0.  0.
        254    2    1    2    0    0  0.70400336785E+03  0.36413775457E+03 -0.97359941645E+02  0.12076206488E+04  0.90589824315E+03 0.  0.
        -24    2    4    4    0    0  0.30237794286E+03 -0.28612963029E+03  0.42030277417E+02  0.42671118660E+03  0.83745488795E+02 0.  0.
         24    2    4    4    0    0  0.40162542499E+03  0.65026738486E+03 -0.13939021906E+03  0.78090946220E+03  0.78989247256E+02 0.  0.
         13    1    3    3    0    0 -0.43693050818E+03 -0.24195138945E+03  0.21716494893E+04  0.22283424890E+04  0.00000000000E+00 0.  1.
        -13    1    3    3    0    0 -0.26707285967E+03 -0.12218636512E+03  0.10050053460E+04  0.10470401930E+04  0.00000000000E+00 0. -1.
          2    1    6    6  502    0  0.30556572110E+03  0.47948898227E+03 -0.69183860582E+02  0.57277089712E+03  0.00000000000E+00 0. -1.
          3    1    5    5  503    0  0.10736115039E+03 -0.13996578389E+03 -0.12951289059E+02  0.17687445593E+03  0.00000000000E+00 0. -1.
         -4    1    5    5    0  503  0.19501679248E+03 -0.14616384640E+03  0.54981566476E+02  0.24983673068E+03  0.00000000000E+00 0.  1.
         -1    1    6    6    0  502  0.96059703891E+02  0.17077840258E+03 -0.70206358479E+02  0.20813856508E+03  0.00000000000E+00 0.  1.
<mgrwt>
<rscale>  0 0.32581071E+04</rscale>
<asrwt>0</asrwt>
<pdfrwt beam="1">  1        1 0.58171524E+00 0.32581071E+04</pdfrwt>
<pdfrwt beam="2">  1       -1 0.10797757E+00 0.32581071E+04</pdfrwt>
<totfact> 0.97953196E-02</totfact>
</mgrwt>
</event>
<event>
12    1  0.1549527E-007  0.1742238E+04  0.7818608E-02  0.8737634E-01
          1   -1    0    0  501    0  0.00000000000E+00  0.00000000000E+00  0.88785487204E+03  0.88785487204E+03  0.00000000000E+00 0. -1.
         -1   -1    0    0    0  501 -0.00000000000E+00 -0.00000000000E+00 -0.85469869860E+03  0.85469869860E+03  0.00000000000E+00 0.  1.
         23    2    1    2    0    0 -0.45812747803E+02 -0.43074963720E+03 -0.45314320628E+03  0.63349535099E+03  0.91288205794E+02 0.  0.
        254    2    1    2    0    0  0.45812747803E+02  0.43074963720E+03  0.48629937972E+03  0.11090582196E+04  0.89770763060E+03 0.  0.
        -24    2    4    4    0    0 -0.16121008914E+02 -0.24788286634E+03  0.29991133462E+03  0.39796668292E+03  0.82005303044E+02 0.  0.
         24    2    4    4    0    0  0.61933756717E+02  0.67863250355E+03  0.18638804510E+03  0.71109153673E+03  0.80825770361E+02 0.  0.
         11    1    3    3    0    0  0.48368490578E+01 -0.21881157489E+02 -0.59891577592E+02  0.63946706157E+02  0.00000000000E+00 0. -1.
        -11    1    3    3    0    0 -0.50649596860E+02 -0.40886847971E+03 -0.39325162869E+03  0.56954864483E+03  0.00000000000E+00 0.  1.
          2    1    6    6  502    0  0.80835400750E+02  0.57302193957E+03  0.15028596488E+03  0.59789160931E+03  0.00000000000E+00 0. -1.
          1    1    5    5  503    0 -0.72900122354E+01 -0.24024708736E+03  0.25037269668E+03  0.34707102228E+03  0.00000000000E+00 0. -1.
         -2    1    5    5    0  503 -0.88309966787E+01 -0.76357789805E+01  0.49538637944E+02  0.50895660643E+02  0.00000000000E+00 0.  1.
         -1    1    6    6    0  502 -0.18901644034E+02  0.10561056398E+03  0.36102080218E+02  0.11319992742E+03  0.00000000000E+00 0.  1.
<mgrwt>
<rscale>  0 0.17422381E+04</rscale>
<asrwt>0</asrwt>
<pdfrwt beam="1">  1        1 0.13659306E+00 0.17422381E+04</pdfrwt>
<pdfrwt beam="2">  1       -1 0.13149211E+00 0.17422381E+04</pdfrwt>
<totfact> 0.87007958E+00</totfact>
</mgrwt>
</event>
<event>
12    1  0.1549527E-007  0.5516983E+04  0.7818608E-02  0.7753357E-01
         -1   -1    0    0    0  501 -0.00000000000E+00  0.00000000000E+00  0.41923773478E+04  0.41923773478E+04  0.00000000000E+00 0.  1.
          1   -1    0    0  501    0  0.00000000000E+00 -0.00000000000E+00 -0.18150265684E+04  0.18150265684E+04  0.00000000000E+00 0. -1.
         23    2    1    2    0    0 -0.55566182923E+03 -0.22164133294E+04 -0.37715573462E+03  0.23177551565E+04  0.92165079670E+02 0.  0.
        254    2    1    2    0    0  0.55566182923E+03  0.22164133294E+04  0.27545065141E+04  0.36896487597E+04  0.89719213035E+03 0.  0.
        -24    2    4    4    0    0  0.13144835452E+03  0.86116848836E+03  0.45570726268E+03  0.98630847098E+03  0.79028193786E+02 0.  0.
         24    2    4    4    0    0  0.42421347471E+03  0.13552448411E+04  0.22987992514E+04  0.27033402887E+04  0.83216988703E+02 0.  0.
         13    1    3    3    0    0 -0.15101636610E+03 -0.59774922931E+03 -0.14335821757E+03  0.63297840605E+03  0.00000000000E+00 0.  1.
        -13    1    3    3    0    0 -0.40464546313E+03 -0.16186641001E+04 -0.23379751705E+03  0.16847767504E+04  0.00000000000E+00 0. -1.
          4    1    6    6  502    0  0.17177694397E+03  0.61420915307E+03  0.11016723048E+04  0.12729658555E+04  0.00000000000E+00 0. -1.
          1    1    5    5  503    0  0.13570625650E+03  0.83003575810E+03  0.45156733811E+03  0.95461437692E+03  0.00000000000E+00 0. -1.
         -2    1    5    5    0  503 -0.42579019738E+01  0.31132730257E+02  0.41399245697E+01  0.31694094054E+02  0.00000000000E+00 0.  1.
         -3    1    6    6    0  502  0.25243653073E+03  0.74103568798E+03  0.11971269466E+04  0.14303744332E+04  0.00000000000E+00 0.  1.
<mgrwt>
<rscale>  0 0.55169833E+04</rscale>
<asrwt>0</asrwt>
<pdfrwt beam="1">  1        1 0.27923486E+00 0.55169833E+04</pdfrwt>
<pdfrwt beam="2">  1       -1 0.64498113E+00 0.55169833E+04</pdfrwt>
<totfact> 0.85277549E-04</totfact>
</mgrwt>
</event>
<event>
12    1  0.1549527E-007  0.1890690E+04  0.7818608E-02  0.8659504E-01
         -2   -1    0    0    0  501 -0.00000000000E+00  0.00000000000E+00  0.33396723283E+03  0.33396723283E+03  0.00000000000E+00 0.  1.
          2   -1    0    0  501    0  0.00000000000E+00 -0.00000000000E+00 -0.26759440770E+04  0.26759440770E+04  0.00000000000E+00 0. -1.
         23    2    1    2    0    0 -0.14833662021E+03 -0.35923367126E+03 -0.19240862949E+04  0.19654208370E+04  0.98582010761E+02 0.  0.
        254    2    1    2    0    0  0.14833662021E+03  0.35923367126E+03 -0.41789054925E+03  0.10444904728E+04  0.87480012183E+03 0.  0.
        -24    2    4    4    0    0  0.15516619919E+03 -0.20375610403E+03 -0.39196210280E+03  0.47516926009E+03  0.80984173779E+02 0.  0.
         24    2    4    4    0    0 -0.68295789832E+01  0.56298977529E+03 -0.25928446452E+02  0.56932121271E+03  0.80313315716E+02 0.  0.
         11    1    3    3    0    0 -0.52787757859E+02 -0.19790633041E+03 -0.12054054646E+04  0.12226838500E+04  0.00000000000E+00 0. -1.
        -11    1    3    3    0    0 -0.95548862347E+02 -0.16132734086E+03 -0.71868083026E+03  0.74273698695E+03  0.00000000000E+00 0.  1.
          4    1    6    6  502    0  0.25334818660E+02  0.43128439909E+03 -0.44253584033E+01  0.43205054071E+03  0.00000000000E+00 0. -1.
          3    1    5    5  503    0  0.76435992248E+02 -0.15239726966E+03 -0.21120818944E+03  0.27143376355E+03  0.00000000000E+00 0. -1.
         -4    1    5    5    0  503  0.78730206941E+02 -0.51358834364E+02 -0.18075391337E+03  0.20373549654E+03  0.00000000000E+00 0.  1.
         -3    1    6    6    0  502 -0.32164397643E+02  0.13170537620E+03 -0.21503088049E+02  0.13727067200E+03  0.00000000000E+00 0.  1.
<mgrwt>
<rscale>  0 0.18906905E+04</rscale>
<asrwt>0</asrwt>
<pdfrwt beam="1">  1        2 0.41168370E+00 0.18906905E+04</pdfrwt>
<pdfrwt beam="2">  1       -2 0.51379574E-01 0.18906905E+04</pdfrwt>
<totfact> 0.92201805E+00</totfact>
</mgrwt>
</event>
<event>
12    1  0.1549527E-007  0.1721618E+04  0.7818608E-02  0.8749130E-01
         -1   -1    0    0    0  501 -0.00000000000E+00  0.00000000000E+00  0.54261100183E+03  0.54261100183E+03  0.00000000000E+00 0.  1.
          1   -1    0    0  501    0  0.00000000000E+00 -0.00000000000E+00 -0.13656043331E+04  0.13656043331E+04  0.00000000000E+00 0. -1.
         23    2    1    2    0    0  0.14476710639E+02  0.51018248929E+03  0.84957944223E+02  0.52733526226E+03  0.10182769275E+03 0.  0.
        254    2    1    2    0    0 -0.14476710639E+02 -0.51018248929E+03 -0.90795127545E+03  0.13808800726E+04  0.90661927448E+03 0.  0.
        -24    2    4    4    0    0 -0.41584487401E+03 -0.26284331800E+03 -0.22248708821E+03  0.54500256078E+03  0.74254412536E+02 0.  0.
         24    2    4    4    0    0  0.40136816337E+03 -0.24733917129E+03 -0.68546418724E+03  0.83587751184E+03  0.80975271492E+02 0.  0.
         11    1    3    3    0    0  0.84514771440E+00  0.27348078588E+03 -0.55899323923E+01  0.27353921449E+03  0.00000000000E+00 0. -1.
        -11    1    3    3    0    0  0.13631562924E+02  0.23670170341E+03  0.90547876615E+02  0.25379604777E+03  0.00000000000E+00 0.  1.
          2    1    6    6  502    0  0.27524175784E+03 -0.19174854500E+03 -0.53813302573E+03  0.63412355511E+03  0.00000000000E+00 0. -1.
          1    1    5    5  503    0 -0.33265427556E+03 -0.17658167563E+03 -0.18379250288E+03  0.41906996949E+03  0.00000000000E+00 0. -1.
         -2    1    5    5    0  503 -0.83190598453E+02 -0.86261642367E+02 -0.38694585327E+02  0.12593259129E+03  0.00000000000E+00 0.  1.
         -1    1    6    6    0  502  0.12612640554E+03 -0.55590626292E+02 -0.14733116151E+03  0.20175395673E+03  0.00000000000E+00 0.  1.
<mgrwt>
<rscale>  0 0.17216178E+04</rscale>
<asrwt>0</asrwt>
<pdfrwt beam="1">  1        1 0.21009297E+00 0.17216178E+04</pdfrwt>
<pdfrwt beam="2">  1       -1 0.83478616E-01 0.17216178E+04</pdfrwt>
<totfact> 0.10986887E+01</totfact>
</mgrwt>
</event>
<event>
12    1  0.1549527E-007  0.1158212E+04  0.7818608E-02  0.9150241E-01
          1   -1    0    0  501    0  0.00000000000E+00  0.00000000000E+00  0.80569743631E+03  0.80569743631E+03  0.00000000000E+00 0. -1.
         -1   -1    0    0    0  501 -0.00000000000E+00 -0.00000000000E+00 -0.41624016516E+03  0.41624016516E+03  0.00000000000E+00 0.  1.
         23    2    1    2    0    0  0.10140014147E+03  0.13683458443E+03  0.21919488022E+03  0.29195396499E+03  0.90471155449E+02 0.  0.
        254    2    1    2    0    0 -0.10140014147E+03 -0.13683458443E+03  0.17026239093E+03  0.92998363648E+03  0.89826198304E+03 0.  0.
        -24    2    4    4    0    0  0.12649408844E+03 -0.47500016938E+03  0.85169057531E+02  0.50572913943E+03  0.82959500886E+02 0.  0.
         24    2    4    4    0    0 -0.22789422991E+03  0.33816558494E+03  0.85093333396E+02  0.42425449705E+03  0.80369521699E+02 0.  0.
         13    1    3    3    0    0  0.15083683784E+02 -0.12410430237E+02  0.31750062473E+02  0.37277376010E+02  0.00000000000E+00 0.  1.
        -13    1    3    3    0    0  0.86316457684E+02  0.14924501467E+03  0.18744481775E+03  0.25467658898E+03  0.00000000000E+00 0. -1.
          4    1    6    6  502    0 -0.69375142754E+02  0.59925233791E+02  0.43050731664E+02  0.10127837663E+03  0.00000000000E+00 0. -1.
          1    1    5    5  503    0  0.65889498344E+02 -0.17602618892E+03 -0.37101607121E+01  0.18799045313E+03  0.00000000000E+00 0. -1.
         -2    1    5    5    0  503  0.60604590095E+02 -0.29897398046E+03  0.88879218243E+02  0.31773868629E+03  0.00000000000E+00 0.  1.
         -3    1    6    6    0  502 -0.15851908715E+03  0.27824035115E+03  0.42042601732E+02  0.32297612042E+03  0.00000000000E+00 0.  1.
<mgrwt>
<rscale>  0 0.11582118E+04</rscale>
<asrwt>0</asrwt>
<pdfrwt beam="1">  1        1 0.12395345E+00 0.11582118E+04</pdfrwt>
<pdfrwt beam="2">  1       -1 0.64036949E-01 0.11582118E+04</pdfrwt>
<totfact> 0.53665782E+01</totfact>
</mgrwt>
</event>
<event>
12    1  0.1549527E-007  0.1418920E+04  0.7818608E-02  0.8940236E-01
         -2   -1    0    0    0  501 -0.00000000000E+00  0.00000000000E+00  0.50154765174E+03  0.50154765174E+03  0.00000000000E+00 0. -1.
          2   -1    0    0  501    0  0.00000000000E+00 -0.00000000000E+00 -0.10035604059E+04  0.10035604059E+04  0.00000000000E+00 0.  1.
         23    2    1    2    0    0  0.35597083094E+01 -0.17967077953E+03 -0.57986719708E+03  0.61385078061E+03  0.90953581952E+02 0.  0.
        254    2    1    2    0    0 -0.35597083094E+01  0.17967077953E+03  0.77854442873E+02  0.89125727708E+03  0.86947338035E+03 0.  0.
        -24    2    4    4    0    0 -0.31265158748E+03  0.26853107280E+03  0.27840407416E+03  0.50392145962E+03  0.81043548438E+02 0.  0.
         24    2    4    4    0    0  0.30909187917E+03 -0.88860293269E+02 -0.20054963128E+03  0.38733581746E+03  0.79843217557E+02 0.  0.
         13    1    3    3    0    0  0.25013226151E+02 -0.12846111019E+02 -0.14267714316E+03  0.14542163262E+03  0.00000000000E+00 0. -1.
        -13    1    3    3    0    0 -0.21453517842E+02 -0.16682466851E+03 -0.43719005391E+03  0.46842914799E+03  0.00000000000E+00 0.  1.
          4    1    6    6  502    0  0.27501643447E+03 -0.99590580090E+02 -0.16037779075E+03  0.33357661584E+03  0.00000000000E+00 0. -1.
          3    1    5    5  503    0 -0.27831366711E+03  0.26312656495E+03  0.26860415697E+03  0.46780581401E+03  0.00000000000E+00 0. -1.
         -4    1    5    5    0  503 -0.34337920378E+02  0.54045078482E+01  0.97999171902E+01  0.36115645611E+02  0.00000000000E+00 0.  1.
         -3    1    6    6    0  502  0.34075444704E+02  0.10730286820E+02 -0.40171840530E+02  0.53759201618E+02  0.00000000000E+00 0.  1.
<mgrwt>
<rscale>  0 0.14189198E+04</rscale>
<asrwt>0</asrwt>
<pdfrwt beam="1">  1        2 0.15439391E+00 0.14189198E+04</pdfrwt>
<pdfrwt beam="2">  1       -2 0.77161177E-01 0.14189198E+04</pdfrwt>
<totfact> 0.36514303E+01</totfact>
</mgrwt>
</event>
<event>
12    1  0.1549527E-007  0.2631141E+04  0.7818608E-02  0.8357700E-01
         -2   -1    0    0    0  501 -0.00000000000E+00  0.00000000000E+00  0.76171804372E+03  0.76171804372E+03  0.00000000000E+00 0.  1.
          2   -1    0    0  501    0  0.00000000000E+00 -0.00000000000E+00 -0.22721337011E+04  0.22721337011E+04  0.00000000000E+00 0. -1.
         23    2    1    2    0    0  0.57738997766E+03 -0.82317439640E+03  0.45644383688E+00  0.10095955261E+04  0.91036502414E+02 0.  0.
        254    2    1    2    0    0 -0.57738997766E+03  0.82317439640E+03 -0.15108721012E+04  0.20242562187E+04  0.89659548272E+03 0.  0.
        -24    2    4    4    0    0 -0.24378084029E+03  0.94244175246E+03 -0.10080140808E+04  0.14035627388E+04  0.79185982131E+02 0.  0.
         24    2    4    4    0    0 -0.33360913737E+03 -0.11926735606E+03 -0.50285802036E+03  0.62069347990E+03  0.82912294530E+02 0.  0.
         13    1    3    3    0    0  0.14198863436E+03 -0.26073698143E+03  0.24628830127E+02  0.29791127042E+03  0.00000000000E+00 0. -1.
        -13    1    3    3    0    0  0.43540134330E+03 -0.56243741497E+03 -0.24172386290E+02  0.71168425567E+03  0.00000000000E+00 0.  1.
          2    1    6    6  502    0 -0.31356333210E+03 -0.12906291882E+03 -0.48657660467E+03  0.59307334493E+03  0.00000000000E+00 0. -1.
          3    1    5    5  503    0 -0.14294830304E+03  0.63151645284E+03 -0.62344417718E+03  0.89884920293E+03  0.00000000000E+00 0. -1.
         -4    1    5    5    0  503 -0.10083253725E+03  0.31092529962E+03 -0.38456990363E+03  0.50471353587E+03  0.00000000000E+00 0.  1.
         -1    1    6    6    0  502 -0.20045805272E+02  0.97955627601E+01 -0.16281415696E+02  0.27620134971E+02  0.00000000000E+00 0.  1.
<mgrwt>
<rscale>  0 0.26311406E+04</rscale>
<asrwt>0</asrwt>
<pdfrwt beam="1">  1        2 0.34955903E+00 0.26311406E+04</pdfrwt>
<pdfrwt beam="2">  1       -2 0.11718739E+00 0.26311406E+04</pdfrwt>
<totfact> 0.23353799E+00</totfact>
</mgrwt>
</event>
<event>
12    1  0.1549527E-007  0.1658113E+04  0.7818608E-02  0.8785622E-01
          1   -1    0    0  501    0  0.00000000000E+00  0.00000000000E+00  0.51120588219E+03  0.51120588219E+03  0.00000000000E+00 0. -1.
         -1   -1    0    0    0  501 -0.00000000000E+00 -0.00000000000E+00 -0.13445351339E+04  0.13445351339E+04  0.00000000000E+00 0.  1.
         23    2    1    2    0    0  0.41031669329E+03 -0.32305493623E+03 -0.12186931778E+02  0.53033545516E+03  0.91558140425E+02 0.  0.
        254    2    1    2    0    0 -0.41031669329E+03  0.32305493623E+03 -0.82114231997E+03  0.13254055610E+04  0.89983382398E+03 0.  0.
        -24    2    4    4    0    0  0.32972237773E+02  0.43692852343E+03 -0.72562343202E+03  0.85139251957E+03  0.79662753086E+02 0.  0.
         24    2    4    4    0    0 -0.44328893107E+03 -0.11387358720E+03 -0.95518887948E+02  0.47401304140E+03  0.78052771843E+02 0.  0.
         13    1    3    3    0    0  0.19233532771E+03 -0.17599140976E+03 -0.47591808118E+02  0.26501100881E+03  0.00000000000E+00 0. -1.
        -13    1    3    3    0    0  0.21798136559E+03 -0.14706352647E+03  0.35404876340E+02  0.26532444635E+03  0.00000000000E+00 0.  1.
          4    1    6    6  502    0 -0.29572862564E+03 -0.37826661405E+02 -0.55617034677E+02  0.30328127354E+03  0.00000000000E+00 0. -1.
          1    1    5    5  503    0  0.47964803648E+02  0.35797974213E+03 -0.63277855503E+03  0.72860058871E+03  0.00000000000E+00 0. -1.
         -2    1    5    5    0  503 -0.14992565874E+02  0.78948781299E+02 -0.92844876990E+02  0.12279193086E+03  0.00000000000E+00 0.  1.
         -3    1    6    6    0  502 -0.14756030543E+03 -0.76046925792E+02 -0.39901853271E+02  0.17073176786E+03  0.00000000000E+00 0.  1.
<mgrwt>
<rscale>  0 0.16581125E+04</rscale>
<asrwt>0</asrwt>
<pdfrwt beam="1">  1        1 0.78647060E-01 0.16581125E+04</pdfrwt>
<pdfrwt beam="2">  1       -1 0.20685156E+00 0.16581125E+04</pdfrwt>
<totfact> 0.55424505E+00</totfact>
</mgrwt>
</event>
<event>
12    1  0.1549527E-007  0.1553474E+04  0.7818608E-02  0.8849652E-01
          1   -1    0    0  501    0  0.00000000000E+00  0.00000000000E+00  0.18633089109E+04  0.18633089109E+04  0.00000000000E+00 0. -1.
         -1   -1    0    0    0  501 -0.00000000000E+00 -0.00000000000E+00 -0.32378984336E+03  0.32378984336E+03  0.00000000000E+00 0.  1.
         23    2    1    2    0    0  0.24992421217E+03  0.23131411260E+03 -0.16573177796E+02  0.35283280992E+03  0.90818450868E+02 0.  0.
        254    2    1    2    0    0 -0.24992421217E+03 -0.23131411260E+03  0.15560922454E+04  0.18342659444E+04  0.90947245592E+03 0.  0.
        -24    2    4    4    0    0  0.20971199655E+03 -0.38649140245E+03  0.97867453631E+03  0.10759455305E+04  0.80623884924E+02 0.  0.
         24    2    4    4    0    0 -0.45963620871E+03  0.15517728985E+03  0.57741770905E+03  0.75832041391E+03  0.79329715613E+02 0.  0.
         13    1    3    3    0    0  0.11968761422E+03  0.17148227025E+03 -0.96120472234E+01  0.20934107447E+03  0.00000000000E+00 0.  1.
        -13    1    3    3    0    0  0.13023659795E+03  0.59831842350E+02 -0.69611305727E+01  0.14349173545E+03  0.00000000000E+00 0. -1.
          4    1    6    6  502    0 -0.43123514801E+03  0.13357748928E+03  0.50357969443E+03  0.67631295061E+03  0.00000000000E+00 0. -1.
          1    1    5    5  503    0  0.14067268283E+03 -0.31362418996E+03  0.70224525813E+03  0.78185506252E+03  0.00000000000E+00 0. -1.
         -2    1    5    5    0  503  0.69039313718E+02 -0.72867212491E+02  0.27642927818E+03  0.29409046793E+03  0.00000000000E+00 0.  1.
         -3    1    6    6    0  502 -0.28401060707E+02  0.21599800571E+02  0.73838014613E+02  0.82007463294E+02  0.00000000000E+00 0.  1.
<mgrwt>
<rscale>  0 0.15534742E+04</rscale>
<asrwt>0</asrwt>
<pdfrwt beam="1">  1        1 0.28666290E+00 0.15534742E+04</pdfrwt>
<pdfrwt beam="2">  1       -1 0.49813823E-01 0.15534742E+04</pdfrwt>
<totfact> 0.14370309E+01</totfact>
</mgrwt>
</event>
<event>
12    1  0.1549527E-007  0.2479009E+04  0.7818608E-02  0.8410502E-01
          1   -1    0    0  501    0  0.00000000000E+00  0.00000000000E+00  0.13717024155E+04  0.13717024155E+04  0.00000000000E+00 0. -1.
         -1   -1    0    0    0  501 -0.00000000000E+00 -0.00000000000E+00 -0.11200472318E+04  0.11200472318E+04  0.00000000000E+00 0.  1.
         23    2    1    2    0    0 -0.93001306381E+03 -0.19160865969E+03 -0.39358289055E+03  0.10318360363E+04  0.90221597665E+02 0.  0.
        254    2    1    2    0    0  0.93001306381E+03  0.19160865969E+03  0.64523807427E+03  0.14599136110E+04  0.90187438250E+03 0.  0.
        -24    2    4    4    0    0  0.95688257932E+03  0.16368949094E+03  0.81395568863E+03  0.12691778929E+04  0.76616843995E+02 0.  0.
         24    2    4    4    0    0 -0.26869515510E+02  0.27919168748E+02 -0.16871761436E+03  0.19073571809E+03  0.80081395539E+02 0.  0.
         13    1    3    3    0    0 -0.76646950417E+03 -0.12854522266E+03 -0.34222073512E+03  0.84918455393E+03  0.00000000000E+00 0.  1.
        -13    1    3    3    0    0 -0.16354355964E+03 -0.63063437029E+02 -0.51362155433E+02  0.18265148234E+03  0.00000000000E+00 0. -1.
          2    1    6    6  502    0 -0.15191547735E+01  0.20193029150E+02 -0.16218043067E+03  0.16343976980E+03  0.00000000000E+00 0. -1.
          3    1    5    5  503    0  0.53142602221E+03  0.98497649151E+02  0.40419480093E+03  0.67489913399E+03  0.00000000000E+00 0. -1.
         -4    1    5    5    0  503  0.42545655711E+03  0.65191841793E+02  0.40976088771E+03  0.59427875893E+03  0.00000000000E+00 0.  1.
         -1    1    6    6    0  502 -0.25350360737E+02  0.77261395978E+01 -0.65371836870E+01  0.27295948292E+02  0.00000000000E+00 0.  1.
<mgrwt>
<rscale>  0 0.24790091E+04</rscale>
<asrwt>0</asrwt>
<pdfrwt beam="1">  1        1 0.21103114E+00 0.24790091E+04</pdfrwt>
<pdfrwt beam="2">  1       -1 0.17231496E+00 0.24790091E+04</pdfrwt>
<totfact> 0.16941726E+00</totfact>
</mgrwt>
</event>
<event>
12    1  0.1549527E-007  0.3271104E+04  0.7818608E-02  0.8170287E-01
          1   -1    0    0  501    0  0.00000000000E+00  0.00000000000E+00  0.93423057565E+03  0.93423057565E+03  0.00000000000E+00 0. -1.
         -1   -1    0    0    0  501 -0.00000000000E+00 -0.00000000000E+00 -0.28633517713E+04  0.28633517713E+04  0.00000000000E+00 0.  1.
         23    2    1    2    0    0  0.86286365864E+02  0.99510309416E+03 -0.22050812202E+04  0.24224107094E+04  0.89526265094E+02 0.  0.
        254    2    1    2    0    0 -0.86286365864E+02 -0.99510309416E+03  0.27596002458E+03  0.13751716376E+04  0.90402853530E+03 0.  0.
        -24    2    4    4    0    0  0.97583437158E+02 -0.83999606377E+03  0.54206919899E+03  0.10077481911E+04  0.81249528167E+02 0.  0.
         24    2    4    4    0    0 -0.18386980302E+03 -0.15510703039E+03 -0.26610917441E+03  0.36742344645E+03  0.79495917862E+02 0.  0.
         11    1    3    3    0    0  0.76593045556E+02  0.97848927358E+03 -0.21804006306E+04  0.23911199599E+04  0.00000000000E+00 0.  1.
        -11    1    3    3    0    0  0.96933203085E+01  0.16613820588E+02 -0.24680589670E+02  0.31290749425E+02  0.00000000000E+00 0. -1.
          2    1    6    6  502    0 -0.85161181815E+02 -0.10343782728E+03 -0.19001767289E+03  0.23250489675E+03  0.00000000000E+00 0. -1.
          1    1    5    5  503    0  0.11662352908E+02 -0.26785506021E+02  0.34858896180E+02  0.45482045370E+02  0.00000000000E+00 0. -1.
         -2    1    5    5    0  503  0.85921084251E+02 -0.81321055775E+03  0.50721030281E+03  0.96226614574E+03  0.00000000000E+00 0.  1.
         -1    1    6    6    0  502 -0.98708621207E+02 -0.51669203106E+02 -0.76091501520E+02  0.13491854970E+03  0.00000000000E+00 0.  1.
<mgrwt>
<rscale>  0 0.32711043E+04</rscale>
<asrwt>0</asrwt>
<pdfrwt beam="1">  1        1 0.14372778E+00 0.32711043E+04</pdfrwt>
<pdfrwt beam="2">  1       -1 0.44051565E+00 0.32711043E+04</pdfrwt>
<totfact> 0.53339940E-02</totfact>
</mgrwt>
</event>
<event>
12    1  0.3217959E-007  0.2253399E+04  0.7818608E-02  0.8496525E-01
         -2   -1    0    0    0  501 -0.00000000000E+00  0.00000000000E+00  0.96495440864E+03  0.96495440864E+03  0.00000000000E+00 0.  1.
          2   -1    0    0  501    0  0.00000000000E+00 -0.00000000000E+00 -0.13155560583E+04  0.13155560583E+04  0.00000000000E+00 0. -1.
         23    2    1    2    0    0  0.45794090996E+03 -0.36246252266E+03  0.60828901463E+03  0.84968247438E+03  0.10419128856E+03 0.  0.
        254    2    1    2    0    0 -0.45794090996E+03  0.36246252266E+03 -0.95889066433E+03  0.14308279926E+04  0.88696588486E+03 0.  0.
        -24    2    4    4    0    0 -0.37220420817E+03  0.38770043373E+03 -0.11111365625E+04  0.12369354737E+04  0.80853611759E+02 0.  0.
         24    2    4    4    0    0 -0.85736701786E+02 -0.25237911076E+02  0.15224589821E+03  0.19389251892E+03  0.80173319653E+02 0.  0.
         13    1    3    3    0    0  0.24805425592E+02 -0.19179828733E+02  0.76637782305E+02  0.82804134230E+02  0.00000000000E+00 0. -1.
        -13    1    3    3    0    0  0.43313548437E+03 -0.34328269392E+03  0.53165123232E+03  0.76687834015E+03  0.00000000000E+00 0.  1.
          2    1    6    6  502    0 -0.68821591021E+02 -0.13718418439E+02  0.15778868102E+03  0.17269011047E+03  0.00000000000E+00 0. -1.
          1    1    5    5  503    0 -0.31841435623E+03  0.33700556173E+03 -0.10131581657E+04  0.11142037155E+04  0.00000000000E+00 0. -1.
         -2    1    5    5    0  503 -0.53789851945E+02  0.50694872003E+02 -0.97978396802E+02  0.12273175815E+03  0.00000000000E+00 0.  1.
         -1    1    6    6    0  502 -0.16915110765E+02 -0.11519492636E+02 -0.55427828161E+01  0.21202408452E+02  0.00000000000E+00 0.  1.
<mgrwt>
<rscale>  0 0.22533989E+04</rscale>
<asrwt>0</asrwt>
<pdfrwt beam="1">  1        2 0.20239324E+00 0.22533989E+04</pdfrwt>
<pdfrwt beam="2">  1       -2 0.14845453E+00 0.22533989E+04</pdfrwt>
<totfact> 0.45379649E+00</totfact>
</mgrwt>
</event>
<event>
12    1  0.1549527E-007  0.1106442E+04  0.7818608E-02  0.9198936E-01
         -2   -1    0    0    0  501 -0.00000000000E+00  0.00000000000E+00  0.13888183226E+03  0.13888183226E+03  0.00000000000E+00 0.  1.
          2   -1    0    0  501    0  0.00000000000E+00 -0.00000000000E+00 -0.22036950432E+04  0.22036950432E+04  0.00000000000E+00 0. -1.
         23    2    1    2    0    0 -0.15171745577E+03 -0.35979681491E+02 -0.40114178929E+03  0.43989537534E+03  0.90997155281E+02 0.  0.
        254    2    1    2    0    0  0.15171745577E+03  0.35979681491E+02 -0.16636714217E+04  0.19026815001E+04  0.90998987236E+03 0.  0.
        -24    2    4    4    0    0  0.21267712427E+03 -0.14398150027E+03 -0.46500655978E+02  0.27288082419E+03  0.79620359185E+02 0.  0.
         24    2    4    4    0    0 -0.60959668502E+02  0.17996118176E+03 -0.16171707657E+04  0.16298006760E+04  0.70048909690E+02 0.  0.
         11    1    3    3    0    0 -0.13112775850E+03 -0.36505595599E+02 -0.39589574365E+03  0.41864135892E+03  0.00000000000E+00 0.  1.
        -11    1    3    3    0    0 -0.20589697266E+02  0.52591410802E+00 -0.52460456386E+01  0.21254016421E+02  0.00000000000E+00 0. -1.
          2    1    6    6  502    0 -0.15796734274E+02  0.11200927281E+03 -0.70839559025E+03  0.71737014594E+03  0.00000000000E+00 0. -1.
          3    1    5    5  503    0  0.11563880762E+03 -0.12355987381E+03 -0.21316559016E+02  0.17056896532E+03  0.00000000000E+00 0. -1.
         -4    1    5    5    0  503  0.97038316646E+02 -0.20421626466E+02 -0.25184096962E+02  0.10231185887E+03  0.00000000000E+00 0.  1.
         -1    1    6    6    0  502 -0.45162934228E+02  0.67951908951E+02 -0.90877517546E+03  0.91243053001E+03  0.00000000000E+00 0.  1.
<mgrwt>
<rscale>  0 0.11064415E+04</rscale>
<asrwt>0</asrwt>
<pdfrwt beam="1">  1        2 0.33903000E+00 0.11064415E+04</pdfrwt>
<pdfrwt beam="2">  1       -2 0.21366436E-01 0.11064415E+04</pdfrwt>
<totfact> 0.97427110E+01</totfact>
</mgrwt>
</event>
<event>
12    1  0.1549527E-007  0.1969434E+04  0.7818608E-02  0.8621046E-01
          1   -1    0    0  501    0  0.00000000000E+00  0.00000000000E+00  0.14547596762E+04  0.14547596762E+04  0.00000000000E+00 0. -1.
         -1   -1    0    0    0  501 -0.00000000000E+00 -0.00000000000E+00 -0.66654826831E+03  0.66654826831E+03  0.00000000000E+00 0.  1.
         23    2    1    2    0    0 -0.63586294717E+02 -0.38170312192E+03 -0.41087967306E+03  0.57180604900E+03  0.91649123219E+02 0.  0.
        254    2    1    2    0    0  0.63586294717E+02  0.38170312192E+03  0.11990910810E+04  0.15495018955E+04  0.90188481173E+03 0.  0.
        -24    2    4    4    0    0  0.25049284626E+03  0.54539300779E+03  0.11263686852E+04  0.12787638584E+04  0.79563757665E+02 0.  0.
         24    2    4    4    0    0 -0.18690655154E+03 -0.16368988587E+03  0.72722395768E+02  0.27073803714E+03  0.79259700751E+02 0.  0.
         11    1    3    3    0    0 -0.56600904317E+02 -0.10679128948E+03 -0.10109707233E+03  0.15757112652E+03  0.00000000000E+00 0. -1.
        -11    1    3    3    0    0 -0.69853904007E+01 -0.27491183244E+03 -0.30978260073E+03  0.41423492248E+03  0.00000000000E+00 0.  1.
          4    1    6    6  502    0 -0.10668867072E+02 -0.50740221177E+01  0.26715251917E+02  0.29210873148E+02  0.00000000000E+00 0. -1.
          1    1    5    5  503    0  0.16160541568E+03  0.38780216222E+03  0.71372767131E+03  0.82819926117E+03  0.00000000000E+00 0. -1.
         -2    1    5    5    0  503  0.88887430579E+02  0.15759084557E+03  0.41264101389E+03  0.45056459722E+03  0.00000000000E+00 0.  1.
         -3    1    6    6    0  502 -0.17623768447E+03 -0.15861586376E+03  0.46007143851E+02  0.24152716399E+03  0.00000000000E+00 0.  1.
<mgrwt>
<rscale>  0 0.19694340E+04</rscale>
<asrwt>0</asrwt>
<pdfrwt beam="1">  1        1 0.22380918E+00 0.19694340E+04</pdfrwt>
<pdfrwt beam="2">  1       -1 0.10254589E+00 0.19694340E+04</pdfrwt>
<totfact> 0.58839146E+00</totfact>
</mgrwt>
</event>
<event>
12    1  0.1549527E-007  0.1398640E+04  0.7818608E-02  0.8954803E-01
          2   -1    0    0  501    0  0.00000000000E+00  0.00000000000E+00  0.42273797313E+03  0.42273797313E+03  0.00000000000E+00 0.  1.
         -2   -1    0    0    0  501 -0.00000000000E+00 -0.00000000000E+00 -0.11568598545E+04  0.11568598545E+04  0.00000000000E+00 0. -1.
         23    2    1    2    0    0  0.18665767741E+03 -0.32990953877E+03 -0.65034008656E+02  0.39551279957E+03  0.92301462779E+02 0.  0.
        254    2    1    2    0    0 -0.18665767741E+03  0.32990953877E+03 -0.66908787269E+03  0.11840850280E+04  0.90038734994E+03 0.  0.
        -24    2    4    4    0    0 -0.30972491531E+03 -0.64311567523E+02 -0.68977817773E+03  0.76305576150E+03  0.79966616769E+02 0.  0.
         24    2    4    4    0    0  0.12306723790E+03  0.39422110630E+03  0.20690305039E+02  0.42102926654E+03  0.79257358441E+02 0.  0.
         11    1    3    3    0    0  0.14843104229E+03 -0.25310623711E+03 -0.88673429576E+02  0.30652490714E+03  0.00000000000E+00 0.  1.
        -11    1    3    3    0    0  0.38226635113E+02 -0.76803301663E+02  0.23639420919E+02  0.88987892434E+02  0.00000000000E+00 0. -1.
          4    1    6    6  502    0  0.11065060079E+03  0.29836822460E+03 -0.13487324338E+02  0.31851069185E+03  0.00000000000E+00 0. -1.
          1    1    5    5  503    0 -0.19629256382E+03 -0.59802654323E+02 -0.51791510224E+03  0.55708453685E+03  0.00000000000E+00 0. -1.
         -2    1    5    5    0  503 -0.11343235149E+03 -0.45089131998E+01 -0.17186307550E+03  0.20597122465E+03  0.00000000000E+00 0.  1.
         -3    1    6    6    0  502  0.12416637116E+02  0.95852881702E+02  0.34177629377E+02  0.10251857470E+03  0.00000000000E+00 0.  1.
<mgrwt>
<rscale>  0 0.13986402E+04</rscale>
<asrwt>0</asrwt>
<pdfrwt beam="1">  1        2 0.65036613E-01 0.13986402E+04</pdfrwt>
<pdfrwt beam="2">  1       -2 0.17797843E+00 0.13986402E+04</pdfrwt>
<totfact> 0.13599652E+01</totfact>
</mgrwt>
</event>
<event>
12    1  0.1549527E-007  0.1621150E+04  0.7818608E-02  0.8807659E-01
         -1   -1    0    0    0  501 -0.00000000000E+00  0.00000000000E+00  0.28217809879E+03  0.28217809879E+03  0.00000000000E+00 0.  1.
          1   -1    0    0  501    0  0.00000000000E+00 -0.00000000000E+00 -0.23284306107E+04  0.23284306107E+04  0.00000000000E+00 0. -1.
         23    2    1    2    0    0 -0.47661831101E+02 -0.47041556045E+03 -0.25024635391E+03  0.54257053488E+03  0.90537826442E+02 0.  0.
        254    2    1    2    0    0  0.47661831101E+02  0.47041556045E+03 -0.17960061579E+04  0.20680381746E+04  0.90971496769E+03 0.  0.
        -24    2    4    4    0    0  0.34711336873E+03  0.14451124066E+03 -0.25185595817E+03  0.45970006831E+03  0.80756050584E+02 0.  0.
         24    2    4    4    0    0 -0.29945153763E+03  0.32590431979E+03 -0.15441501998E+04  0.16083381063E+04  0.80416264219E+02 0.  0.
         13    1    3    3    0    0 -0.51805886892E+00 -0.87970753498E+02 -0.10159361171E+02  0.88556956109E+02  0.00000000000E+00 0.  1.
        -13    1    3    3    0    0 -0.47143772232E+02 -0.38244480695E+03 -0.24008699274E+03  0.45401357877E+03  0.00000000000E+00 0. -1.
          4    1    6    6  502    0 -0.14246877939E+03  0.20986695973E+03 -0.92438170858E+03  0.95855257396E+03  0.00000000000E+00 0. -1.
          1    1    5    5  503    0  0.17835025847E+03  0.34089812240E+02 -0.10042790221E+03  0.20750106876E+03  0.00000000000E+00 0. -1.
         -2    1    5    5    0  503  0.16876311026E+03  0.11042142842E+03 -0.15142805597E+03  0.25219899955E+03  0.00000000000E+00 0.  1.
         -3    1    6    6    0  502 -0.15698275825E+03  0.11603736006E+03 -0.61976849119E+03  0.64978553230E+03  0.00000000000E+00 0.  1.
<mgrwt>
<rscale>  0 0.16211504E+04</rscale>
<asrwt>0</asrwt>
<pdfrwt beam="1">  1        1 0.35822010E+00 0.16211504E+04</pdfrwt>
<pdfrwt beam="2">  1       -1 0.43412014E-01 0.16211504E+04</pdfrwt>
<totfact> 0.89369483E+00</totfact>
</mgrwt>
</event>
<event>
12    1  0.1549527E-007  0.1188457E+04  0.7818608E-02  0.9123020E-01
         -2   -1    0    0    0  501 -0.00000000000E+00  0.00000000000E+00  0.54672143444E+03  0.54672143444E+03  0.00000000000E+00 0.  1.
          2   -1    0    0  501    0  0.00000000000E+00 -0.00000000000E+00 -0.64586370675E+03  0.64586370675E+03  0.00000000000E+00 0. -1.
         23    2    1    2    0    0  0.13801139475E+03  0.13068123443E+03 -0.17717938025E+03  0.27528389608E+03  0.90906328402E+02 0.  0.
        254    2    1    2    0    0 -0.13801139475E+03 -0.13068123443E+03  0.78037107938E+02  0.91730124511E+03  0.89399499661E+03 0.  0.
        -24    2    4    4    0    0  0.79565470262E+02 -0.45508133222E+03  0.18541262370E+03  0.50446009731E+03  0.81685162419E+02 0.  0.
         24    2    4    4    0    0 -0.21757686501E+03  0.32440009779E+03 -0.10737551576E+03  0.41284114780E+03  0.79581381645E+02 0.  0.
         13    1    3    3    0    0  0.61147582529E+02  0.64792295376E+02 -0.25046250141E+02  0.92543951912E+02  0.00000000000E+00 0.  1.
        -13    1    3    3    0    0  0.76863812216E+02  0.65888939051E+02 -0.15213313011E+03  0.18273994417E+03  0.00000000000E+00 0. -1.
          4    1    6    6  502    0 -0.40507268843E+02  0.11103531518E+03 -0.56257990018E+02  0.13089935633E+03  0.00000000000E+00 0. -1.
          3    1    5    5  503    0  0.24191999474E+02 -0.34585527671E+02  0.33721049890E+02  0.54023335407E+02  0.00000000000E+00 0. -1.
         -4    1    5    5    0  503  0.55373470788E+02 -0.42049580454E+03  0.15169157381E+03  0.45043676190E+03  0.00000000000E+00 0.  1.
         -1    1    6    6    0  502 -0.17706959616E+03  0.21336478261E+03 -0.51117525743E+02  0.28194179148E+03  0.00000000000E+00 0.  1.
<mgrwt>
<rscale>  0 0.11884570E+04</rscale>
<asrwt>0</asrwt>
<pdfrwt beam="1">  1        2 0.99363648E-01 0.11884570E+04</pdfrwt>
<pdfrwt beam="2">  1       -2 0.84110990E-01 0.11884570E+04</pdfrwt>
<totfact> 0.55256050E+01</totfact>
</mgrwt>
</event>
<event>
12    1  0.1549527E-007  0.1850997E+04  0.7818608E-02  0.8679640E-01
         -1   -1    0    0    0  501 -0.00000000000E+00  0.00000000000E+00  0.53553134174E+03  0.53553134174E+03  0.00000000000E+00 0.  1.
          1   -1    0    0  501    0  0.00000000000E+00 -0.00000000000E+00 -0.15994346932E+04  0.15994346932E+04  0.00000000000E+00 0. -1.
         23    2    1    2    0    0 -0.83096528124E+02  0.69047166108E+03 -0.53143267756E+03  0.87969550475E+03  0.88245920834E+02 0.  0.
        254    2    1    2    0    0  0.83096528124E+02 -0.69047166108E+03 -0.53247067387E+03  0.12552705302E+04  0.89917903537E+03 0.  0.
        -24    2    4    4    0    0 -0.38242000407E+03 -0.48139486481E+03 -0.27257201755E+03  0.67722539638E+03  0.79703559344E+02 0.  0.
         24    2    4    4    0    0  0.46551653220E+03 -0.20907679628E+03 -0.25989865633E+03  0.57804513380E+03  0.78550090139E+02 0.  0.
         13    1    3    3    0    0 -0.27900419514E+02  0.18989885393E+03 -0.19770018085E+03  0.27554558541E+03  0.00000000000E+00 0. -1.
        -13    1    3    3    0    0 -0.55196108609E+02  0.50057280716E+03 -0.33373249672E+03  0.60414991934E+03  0.00000000000E+00 0.  1.
          4    1    6    6  502    0  0.14299656231E+03 -0.34458066830E+02 -0.10051049032E+03  0.17815087389E+03  0.00000000000E+00 0. -1.
          3    1    5    5  503    0 -0.26002859649E+02 -0.18336803392E+02 -0.32520935246E+02  0.45497233958E+02  0.00000000000E+00 0. -1.
         -4    1    5    5    0  503 -0.35641714442E+03 -0.46305806141E+03 -0.24005108230E+03  0.63172816242E+03  0.00000000000E+00 0.  1.
         -3    1    6    6    0  502  0.32251996988E+03 -0.17461872945E+03 -0.15938816600E+03  0.39989425991E+03  0.00000000000E+00 0.  1.
<mgrwt>
<rscale>  0 0.18509969E+04</rscale>
<asrwt>0</asrwt>
<pdfrwt beam="1">  1        1 0.24606687E+00 0.18509969E+04</pdfrwt>
<pdfrwt beam="2">  1       -1 0.82389438E-01 0.18509969E+04</pdfrwt>
<totfact> 0.76845616E+00</totfact>
</mgrwt>
</event>
<event>
12    1  0.1549527E-007  0.4992862E+04  0.7818608E-02  0.7829609E-01
          2   -1    0    0  501    0  0.00000000000E+00  0.00000000000E+00  0.33108852677E+04  0.33108852677E+04  0.00000000000E+00 0. -1.
         -2   -1    0    0    0  501 -0.00000000000E+00 -0.00000000000E+00 -0.18823269457E+04  0.18823269457E+04  0.00000000000E+00 0.  1.
         23    2    1    2    0    0  0.19918361294E+04 -0.11879349831E+04  0.13892432061E+04  0.27048087819E+04  0.85983547073E+02 0.  0.
        254    2    1    2    0    0 -0.19918361294E+04  0.11879349831E+04  0.39315115824E+02  0.24884034314E+04  0.90111334949E+03 0.  0.
        -24    2    4    4    0    0 -0.11520593169E+04  0.11705468041E+04  0.15322122165E+02  0.16443125656E+04  0.78157251573E+02 0.  0.
         24    2    4    4    0    0 -0.83977681257E+03  0.17388179047E+02  0.23992993659E+02  0.84409086581E+03  0.79914218324E+02 0.  0.
         13    1    3    3    0    0  0.13009999464E+04 -0.82096067415E+03  0.90638771031E+03  0.17855296050E+04  0.00000000000E+00 0. -1.
        -13    1    3    3    0    0  0.69083618302E+03 -0.36697430896E+03  0.48285549582E+03  0.91927917689E+03  0.00000000000E+00 0.  1.
          2    1    6    6  502    0 -0.72329683369E+03  0.42677335847E+02  0.21128118202E+02  0.72486278839E+03  0.00000000000E+00 0. -1.
          1    1    5    5  503    0 -0.10674439401E+04  0.10724545120E+04 -0.52156468940E+01  0.15131498434E+04  0.00000000000E+00 0. -1.
         -2    1    5    5    0  503 -0.84615376738E+02  0.98092292079E+02  0.20537769059E+02  0.13116272223E+03  0.00000000000E+00 0.  1.
         -1    1    6    6    0  502 -0.11647997888E+03 -0.25289156801E+02  0.28648754575E+01  0.11922807741E+03  0.00000000000E+00 0.  1.
<mgrwt>
<rscale>  0 0.49928623E+04</rscale>
<asrwt>0</asrwt>
<pdfrwt beam="1">  1        2 0.50936696E+00 0.49928623E+04</pdfrwt>
<pdfrwt beam="2">  1       -2 0.28958876E+00 0.49928623E+04</pdfrwt>
<totfact> 0.29325996E-02</totfact>
</mgrwt>
</event>
<event>
12    1  0.1549527E-007  0.3002585E+04  0.7818608E-02  0.8242993E-01
          2   -1    0    0  501    0  0.00000000000E+00  0.00000000000E+00  0.98358200213E+03  0.98358200213E+03  0.00000000000E+00 0. -1.
         -2   -1    0    0    0  501 -0.00000000000E+00 -0.00000000000E+00 -0.22915009702E+04  0.22915009702E+04  0.00000000000E+00 0.  1.
         23    2    1    2    0    0  0.73980704757E+03 -0.29399141447E+03 -0.18025814731E+04  0.19727395433E+04  0.93037192400E+02 0.  0.
        254    2    1    2    0    0 -0.73980704757E+03  0.29399141447E+03  0.49466250504E+03  0.13023434290E+04  0.90424664432E+03 0.  0.
        -24    2    4    4    0    0 -0.19746342147E+03  0.42658824504E+03 -0.94950356820E+02  0.48640858048E+03  0.81292086217E+02 0.  0.
         24    2    4    4    0    0 -0.54234362610E+03 -0.13259683057E+03  0.58961286186E+03  0.81593484853E+03  0.79923850795E+02 0.  0.
         13    1    3    3    0    0  0.22293803559E+03 -0.89432397308E+02 -0.65394344883E+03  0.69666459338E+03  0.00000000000E+00 0. -1.
        -13    1    3    3    0    0  0.51686901198E+03 -0.20455901716E+03 -0.11486380243E+04  0.12760749499E+04  0.00000000000E+00 0.  1.
          2    1    6    6  502    0 -0.62333373883E+02 -0.21535983405E+01  0.10081050037E+03  0.11854469398E+03  0.00000000000E+00 0. -1.
          1    1    5    5  503    0 -0.17678257255E+03  0.38138328666E+03 -0.10991163465E+03  0.43449494443E+03  0.00000000000E+00 0. -1.
         -2    1    5    5    0  503 -0.20680848920E+02  0.45204958377E+02  0.14961277830E+02  0.51913636053E+02  0.00000000000E+00 0.  1.
         -1    1    6    6    0  502 -0.48001025222E+03 -0.13044323222E+03  0.48880236149E+03  0.69739015455E+03  0.00000000000E+00 0.  1.
<mgrwt>
<rscale>  0 0.30025850E+04</rscale>
<asrwt>0</asrwt>
<pdfrwt beam="1">  1        2 0.15132031E+00 0.30025850E+04</pdfrwt>
<pdfrwt beam="2">  1       -2 0.35253861E+00 0.30025850E+04</pdfrwt>
<totfact> 0.33113876E-01</totfact>
</mgrwt>
</event>
<event>
12    1  0.1549527E-007  0.2530269E+04  0.7818608E-02  0.8392281E-01
         -1   -1    0    0    0  501 -0.00000000000E+00  0.00000000000E+00  0.65973223699E+03  0.65973223699E+03  0.00000000000E+00 0.  1.
          1   -1    0    0  501    0  0.00000000000E+00 -0.00000000000E+00 -0.24260836326E+04  0.24260836326E+04  0.00000000000E+00 0. -1.
         23    2    1    2    0    0  0.86262953244E+03 -0.68438112504E+03 -0.69859179485E+03  0.13071162632E+04  0.89527622602E+02 0.  0.
        254    2    1    2    0    0 -0.86262953244E+03  0.68438112504E+03 -0.10677596007E+04  0.17786996063E+04  0.90064115501E+03 0.  0.
        -24    2    4    4    0    0 -0.19995911023E+03 -0.21391195445E+03 -0.21134200283E+03  0.36987426790E+03  0.79997261686E+02 0.  0.
         24    2    4    4    0    0 -0.66267042221E+03  0.89829307949E+03 -0.85641759790E+03  0.14088253384E+04  0.72630483239E+02 0.  0.
         13    1    3    3    0    0  0.13640824669E+03 -0.76700771045E+02 -0.77115754305E+02  0.17446219535E+03  0.00000000000E+00 0. -1.
        -13    1    3    3    0    0  0.72622128576E+03 -0.60768035399E+03 -0.62147604054E+03  0.11326540679E+04  0.00000000000E+00 0.  1.
          2    1    6    6  502    0 -0.45773380669E+03  0.57072693894E+03 -0.58281653249E+03  0.93537403597E+03  0.00000000000E+00 0. -1.
          1    1    5    5  503    0 -0.14186296041E+03 -0.19234807582E+03 -0.14725037359E+03  0.28072327002E+03  0.00000000000E+00 0. -1.
         -2    1    5    5    0  503 -0.58096149818E+02 -0.21563878632E+02 -0.64091629244E+02  0.89150997888E+02  0.00000000000E+00 0.  1.
         -1    1    6    6    0  502 -0.20493661552E+03  0.32756614055E+03 -0.27360106541E+03  0.47345130247E+03  0.00000000000E+00 0.  1.
<mgrwt>
<rscale>  0 0.25302692E+04</rscale>
<asrwt>0</asrwt>
<pdfrwt beam="1">  1        1 0.37324363E+00 0.25302692E+04</pdfrwt>
<pdfrwt beam="2">  1       -1 0.10149727E+00 0.25302692E+04</pdfrwt>
<totfact> 0.12435580E+00</totfact>
</mgrwt>
</event>
<event>
12    1  0.1549527E-007  0.1594577E+04  0.7818608E-02  0.8823886E-01
         -2   -1    0    0    0  501 -0.00000000000E+00  0.00000000000E+00  0.32374821808E+03  0.32374821808E+03  0.00000000000E+00 0. -1.
          2   -1    0    0  501    0  0.00000000000E+00 -0.00000000000E+00 -0.19634679904E+04  0.19634679904E+04  0.00000000000E+00 0.  1.
         23    2    1    2    0    0  0.30814028299E+02 -0.51501754161E+03 -0.80654221917E+03  0.96181485777E+03  0.91569082274E+02 0.  0.
        254    2    1    2    0    0 -0.30814028299E+02  0.51501754161E+03 -0.83317755315E+03  0.13254013507E+04  0.89236278096E+03 0.  0.
        -24    2    4    4    0    0  0.64552963463E+01  0.70428006050E+03 -0.33259612394E+03  0.78299832435E+03  0.80088200138E+02 0.  0.
         24    2    4    4    0    0 -0.37269324645E+02 -0.18926251889E+03 -0.50058142921E+03  0.54240302635E+03  0.80062301396E+02 0.  0.
         11    1    3    3    0    0 -0.66698252811E+01 -0.39589577619E+03 -0.65582304176E+03  0.76608211980E+03  0.00000000000E+00 0.  1.
        -11    1    3    3    0    0  0.37483853580E+02 -0.11912176543E+03 -0.15071917741E+03  0.19573273798E+03  0.00000000000E+00 0. -1.
          2    1    6    6  502    0  0.90983710764E+01 -0.11709658576E+02 -0.82177023244E+01  0.16953674873E+02  0.00000000000E+00 0. -1.
          3    1    5    5  503    0  0.21237642956E+02  0.57009712724E+02 -0.37620957466E+02  0.71529583138E+02  0.00000000000E+00 0. -1.
         -4    1    5    5    0  503 -0.14782346610E+02  0.64727034778E+03 -0.29497516648E+03  0.71146874121E+03  0.00000000000E+00 0.  1.
         -1    1    6    6    0  502 -0.46367695722E+02 -0.17755286031E+03 -0.49236372689E+03  0.52544935148E+03  0.00000000000E+00 0.  1.
<mgrwt>
<rscale>  0 0.15945774E+04</rscale>
<asrwt>0</asrwt>
<pdfrwt beam="1">  1        2 0.30207200E+00 0.15945774E+04</pdfrwt>
<pdfrwt beam="2">  1       -2 0.49807419E-01 0.15945774E+04</pdfrwt>
<totfact> 0.25622295E+01</totfact>
</mgrwt>
</event>
<event>
12    1  0.1549527E-007  0.2258689E+04  0.7818608E-02  0.8494390E-01
          1   -1    0    0  501    0  0.00000000000E+00  0.00000000000E+00  0.22509047799E+04  0.22509047799E+04  0.00000000000E+00 0. -1.
         -1   -1    0    0    0  501 -0.00000000000E+00 -0.00000000000E+00 -0.56662527547E+03  0.56662527547E+03  0.00000000000E+00 0.  1.
         23    2    1    2    0    0 -0.10558400065E+03 -0.79240580127E+03  0.13368404695E+04  0.15602651315E+04  0.90718822064E+02 0.  0.
        254    2    1    2    0    0  0.10558400065E+03  0.79240580127E+03  0.34743903487E+03  0.12572649238E+04  0.90606085367E+03 0.  0.
        -24    2    4    4    0    0  0.12789297289E+03  0.41204460703E+01  0.43451343553E+03  0.45967962750E+03  0.78293318298E+02 0.  0.
         24    2    4    4    0    0 -0.22308972239E+02  0.78828535520E+03 -0.87074400664E+02  0.79758529628E+03  0.81663101442E+02 0.  0.
         13    1    3    3    0    0 -0.11141669072E+03 -0.65311567023E+03  0.11490573699E+04  0.13263885543E+04  0.00000000000E+00 0. -1.
        -13    1    3    3    0    0  0.58326900634E+01 -0.13929013104E+03  0.18778309967E+03  0.23387657728E+03  0.00000000000E+00 0.  1.
          2    1    6    6  502    0 -0.21388303737E+02  0.53461460659E+02 -0.13052437297E+02  0.59041963314E+02  0.00000000000E+00 0. -1.
          3    1    5    5  503    0  0.26780863261E+02 -0.31378039843E+02  0.92779037939E+02  0.10153691891E+03  0.00000000000E+00 0. -1.
         -4    1    5    5    0  503  0.10111210963E+03  0.35498485913E+02  0.34173439759E+03  0.35814270859E+03  0.00000000000E+00 0.  1.
         -1    1    6    6    0  502 -0.92066850187E+00  0.73482389454E+03 -0.74021963366E+02  0.73854333297E+03  0.00000000000E+00 0.  1.
<mgrwt>
<rscale>  0 0.22586895E+04</rscale>
<asrwt>0</asrwt>
<pdfrwt beam="1">  1        1 0.34629304E+00 0.22586895E+04</pdfrwt>
<pdfrwt beam="2">  1       -1 0.87173120E-01 0.22586895E+04</pdfrwt>
<totfact> 0.23632193E+00</totfact>
</mgrwt>
</event>
<event>
12    1  0.1549527E-007  0.2075785E+04  0.7818608E-02  0.8571986E-01
          1   -1    0    0  501    0  0.00000000000E+00  0.00000000000E+00  0.62176037722E+03  0.62176037722E+03  0.00000000000E+00 0. -1.
         -1   -1    0    0    0  501 -0.00000000000E+00 -0.00000000000E+00 -0.17325342052E+04  0.17325342052E+04  0.00000000000E+00 0.  1.
         23    2    1    2    0    0 -0.26495745023E+03  0.60517642416E+03 -0.10612775497E+04  0.12535718966E+04  0.93228256098E+02 0.  0.
        254    2    1    2    0    0  0.26495745023E+03 -0.60517642416E+03 -0.49496278244E+02  0.11007226857E+04  0.87903332961E+03 0.  0.
        -24    2    4    4    0    0 -0.25417960706E+03 -0.29989161909E+03  0.19483816617E+03  0.44582997231E+03  0.79121409055E+02 0.  0.
         24    2    4    4    0    0  0.51913705729E+03 -0.30528480508E+03 -0.24433444441E+03  0.65489271343E+03  0.80517382746E+02 0.  0.
         13    1    3    3    0    0 -0.33342099421E+02  0.23323225349E+02 -0.57106856041E+02  0.70120335434E+02  0.00000000000E+00 0. -1.
        -13    1    3    3    0    0 -0.23161535081E+03  0.58185319881E+03 -0.10041706937E+04  0.11834515612E+04  0.00000000000E+00 0.  1.
          2    1    6    6  502    0  0.26625535249E+03 -0.12331957440E+03 -0.88100901320E+02  0.30636807760E+03  0.00000000000E+00 0. -1.
          3    1    5    5  503    0 -0.16284338760E+03 -0.24548102388E+03  0.13865154289E+03  0.32558125302E+03  0.00000000000E+00 0. -1.
         -4    1    5    5    0  503 -0.91336219462E+02 -0.54410595204E+02  0.56186623281E+02  0.12024871929E+03  0.00000000000E+00 0.  1.
         -1    1    6    6    0  502  0.25288170480E+03 -0.18196523067E+03 -0.15623354309E+03  0.34852463583E+03  0.00000000000E+00 0.  1.
<mgrwt>
<rscale>  0 0.20757853E+04</rscale>
<asrwt>0</asrwt>
<pdfrwt beam="1">  1        1 0.95655444E-01 0.20757853E+04</pdfrwt>
<pdfrwt beam="2">  1       -1 0.26654372E+00 0.20757853E+04</pdfrwt>
<totfact> 0.16306917E+00</totfact>
</mgrwt>
</event>
<event>
12    1  0.1549527E-007  0.2088369E+04  0.7818608E-02  0.8566384E-01
         -2   -1    0    0    0  501 -0.00000000000E+00  0.00000000000E+00  0.38896817198E+03  0.38896817198E+03  0.00000000000E+00 0.  1.
          2   -1    0    0  501    0  0.00000000000E+00 -0.00000000000E+00 -0.28031115920E+04  0.28031115920E+04  0.00000000000E+00 0. -1.
         23    2    1    2    0    0  0.82090957894E+03  0.26763918103E+03 -0.97734599299E+03  0.13073819844E+04  0.92299485944E+02 0.  0.
        254    2    1    2    0    0 -0.82090957894E+03 -0.26763918103E+03 -0.14367974270E+04  0.18846977795E+04  0.86149614391E+03 0.  0.
        -24    2    4    4    0    0 -0.98774282756E+03 -0.21295582024E+03 -0.12982418895E+04  0.16470756941E+04  0.80251252459E+02 0.  0.
         24    2    4    4    0    0  0.16683324862E+03 -0.54683360793E+02 -0.13855553748E+03  0.23762208548E+03  0.80268398183E+02 0.  0.
         13    1    3    3    0    0  0.52127353877E+03  0.19783549630E+03 -0.68201858048E+03  0.88091675540E+03  0.00000000000E+00 0.  1.
        -13    1    3    3    0    0  0.29963604017E+03  0.69803684735E+02 -0.29532741251E+03  0.42646522900E+03  0.00000000000E+00 0. -1.
          2    1    6    6  502    0 -0.10050957289E+01 -0.21826962138E+02 -0.18968915572E+02  0.28935207820E+02  0.00000000000E+00 0. -1.
          3    1    5    5  503    0 -0.16554281351E+03 -0.61567915242E+02 -0.19977791124E+03  0.26665754276E+03  0.00000000000E+00 0. -1.
         -4    1    5    5    0  503 -0.82220001405E+03 -0.15138790500E+03 -0.10984639783E+04  0.13804181513E+04  0.00000000000E+00 0.  1.
         -1    1    6    6    0  502  0.16783834435E+03 -0.32856398655E+02 -0.11958662191E+03  0.20868687766E+03  0.00000000000E+00 0.  1.
<mgrwt>
<rscale>  0 0.20883689E+04</rscale>
<asrwt>0</asrwt>
<pdfrwt beam="1">  1        2 0.43124796E+00 0.20883689E+04</pdfrwt>
<pdfrwt beam="2">  1       -2 0.59841255E-01 0.20883689E+04</pdfrwt>
<totfact> 0.55375822E+00</totfact>
</mgrwt>
</event>
<event>
12    1  0.1549527E-007  0.2397783E+04  0.7818608E-02  0.8440334E-01
         -1   -1    0    0    0  501 -0.00000000000E+00  0.00000000000E+00  0.75448528704E+03  0.75448528704E+03  0.00000000000E+00 0.  1.
          1   -1    0    0  501    0  0.00000000000E+00 -0.00000000000E+00 -0.19050621589E+04  0.19050621589E+04  0.00000000000E+00 0. -1.
         23    2    1    2    0    0  0.39025901587E+03  0.47886252774E+03  0.41783533487E+03  0.75144705045E+03  0.92059125675E+02 0.  0.
        254    2    1    2    0    0 -0.39025901587E+03 -0.47886252774E+03 -0.15684122067E+04  0.19081003955E+04  0.89404633498E+03 0.  0.
        -24    2    4    4    0    0 -0.60431361668E+03 -0.49825002764E+03 -0.14502532037E+04  0.16501719822E+04  0.79907311977E+02 0.  0.
         24    2    4    4    0    0  0.21405460081E+03  0.19387499898E+02 -0.11815900303E+03  0.25792841332E+03  0.79813965724E+02 0.  0.
         11    1    3    3    0    0  0.16356369563E+03  0.26588797551E+03  0.23402846701E+03  0.39015230541E+03  0.00000000000E+00 0. -1.
        -11    1    3    3    0    0  0.22669532024E+03  0.21297455223E+03  0.18380686787E+03  0.36129474504E+03  0.00000000000E+00 0.  1.
          4    1    6    6  502    0  0.17501079472E+03  0.39327806852E+01 -0.12537583372E+03  0.21532149152E+03  0.00000000000E+00 0. -1.
          1    1    5    5  503    0 -0.47352552653E+03 -0.38663477232E+03 -0.11969553195E+04  0.13440293554E+04  0.00000000000E+00 0. -1.
         -2    1    5    5    0  503 -0.13078809014E+03 -0.11161525532E+03 -0.25329788421E+03  0.30614262671E+03  0.00000000000E+00 0.  1.
         -3    1    6    6    0  502  0.39043806091E+02  0.15454719213E+02  0.72168306933E+01  0.42606921800E+02  0.00000000000E+00 0.  1.
<mgrwt>
<rscale>  0 0.23977835E+04</rscale>
<asrwt>0</asrwt>
<pdfrwt beam="1">  1        1 0.29308648E+00 0.23977835E+04</pdfrwt>
<pdfrwt beam="2">  1       -1 0.11607466E+00 0.23977835E+04</pdfrwt>
<totfact> 0.20792114E+00</totfact>
</mgrwt>
</event>
<event>
12    1  0.1954850E-007  0.2832731E+04  0.7818608E-02  0.8293178E-01
         -1   -1    0    0    0  501 -0.00000000000E+00  0.00000000000E+00  0.10010575312E+04  0.10010575312E+04  0.00000000000E+00 0.  1.
          1   -1    0    0  501    0  0.00000000000E+00 -0.00000000000E+00 -0.20039715353E+04  0.20039715353E+04  0.00000000000E+00 0. -1.
         23    2    1    2    0    0  0.36919894643E+03 -0.11251398916E+03 -0.17381615763E+04  0.17827484486E+04  0.89549461041E+02 0.  0.
        254    2    1    2    0    0 -0.36919894643E+03  0.11251398916E+03  0.73524757217E+03  0.12222806180E+04  0.89689110649E+03 0.  0.
        -24    2    4    4    0    0 -0.40510003055E+03  0.45266191871E+03  0.37070957602E+03  0.71600472266E+03  0.78919742317E+02 0.  0.
         24    2    4    4    0    0  0.35901084112E+02 -0.34014792955E+03  0.36453799615E+03  0.50627589532E+03  0.80236087438E+02 0.  0.
         13    1    3    3    0    0  0.15947048426E+02 -0.16130417464E+02 -0.21496359937E+03  0.21615699798E+03  0.00000000000E+00 0.  1.
        -13    1    3    3    0    0  0.35325189801E+03 -0.96383571697E+02 -0.15231979769E+04  0.15665914506E+04  0.00000000000E+00 0. -1.
          4    1    6    6  502    0  0.79779237659E+01 -0.31010137336E+03  0.31800401806E+03  0.44424437479E+03  0.00000000000E+00 0. -1.
          3    1    5    5  503    0 -0.32652837592E+03  0.37197331354E+03  0.26450082778E+03  0.56120015517E+03  0.00000000000E+00 0. -1.
         -4    1    5    5    0  503 -0.78571654624E+02  0.80688605166E+02  0.10620874823E+03  0.15480456749E+03  0.00000000000E+00 0.  1.
         -3    1    6    6    0  502  0.27923160346E+02 -0.30046556184E+02  0.46533978092E+02  0.62031520530E+02  0.00000000000E+00 0.  1.
<mgrwt>
<rscale>  0 0.28327307E+04</rscale>
<asrwt>0</asrwt>
<pdfrwt beam="1">  1        1 0.30830331E+00 0.28327307E+04</pdfrwt>
<pdfrwt beam="2">  1       -1 0.15400885E+00 0.28327307E+04</pdfrwt>
<totfact> 0.83030427E-01</totfact>
</mgrwt>
</event>
<event>
12    1  0.1549527E-007  0.2112105E+04  0.7818608E-02  0.8555930E-01
          2   -1    0    0  501    0  0.00000000000E+00  0.00000000000E+00  0.80694089825E+03  0.80694089825E+03  0.00000000000E+00 0. -1.
         -2   -1    0    0    0  501 -0.00000000000E+00 -0.00000000000E+00 -0.13820677988E+04  0.13820677988E+04  0.00000000000E+00 0.  1.
         23    2    1    2    0    0 -0.62952117098E+03  0.45445805056E+03 -0.62424523941E+03  0.10002940102E+04  0.89871928616E+02 0.  0.
        254    2    1    2    0    0  0.62952117098E+03 -0.45445805056E+03  0.49118338874E+02  0.11887146868E+04  0.89877748690E+03 0.  0.
        -24    2    4    4    0    0  0.64336834557E+03 -0.63634692585E+03 -0.13408032961E+03  0.91813219939E+03  0.78287691567E+02 0.  0.
         24    2    4    4    0    0 -0.13847174584E+02  0.18188887529E+03  0.18319866849E+03  0.27058248741E+03  0.79861274452E+02 0.  0.
         13    1    3    3    0    0 -0.47701350928E+03  0.37995004582E+03 -0.45764312406E+03  0.76245731313E+03  0.00000000000E+00 0.  1.
        -13    1    3    3    0    0 -0.15250766170E+03  0.74508004741E+02 -0.16660211535E+03  0.23783669710E+03  0.00000000000E+00 0. -1.
          4    1    6    6  502    0  0.24702377042E+02  0.17502862797E+02  0.28865971937E+02  0.41830634390E+02  0.00000000000E+00 0. -1.
          1    1    5    5  503    0  0.28104755785E+03 -0.28064676513E+03 -0.19682999292E+02  0.39766538322E+03  0.00000000000E+00 0. -1.
         -2    1    5    5    0  503  0.36232078772E+03 -0.35570016072E+03 -0.11439733032E+03  0.52046681617E+03  0.00000000000E+00 0.  1.
         -3    1    6    6    0  502 -0.38549551626E+02  0.16438601249E+03  0.15433269655E+03  0.22875185302E+03  0.00000000000E+00 0.  1.
<mgrwt>
<rscale>  0 0.21121051E+04</rscale>
<asrwt>0</asrwt>
<pdfrwt beam="1">  1        2 0.12414475E+00 0.21121051E+04</pdfrwt>
<pdfrwt beam="2">  1       -2 0.21262581E+00 0.21121051E+04</pdfrwt>
<totfact> 0.34512414E+00</totfact>
</mgrwt>
</event>
<event>
12    1  0.1549527E-007  0.2310461E+04  0.7818608E-02  0.8473808E-01
         -2   -1    0    0    0  501 -0.00000000000E+00  0.00000000000E+00  0.70188455856E+03  0.70188455856E+03  0.00000000000E+00 0.  1.
          2   -1    0    0  501    0  0.00000000000E+00 -0.00000000000E+00 -0.19013924241E+04  0.19013924241E+04  0.00000000000E+00 0. -1.
         23    2    1    2    0    0 -0.80437466734E+02  0.91309176321E+03 -0.88976901138E+03  0.12807259772E+04  0.91451522800E+02 0.  0.
        254    2    1    2    0    0  0.80437466734E+02 -0.91309176321E+03 -0.30973885419E+03  0.13225510055E+04  0.90166304691E+03 0.  0.
        -24    2    4    4    0    0  0.31518428830E+03 -0.59097369840E+03 -0.53207855322E+03  0.85912249042E+03  0.79955105830E+02 0.  0.
         24    2    4    4    0    0 -0.23474682157E+03 -0.32211806481E+03  0.22233969904E+03  0.46342851505E+03  0.80404781447E+02 0.  0.
         13    1    3    3    0    0 -0.54383512718E+02  0.22121439776E+03 -0.24665111249E+03  0.33575310501E+03  0.00000000000E+00 0.  1.
        -13    1    3    3    0    0 -0.26053954015E+02  0.69187736545E+03 -0.64311789889E+03  0.94497287221E+03  0.00000000000E+00 0. -1.
          2    1    6    6  502    0 -0.21286983396E+01  0.26354085770E+01 -0.32224272010E+01  0.46755504547E+01  0.00000000000E+00 0. -1.
          3    1    5    5  503    0  0.14434990631E+03 -0.35165298024E+03 -0.31387229666E+03  0.49296301340E+03  0.00000000000E+00 0. -1.
         -4    1    5    5    0  503  0.17083438199E+03 -0.23932071816E+03 -0.21820625656E+03  0.36615947702E+03  0.00000000000E+00 0.  1.
         -1    1    6    6    0  502 -0.23261812323E+03 -0.32475347338E+03  0.22556212624E+03  0.45875296459E+03  0.00000000000E+00 0.  1.
<mgrwt>
<rscale>  0 0.23104614E+04</rscale>
<asrwt>0</asrwt>
<pdfrwt beam="1">  1        2 0.29252191E+00 0.23104614E+04</pdfrwt>
<pdfrwt beam="2">  1       -2 0.10798224E+00 0.23104614E+04</pdfrwt>
<totfact> 0.47179026E+00</totfact>
</mgrwt>
</event>
<event>
12    1  0.1549527E-007  0.2225582E+04  0.7818608E-02  0.8507855E-01
         -2   -1    0    0    0  501 -0.00000000000E+00  0.00000000000E+00  0.68014647056E+03  0.68014647056E+03  0.00000000000E+00 0.  1.
          2   -1    0    0  501    0  0.00000000000E+00 -0.00000000000E+00 -0.18206424283E+04  0.18206424283E+04  0.00000000000E+00 0. -1.
         23    2    1    2    0    0  0.38968214302E+02 -0.73400132733E+03 -0.11380020320E+04  0.13575048777E+04  0.86570190195E+02 0.  0.
        254    2    1    2    0    0 -0.38968214302E+02  0.73400132733E+03 -0.24939256658E+01  0.11432840211E+04  0.87568011455E+03 0.  0.
        -24    2    4    4    0    0 -0.20597727263E+02  0.43866959972E+03 -0.42856076525E+03  0.61884937745E+03  0.80342631116E+02 0.  0.
         24    2    4    4    0    0 -0.18370487039E+02  0.29533172761E+03  0.42606683958E+03  0.52443464367E+03  0.77074247021E+02 0.  0.
         13    1    3    3    0    0  0.64850494133E+02 -0.57274216832E+03 -0.86811591233E+03  0.10420481828E+04  0.00000000000E+00 0. -1.
        -13    1    3    3    0    0 -0.25882279831E+02 -0.16125915901E+03 -0.26988611971E+03  0.31545669495E+03  0.00000000000E+00 0.  1.
          2    1    6    6  502    0 -0.34259195210E+02  0.19008909546E+03  0.32255977798E+03  0.37596857188E+03  0.00000000000E+00 0. -1.
          1    1    5    5  503    0  0.17954103328E+02  0.31669941717E+03 -0.32636791540E+03  0.45512293599E+03  0.00000000000E+00 0. -1.
         -2    1    5    5    0  503 -0.38551830590E+02  0.12197018255E+03 -0.10219284984E+03  0.16372644146E+03  0.00000000000E+00 0.  1.
         -1    1    6    6    0  502  0.15888708171E+02  0.10524263216E+03  0.10350706160E+03  0.14846607179E+03  0.00000000000E+00 0.  1.
<mgrwt>
<rscale>  0 0.22255817E+04</rscale>
<asrwt>0</asrwt>
<pdfrwt beam="1">  1        2 0.28009884E+00 0.22255817E+04</pdfrwt>
<pdfrwt beam="2">  1       -2 0.10463792E+00 0.22255817E+04</pdfrwt>
<totfact> 0.56818509E+00</totfact>
</mgrwt>
</event>
<event>
12    1  0.1549527E-007  0.1629244E+04  0.7818608E-02  0.8802781E-01
          1   -1    0    0  501    0  0.00000000000E+00  0.00000000000E+00  0.23665443534E+04  0.23665443534E+04  0.00000000000E+00 0. -1.
         -1   -1    0    0    0  501 -0.00000000000E+00 -0.00000000000E+00 -0.28041267752E+03  0.28041267752E+03  0.00000000000E+00 0.  1.
         23    2    1    2    0    0  0.14381561412E+03  0.35745423851E+03  0.14005375996E+04  0.14554985201E+04  0.92270854352E+02 0.  0.
        254    2    1    2    0    0 -0.14381561412E+03 -0.35745423851E+03  0.68559407621E+03  0.11914585108E+04  0.89502943083E+03 0.  0.
        -24    2    4    4    0    0  0.86439603007E+02 -0.53598164035E+03  0.13830352020E+03  0.56593786300E+03  0.80060460425E+02 0.  0.
         24    2    4    4    0    0 -0.23025521713E+03  0.17852740184E+03  0.54729055602E+03  0.62552064777E+03  0.82822882446E+02 0.  0.
         11    1    3    3    0    0  0.85261146875E+02  0.30411593585E+03  0.10729235593E+04  0.11184457652E+04  0.00000000000E+00 0. -1.
        -11    1    3    3    0    0  0.58554467243E+02  0.53338302656E+02  0.32761404037E+03  0.33705275494E+03  0.00000000000E+00 0.  1.
          4    1    6    6  502    0 -0.10345533199E+03  0.52227745064E+02  0.14815448656E+03  0.18809703602E+03  0.00000000000E+00 0. -1.
          1    1    5    5  503    0  0.68677297328E+02 -0.23612370681E+03  0.35545184259E+02  0.24846415478E+03  0.00000000000E+00 0. -1.
         -2    1    5    5    0  503  0.17762305678E+02 -0.29985793354E+03  0.10275833594E+03  0.31747370823E+03  0.00000000000E+00 0.  1.
         -3    1    6    6    0  502 -0.12679988513E+03  0.12629965677E+03  0.39913606946E+03  0.43742361175E+03  0.00000000000E+00 0.  1.
<mgrwt>
<rscale>  0 0.16292440E+04</rscale>
<asrwt>0</asrwt>
<pdfrwt beam="1">  1        1 0.36408373E+00 0.16292440E+04</pdfrwt>
<pdfrwt beam="2">  1       -1 0.43140414E-01 0.16292440E+04</pdfrwt>
<totfact> 0.85076887E+00</totfact>
</mgrwt>
</event>
<event>
12    1  0.1549527E-007  0.2349393E+04  0.7818608E-02  0.8458697E-01
         -2   -1    0    0    0  501 -0.00000000000E+00  0.00000000000E+00  0.14646620932E+04  0.14646620932E+04  0.00000000000E+00 0.  1.
          2   -1    0    0  501    0  0.00000000000E+00 -0.00000000000E+00 -0.94213688512E+03  0.94213688512E+03  0.00000000000E+00 0. -1.
         23    2    1    2    0    0 -0.79284413867E+03  0.57108230382E+03  0.22404141357E+02  0.98159429719E+03  0.91041708980E+02 0.  0.
        254    2    1    2    0    0  0.79284413867E+03 -0.57108230382E+03  0.50012106675E+03  0.14252046812E+04  0.90903821472E+03 0.  0.
        -24    2    4    4    0    0  0.17811522365E+03 -0.42823266020E+03 -0.17091539548E+03  0.50077669452E+03  0.80355343347E+02 0.  0.
         24    2    4    4    0    0  0.61472891501E+03 -0.14284964361E+03  0.67103646222E+03  0.92442798663E+03  0.77327286247E+02 0.  0.
         13    1    3    3    0    0 -0.77863399510E+03  0.57178091379E+03  0.27676776248E+02  0.96642139652E+03  0.00000000000E+00 0.  1.
        -13    1    3    3    0    0 -0.14210143570E+02 -0.69860997619E+00 -0.52726348917E+01  0.15172900675E+02  0.00000000000E+00 0. -1.
          4    1    6    6  502    0  0.52218879744E+03 -0.14896491090E+03  0.57777000884E+03  0.79289965819E+03  0.00000000000E+00 0. -1.
          1    1    5    5  503    0  0.83561562882E+02 -0.22108064926E+03 -0.12893751294E+03  0.26922865841E+03  0.00000000000E+00 0. -1.
         -2    1    5    5    0  503  0.94553660772E+02 -0.20715201095E+03 -0.41977882535E+02  0.23154803611E+03  0.00000000000E+00 0.  1.
         -3    1    6    6    0  502  0.92540117573E+02  0.61152672825E+01  0.93266453383E+02  0.13152832844E+03  0.00000000000E+00 0.  1.
<mgrwt>
<rscale>  0 0.23493933E+04</rscale>
<asrwt>0</asrwt>
<pdfrwt beam="1">  1        2 0.14494414E+00 0.23493933E+04</pdfrwt>
<pdfrwt beam="2">  1       -2 0.22533263E+00 0.23493933E+04</pdfrwt>
<totfact> 0.22686735E+00</totfact>
</mgrwt>
</event>
<event>
12    1  0.1549527E-007  0.2446505E+04  0.7818608E-02  0.8422295E-01
          2   -1    0    0  501    0  0.00000000000E+00  0.00000000000E+00  0.15178328780E+04  0.15178328780E+04  0.00000000000E+00 0. -1.
         -2   -1    0    0    0  501 -0.00000000000E+00 -0.00000000000E+00 -0.98584415032E+03  0.98584415032E+03  0.00000000000E+00 0.  1.
         23    2    1    2    0    0 -0.36005079565E+03 -0.38975410930E+03 -0.69768864178E+03  0.88112963885E+03  0.89861885246E+02 0.  0.
        254    2    1    2    0    0  0.36005079565E+03  0.38975410930E+03  0.12296773694E+04  0.16225473894E+04  0.91597421195E+03 0.  0.
        -24    2    4    4    0    0  0.20833992899E+03 -0.25615243913E+03  0.66430286886E+03  0.74715779219E+03  0.89032953220E+02 0.  0.
         24    2    4    4    0    0  0.15171086665E+03  0.64590654844E+03  0.56537450056E+03  0.87538959726E+03  0.80294238489E+02 0.  0.
         13    1    3    3    0    0 -0.33469776160E+03 -0.37891085087E+03 -0.68338705663E+03  0.85006699365E+03  0.00000000000E+00 0.  1.
        -13    1    3    3    0    0 -0.25353034042E+02 -0.10843258435E+02 -0.14301585151E+02  0.31062645194E+02  0.00000000000E+00 0. -1.
          2    1    6    6  502    0  0.14688325410E+03  0.62087777324E+03  0.56089287605E+03  0.84950851558E+03  0.00000000000E+00 0. -1.
          3    1    5    5  503    0  0.16838589105E+03 -0.24758541278E+03  0.60633285933E+03  0.67623359960E+03  0.00000000000E+00 0. -1.
         -4    1    5    5    0  503  0.39954037946E+02 -0.85670263516E+01  0.57970009534E+02  0.70924192587E+02  0.00000000000E+00 0.  1.
         -3    1    6    6    0  502  0.48276125503E+01  0.25028775194E+02  0.44816245115E+01  0.25881081679E+02  0.00000000000E+00 0.  1.
<mgrwt>
<rscale>  0 0.24465050E+04</rscale>
<asrwt>0</asrwt>
<pdfrwt beam="1">  1        2 0.23351275E+00 0.24465050E+04</pdfrwt>
<pdfrwt beam="2">  1       -2 0.15166833E+00 0.24465050E+04</pdfrwt>
<totfact> 0.32330202E+00</totfact>
</mgrwt>
</event>
<event>
12    1  0.1549527E-007  0.2977479E+04  0.7818608E-02  0.8250191E-01
          2   -1    0    0  501    0  0.00000000000E+00  0.00000000000E+00  0.72121605520E+03  0.72121605520E+03  0.00000000000E+00 0. -1.
         -2   -1    0    0    0  501 -0.00000000000E+00 -0.00000000000E+00 -0.30730662870E+04  0.30730662870E+04  0.00000000000E+00 0.  1.
         23    2    1    2    0    0  0.11183399057E+03 -0.90780707064E+02  0.64064943665E+03  0.66326781057E+03  0.93512082854E+02 0.  0.
        254    2    1    2    0    0 -0.11183399057E+03  0.90780707064E+02 -0.29924996684E+04  0.31310145316E+04  0.90964265145E+03 0.  0.
        -24    2    4    4    0    0  0.13404209231E+03  0.26318159401E+03 -0.32731457763E+03  0.44773406560E+03  0.78096906698E+02 0.  0.
         24    2    4    4    0    0 -0.24587608288E+03 -0.17240088694E+03 -0.26651850908E+04  0.26832804660E+04  0.81273470790E+02 0.  0.
         13    1    3    3    0    0  0.19266847094E+02 -0.10779780527E+01  0.14899900737E+02  0.24379919516E+02  0.00000000000E+00 0.  1.
        -13    1    3    3    0    0  0.92567143474E+02 -0.89702729011E+02  0.62574953591E+03  0.63888789106E+03  0.00000000000E+00 0. -1.
          4    1    6    6  502    0 -0.68954150223E+02 -0.33477921210E+02 -0.42752353914E+03  0.43434067569E+03  0.00000000000E+00 0. -1.
          3    1    5    5  503    0  0.17615075863E+02  0.67303406484E+01 -0.45762300941E+02  0.49495217651E+02  0.00000000000E+00 0. -1.
         -4    1    5    5    0  503  0.11642701645E+03  0.25645125336E+03 -0.28155227669E+03  0.39823884795E+03  0.00000000000E+00 0.  1.
         -3    1    6    6    0  502 -0.17692193265E+03 -0.13892296573E+03 -0.22376615517E+04  0.22489397903E+04  0.00000000000E+00 0.  1.
<mgrwt>
<rscale>  0 0.29774786E+04</rscale>
<asrwt>0</asrwt>
<pdfrwt beam="1">  1        2 0.11095632E+00 0.29774786E+04</pdfrwt>
<pdfrwt beam="2">  1       -2 0.47277943E+00 0.29774786E+04</pdfrwt>
<totfact> 0.83012323E-02</totfact>
</mgrwt>
</event>
<event>
12    1  0.1549527E-007  0.1284622E+04  0.7818608E-02  0.9041850E-01
          2   -1    0    0  501    0  0.00000000000E+00  0.00000000000E+00  0.17807207178E+04  0.17807207178E+04  0.00000000000E+00 0.  1.
         -2   -1    0    0    0  501 -0.00000000000E+00 -0.00000000000E+00 -0.23168332435E+03  0.23168332435E+03  0.00000000000E+00 0. -1.
         23    2    1    2    0    0 -0.21779822755E+03  0.39605540115E+02  0.67029499614E+03  0.71185694731E+03  0.91870914117E+02 0.  0.
        254    2    1    2    0    0  0.21779822755E+03 -0.39605540115E+02  0.87874239733E+03  0.13005470948E+04  0.93286112488E+03 0.  0.
        -24    2    4    4    0    0  0.87637116200E+02 -0.47877622759E+03  0.42551002024E+03  0.65121507243E+03  0.78200722469E+02 0.  0.
         24    2    4    4    0    0  0.13016111135E+03  0.43917068748E+03  0.45323237709E+03  0.64933202241E+03  0.79998000226E+02 0.  0.
         13    1    3    3    0    0 -0.19377599930E+03  0.51537783037E+02  0.64320606782E+03  0.67373535359E+03  0.00000000000E+00 0.  1.
        -13    1    3    3    0    0 -0.24022228251E+02 -0.11932242921E+02  0.27088928313E+02  0.38121593729E+02  0.00000000000E+00 0. -1.
          2    1    6    6  502    0 -0.37490970104E+01  0.84566383539E+01  0.27806594927E+02  0.29304900309E+02  0.00000000000E+00 0. -1.
          3    1    5    5  503    0 -0.73431166642E+01 -0.10937120796E+02  0.25580095148E+01  0.13419589649E+02  0.00000000000E+00 0. -1.
         -4    1    5    5    0  503  0.94980232864E+02 -0.46783910679E+03  0.42295201072E+03  0.63779548278E+03  0.00000000000E+00 0.  1.
         -1    1    6    6    0  502  0.13391020836E+03  0.43071404912E+03  0.42542578216E+03  0.62002712210E+03  0.00000000000E+00 0.  1.
<mgrwt>
<rscale>  0 0.12846218E+04</rscale>
<asrwt>0</asrwt>
<pdfrwt beam="1">  1        2 0.27395702E+00 0.12846218E+04</pdfrwt>
<pdfrwt beam="2">  1       -2 0.35643590E-01 0.12846218E+04</pdfrwt>
<totfact> 0.64198610E+01</totfact>
</mgrwt>
</event>
<event>
12    1  0.1549527E-007  0.1394188E+04  0.7818608E-02  0.8958036E-01
          1   -1    0    0  501    0  0.00000000000E+00  0.00000000000E+00  0.22571379272E+03  0.22571379272E+03  0.00000000000E+00 0. -1.
         -1   -1    0    0    0  501 -0.00000000000E+00 -0.00000000000E+00 -0.21529030586E+04  0.21529030586E+04  0.00000000000E+00 0.  1.
         23    2    1    2    0    0 -0.24579401320E+03  0.26888983724E+03 -0.36048161994E+03  0.52119480555E+03  0.94765951267E+02 0.  0.
        254    2    1    2    0    0  0.24579401320E+03 -0.26888983724E+03 -0.15667076460E+04  0.18574220458E+04  0.92883118317E+03 0.  0.
        -24    2    4    4    0    0  0.28045209544E+03 -0.23168914168E+03 -0.16731303856E+04  0.17140332765E+04  0.78813382352E+02 0.  0.
         24    2    4    4    0    0 -0.34658082238E+02 -0.37200695559E+02  0.10642273968E+03  0.14338876934E+03  0.81544253244E+02 0.  0.
         13    1    3    3    0    0 -0.17291289060E+01  0.44326776238E+02 -0.50677698932E+02  0.67350442816E+02  0.00000000000E+00 0.  1.
        -13    1    3    3    0    0 -0.24406488429E+03  0.22456306100E+03 -0.30980392101E+03  0.45384436273E+03  0.00000000000E+00 0. -1.
          2    1    6    6  502    0 -0.37825994968E+02 -0.19501830104E+02  0.79569248958E+01  0.43294802535E+02  0.00000000000E+00 0. -1.
          1    1    5    5  503    0  0.18233697114E+03 -0.13238576028E+03 -0.86123061630E+03  0.89021959932E+03  0.00000000000E+00 0. -1.
         -2    1    5    5    0  503  0.98115124294E+02 -0.99303381406E+02 -0.81189976935E+03  0.82381367714E+03  0.00000000000E+00 0.  1.
         -1    1    6    6    0  502  0.31679127294E+01 -0.17698865455E+02  0.98465814788E+02  0.10009396681E+03  0.00000000000E+00 0.  1.
<mgrwt>
<rscale>  0 0.13941878E+04</rscale>
<asrwt>0</asrwt>
<pdfrwt beam="1">  1        1 0.34725200E-01 0.13941878E+04</pdfrwt>
<pdfrwt beam="2">  1       -1 0.33121584E+00 0.13941878E+04</pdfrwt>
<totfact> 0.25759113E+00</totfact>
</mgrwt>
</event>
<event>
12    1  0.1549527E-007  0.1914626E+04  0.7818608E-02  0.8647610E-01
          1   -1    0    0  501    0  0.00000000000E+00  0.00000000000E+00  0.67118900842E+03  0.67118900842E+03  0.00000000000E+00 0. -1.
         -1   -1    0    0    0  501 -0.00000000000E+00 -0.00000000000E+00 -0.13654106134E+04  0.13654106134E+04  0.00000000000E+00 0.  1.
         23    2    1    2    0    0  0.93435927515E+01  0.15018929575E+03 -0.10452144490E+04  0.10603196018E+04  0.95709384683E+02 0.  0.
        254    2    1    2    0    0 -0.93435927515E+01 -0.15018929575E+03  0.35099284398E+03  0.97628002003E+03  0.89848905041E+03 0.  0.
        -24    2    4    4    0    0 -0.16219090784E+03  0.26594615113E+03  0.41050810536E+03  0.52121851056E+03  0.78221386428E+02 0.  0.
         24    2    4    4    0    0  0.15284731509E+03 -0.41613544688E+03 -0.59515261378E+02  0.45506150947E+03  0.83713196031E+02 0.  0.
         13    1    3    3    0    0  0.20790419233E+02  0.15900407415E+03 -0.88134121006E+03  0.89581073094E+03  0.00000000000E+00 0.  1.
        -13    1    3    3    0    0 -0.11446826482E+02 -0.88147784008E+01 -0.16387323890E+03  0.16450887083E+03  0.00000000000E+00 0. -1.
          2    1    6    6  502    0 -0.39020154364E+00 -0.23789563391E+02  0.13821267260E+02  0.27515868372E+02  0.00000000000E+00 0. -1.
          3    1    5    5  503    0 -0.46736429522E+02  0.72896810964E+02  0.62301144683E+02  0.10667554322E+03  0.00000000000E+00 0. -1.
         -4    1    5    5    0  503 -0.11545447832E+03  0.19304934017E+03  0.34820696068E+03  0.41454296733E+03  0.00000000000E+00 0.  1.
         -1    1    6    6    0  502  0.15323751663E+03 -0.39234588349E+03 -0.73336528638E+02  0.42754564110E+03  0.00000000000E+00 0.  1.
<mgrwt>
<rscale>  0 0.19146264E+04</rscale>
<asrwt>0</asrwt>
<pdfrwt beam="1">  1        1 0.10325985E+00 0.19146264E+04</pdfrwt>
<pdfrwt beam="2">  1       -1 0.21006317E+00 0.19146264E+04</pdfrwt>
<totfact> 0.34836925E+00</totfact>
</mgrwt>
</event>
<event>
12    1  0.1549527E-007  0.3715723E+04  0.7818608E-02  0.8064486E-01
         -1   -1    0    0    0  501 -0.00000000000E+00  0.00000000000E+00  0.96241749385E+03  0.96241749385E+03  0.00000000000E+00 0.  1.
          1   -1    0    0  501    0  0.00000000000E+00 -0.00000000000E+00 -0.35864373856E+04  0.35864373856E+04  0.00000000000E+00 0. -1.
         23    2    1    2    0    0 -0.25713007420E+03  0.84668240423E+03 -0.30799990362E+04  0.32059492094E+04  0.93430734186E+02 0.  0.
        254    2    1    2    0    0  0.25713007420E+03 -0.84668240423E+03  0.45597914443E+03  0.13429056700E+04  0.90138320911E+03 0.  0.
        -24    2    4    4    0    0 -0.32710740194E+03 -0.24566111502E+03  0.99977822450E+02  0.42863877690E+03  0.79918710213E+02 0.  0.
         24    2    4    4    0    0  0.58423747614E+03 -0.60102128921E+03  0.35600132198E+03  0.91426689310E+03  0.81160285580E+02 0.  0.
         13    1    3    3    0    0  0.45840256986E+01  0.16870219174E+02 -0.35763202076E+02  0.39807338636E+02  0.00000000000E+00 0.  1.
        -13    1    3    3    0    0 -0.26171409990E+03  0.82981218505E+03 -0.30442358341E+04  0.31661418708E+04  0.00000000000E+00 0. -1.
          4    1    6    6  502    0  0.12729231757E+03 -0.17342433038E+03  0.11236530629E+03  0.24270412963E+03  0.00000000000E+00 0. -1.
          1    1    5    5  503    0 -0.19179861974E+03 -0.95187543951E+02  0.59961091287E+02  0.22235717107E+03  0.00000000000E+00 0. -1.
         -2    1    5    5    0  503 -0.13530878220E+03 -0.15047357107E+03  0.40016731163E+02  0.20628160583E+03  0.00000000000E+00 0.  1.
         -3    1    6    6    0  502  0.45694515857E+03 -0.42759695883E+03  0.24363601568E+03  0.67156276347E+03  0.00000000000E+00 0.  1.
<mgrwt>
<rscale>  0 0.37157234E+04</rscale>
<asrwt>0</asrwt>
<pdfrwt beam="1">  1        1 0.55175959E+00 0.37157234E+04</pdfrwt>
<pdfrwt beam="2">  1       -1 0.14806423E+00 0.37157234E+04</pdfrwt>
<totfact> 0.61643551E-02</totfact>
</mgrwt>
</event>
<event>
12    1  0.1549527E-007  0.1893087E+04  0.7818608E-02  0.8658305E-01
          1   -1    0    0  501    0  0.00000000000E+00  0.00000000000E+00  0.10250101442E+04  0.10250101442E+04  0.00000000000E+00 0. -1.
         -1   -1    0    0    0  501 -0.00000000000E+00 -0.00000000000E+00 -0.87408370007E+03  0.87408370007E+03  0.00000000000E+00 0.  1.
         23    2    1    2    0    0 -0.55188864315E+03  0.23017628814E+03  0.48702923047E+03  0.77648080906E+03  0.90348090494E+02 0.  0.
        254    2    1    2    0    0  0.55188864315E+03 -0.23017628814E+03 -0.33610278636E+03  0.11226130352E+04  0.88866908673E+03 0.  0.
        -24    2    4    4    0    0  0.73753455937E+03  0.20180346135E+02 -0.17258804323E+03  0.76180525808E+03  0.78715601650E+02 0.  0.
         24    2    4    4    0    0 -0.18564591622E+03 -0.25035663428E+03 -0.16351474313E+03  0.36080777710E+03  0.79387217215E+02 0.  0.
         11    1    3    3    0    0 -0.13333945960E+03  0.99054185467E+02  0.12986750642E+03  0.21084760460E+03  0.00000000000E+00 0.  1.
        -11    1    3    3    0    0 -0.41854918355E+03  0.13112210268E+03  0.35716172405E+03  0.56563320446E+03  0.00000000000E+00 0. -1.
          2    1    6    6  502    0 -0.18350440457E+03 -0.25630083551E+03 -0.16144766895E+03  0.35416004093E+03  0.00000000000E+00 0. -1.
          3    1    5    5  503    0  0.59797289779E+03  0.42140970876E+02 -0.15696195135E+03  0.61966483044E+03  0.00000000000E+00 0. -1.
         -4    1    5    5    0  503  0.13956166159E+03 -0.21960624741E+02 -0.15626091875E+02  0.14214042764E+03  0.00000000000E+00 0.  1.
         -1    1    6    6    0  502 -0.21415116581E+01  0.59442012380E+01 -0.20670741821E+01  0.66477361721E+01  0.00000000000E+00 0.  1.
<mgrwt>
<rscale>  0 0.18930871E+04</rscale>
<asrwt>0</asrwt>
<pdfrwt beam="1">  1        1 0.15769387E+00 0.18930871E+04</pdfrwt>
<pdfrwt beam="2">  1       -1 0.13447442E+00 0.18930871E+04</pdfrwt>
<totfact> 0.63023619E+00</totfact>
</mgrwt>
</event>
<event>
12    1  0.1549527E-007  0.1194820E+04  0.7818608E-02  0.9117403E-01
          1   -1    0    0  501    0  0.00000000000E+00  0.00000000000E+00  0.15515260183E+04  0.15515260183E+04  0.00000000000E+00 0. -1.
         -1   -1    0    0    0  501 -0.00000000000E+00 -0.00000000000E+00 -0.23003056863E+03  0.23003056863E+03  0.00000000000E+00 0.  1.
         23    2    1    2    0    0 -0.21160550189E+03  0.14737238534E+03  0.22300157401E+03  0.35315542537E+03  0.92160425707E+02 0.  0.
        254    2    1    2    0    0  0.21160550189E+03 -0.14737238534E+03  0.10984938756E+04  0.14284011615E+04  0.87586846904E+03 0.  0.
        -24    2    4    4    0    0 -0.17957938857E+03 -0.39147325619E+03  0.45113129559E+03  0.62924725304E+03  0.83262191212E+02 0.  0.
         24    2    4    4    0    0  0.39118489046E+03  0.24410087085E+03  0.64736258004E+03  0.79915390848E+03  0.83413462556E+02 0.  0.
         11    1    3    3    0    0  0.48664367895E+01  0.15135098267E+02  0.31620160397E+02  0.35391919277E+02  0.00000000000E+00 0. -1.
        -11    1    3    3    0    0 -0.21647193868E+03  0.13223728707E+03  0.19138141361E+03  0.31776350609E+03  0.00000000000E+00 0.  1.
          4    1    6    6  502    0  0.19364249752E+03  0.78225632817E+02  0.25522346254E+03  0.32978126433E+03  0.00000000000E+00 0. -1.
          3    1    5    5  503    0  0.85545979202E+01 -0.15862195933E+02  0.25418251980E+02  0.31158914280E+02  0.00000000000E+00 0. -1.
         -4    1    5    5    0  503 -0.18813398649E+03 -0.37561106026E+03  0.42571304361E+03  0.59808833876E+03  0.00000000000E+00 0.  1.
         -3    1    6    6    0  502  0.19754239293E+03  0.16587523804E+03  0.39213911750E+03  0.46937264414E+03  0.00000000000E+00 0.  1.
<mgrwt>
<rscale>  0 0.11948195E+04</rscale>
<asrwt>0</asrwt>
<pdfrwt beam="1">  1        1 0.23869630E+00 0.11948195E+04</pdfrwt>
<pdfrwt beam="2">  1       -1 0.35389319E-01 0.11948195E+04</pdfrwt>
<totfact> 0.45380645E+01</totfact>
</mgrwt>
</event>
<event>
12    1  0.1549527E-007  0.1111017E+04  0.7818608E-02  0.9194520E-01
          2   -1    0    0  501    0  0.00000000000E+00  0.00000000000E+00  0.22681248869E+03  0.22681248869E+03  0.00000000000E+00 0. -1.
         -2   -1    0    0    0  501 -0.00000000000E+00 -0.00000000000E+00 -0.13605494754E+04  0.13605494754E+04  0.00000000000E+00 0.  1.
         23    2    1    2    0    0  0.22368520266E+03 -0.11950337513E+03 -0.42251344208E+03  0.50142558099E+03  0.92703171390E+02 0.  0.
        254    2    1    2    0    0 -0.22368520266E+03  0.11950337513E+03 -0.71122354463E+03  0.10859363831E+04  0.78045036431E+03 0.  0.
        -24    2    4    4    0    0 -0.28526617922E+03  0.38136419882E+03 -0.24384499594E+03  0.54085677455E+03  0.79058354287E+02 0.  0.
         24    2    4    4    0    0  0.61580976559E+02 -0.26186082369E+03 -0.46737854868E+03  0.54507960856E+03  0.79408842303E+02 0.  0.
         13    1    3    3    0    0  0.91359430190E+02 -0.33613026885E+02 -0.86514833221E+02  0.13023516203E+03  0.00000000000E+00 0. -1.
        -13    1    3    3    0    0  0.13232577247E+03 -0.85890348241E+02 -0.33599860886E+03  0.37119041897E+03  0.00000000000E+00 0.  1.
          4    1    6    6  502    0 -0.11441703845E+02 -0.75601595581E+02 -0.91218676948E+02  0.11902672332E+03  0.00000000000E+00 0. -1.
          3    1    5    5  503    0 -0.34563423594E+01 -0.34465270667E+01 -0.64215099155E+01  0.80660176619E+01  0.00000000000E+00 0. -1.
         -4    1    5    5    0  503 -0.28180983686E+03  0.38481072588E+03 -0.23742348603E+03  0.53279075688E+03  0.00000000000E+00 0.  1.
         -3    1    6    6    0  502  0.73022680405E+02 -0.18625922811E+03 -0.37615987174E+03  0.42605288523E+03  0.00000000000E+00 0.  1.
<mgrwt>
<rscale>  0 0.11110169E+04</rscale>
<asrwt>0</asrwt>
<pdfrwt beam="1">  1        2 0.34894229E-01 0.11110169E+04</pdfrwt>
<pdfrwt beam="2">  1       -2 0.20931531E+00 0.11110169E+04</pdfrwt>
<totfact> 0.17239682E+01</totfact>
</mgrwt>
</event>
<event>
12    1  0.1590643E-007  0.2319496E+04  0.7818608E-02  0.8470273E-01
         -1   -1    0    0    0  501 -0.00000000000E+00  0.00000000000E+00  0.57190362353E+03  0.57190362353E+03  0.00000000000E+00 0.  1.
          1   -1    0    0  501    0  0.00000000000E+00 -0.00000000000E+00 -0.23518223038E+04  0.23518223038E+04  0.00000000000E+00 0. -1.
         23    2    1    2    0    0 -0.81282577922E+03  0.52522735570E+03 -0.98064672798E+03  0.13808392345E+04  0.92192536426E+02 0.  0.
        254    2    1    2    0    0  0.81282577922E+03 -0.52522735570E+03 -0.79927195233E+03  0.15428866929E+04  0.89728154492E+03 0.  0.
        -24    2    4    4    0    0  0.78583589796E+03 -0.62382604990E+02 -0.27610384962E+03  0.83914095474E+03  0.80588821975E+02 0.  0.
         24    2    4    4    0    0  0.26989881262E+02 -0.46284475071E+03 -0.52316810270E+03  0.70374573817E+03  0.81237204255E+02 0.  0.
         13    1    3    3    0    0 -0.65164703739E+03  0.39025485232E+03 -0.80622907722E+03  0.11076768645E+04  0.00000000000E+00 0. -1.
        -13    1    3    3    0    0 -0.16117874182E+03  0.13497250338E+03 -0.17441765076E+03  0.27316236999E+03  0.00000000000E+00 0.  1.
          2    1    6    6  502    0 -0.29605889614E+00 -0.11119141046E+03 -0.78176342437E+02  0.13592335314E+03  0.00000000000E+00 0. -1.
          3    1    5    5  503    0  0.22728796833E+03 -0.16305267250E+02 -0.11909879976E+03  0.25711905101E+03  0.00000000000E+00 0. -1.
         -4    1    5    5    0  503  0.55854792963E+03 -0.46077337741E+02 -0.15700504987E+03  0.58202190374E+03  0.00000000000E+00 0.  1.
         -3    1    6    6    0  502  0.27285940158E+02 -0.35165334025E+03 -0.44499176027E+03  0.56782238503E+03  0.00000000000E+00 0.  1.
<mgrwt>
<rscale>  0 0.23194962E+04</rscale>
<asrwt>0</asrwt>
<pdfrwt beam="1">  1        1 0.36181881E+00 0.23194962E+04</pdfrwt>
<pdfrwt beam="2">  1       -1 0.87985174E-01 0.23194962E+04</pdfrwt>
<totfact> 0.19643162E+00</totfact>
</mgrwt>
</event>
<event>
12    1  0.1779154E-007  0.1985484E+04  0.7818608E-02  0.8613438E-01
         -1   -1    0    0    0  501 -0.00000000000E+00  0.00000000000E+00  0.46412704027E+03  0.46412704027E+03  0.00000000000E+00 0.  1.
          1   -1    0    0  501    0  0.00000000000E+00 -0.00000000000E+00 -0.21234204147E+04  0.21234204147E+04  0.00000000000E+00 0. -1.
         23    2    1    2    0    0 -0.30005342754E+03 -0.63845336376E+03 -0.20796927408E+03  0.74123377325E+03  0.92312136590E+02 0.  0.
        254    2    1    2    0    0  0.30005342754E+03  0.63845336376E+03 -0.14513241004E+04  0.18463136818E+04  0.89714982585E+03 0.  0.
        -24    2    4    4    0    0  0.24895314505E+03  0.17566878900E+03 -0.13186865815E+04  0.13557296012E+04  0.78938326723E+02 0.  0.
         24    2    4    4    0    0  0.51100282491E+02  0.46278457476E+03 -0.13263751883E+03  0.49058408053E+03  0.79367670752E+02 0.  0.
         11    1    3    3    0    0 -0.24745164982E+03 -0.58262810878E+03 -0.20132293534E+03  0.66424299502E+03  0.00000000000E+00 0.  1.
        -11    1    3    3    0    0 -0.52601777721E+02 -0.55825254986E+02 -0.66463387353E+01  0.76990778229E+02  0.00000000000E+00 0. -1.
          2    1    6    6  502    0 -0.85445392506E+01  0.23795440008E+02  0.67189289147E+01  0.26160583363E+02  0.00000000000E+00 0. -1.
          3    1    5    5  503    0  0.50235899590E+02  0.42131323839E+02 -0.16676525531E+03  0.17919080454E+03  0.00000000000E+00 0. -1.
         -4    1    5    5    0  503  0.19871724546E+03  0.13353746516E+03 -0.11519213262E+04  0.11765387967E+04  0.00000000000E+00 0.  1.
         -1    1    6    6    0  502  0.59644821741E+02  0.43898913475E+03 -0.13935644775E+03  0.46442349717E+03  0.00000000000E+00 0.  1.
<mgrwt>
<rscale>  0 0.19854842E+04</rscale>
<asrwt>0</asrwt>
<pdfrwt beam="1">  1        1 0.32668006E+00 0.19854842E+04</pdfrwt>
<pdfrwt beam="2">  1       -1 0.71404161E-01 0.19854842E+04</pdfrwt>
<totfact> 0.45189015E+00</totfact>
</mgrwt>
</event>
<event>
12    1  0.1549527E-007  0.2030397E+04  0.7818608E-02  0.8592539E-01
         -2   -1    0    0    0  501 -0.00000000000E+00  0.00000000000E+00  0.55573194898E+03  0.55573194898E+03  0.00000000000E+00 0.  1.
          2   -1    0    0  501    0  0.00000000000E+00 -0.00000000000E+00 -0.18545416605E+04  0.18545416605E+04  0.00000000000E+00 0. -1.
         23    2    1    2    0    0 -0.13009189295E+02 -0.61323631058E+03  0.11512015033E+03  0.63035812446E+03  0.88716990718E+02 0.  0.
        254    2    1    2    0    0  0.13009189295E+02  0.61323631058E+03 -0.14139298619E+04  0.17799154850E+04  0.89032211472E+03 0.  0.
        -24    2    4    4    0    0 -0.38044719744E+03  0.12074320877E+03 -0.33244954539E+03  0.52548447146E+03  0.79323622049E+02 0.  0.
         24    2    4    4    0    0  0.39345638673E+03  0.49249310182E+03 -0.10814803165E+04  0.12544310136E+04  0.81486865740E+02 0.  0.
         13    1    3    3    0    0  0.26728197091E+02 -0.19374278148E+03  0.87765093084E+01  0.19577458724E+03  0.00000000000E+00 0. -1.
        -13    1    3    3    0    0 -0.39737386386E+02 -0.41949352911E+03  0.10634364102E+03  0.43458353722E+03  0.00000000000E+00 0.  1.
          2    1    6    6  502    0  0.47339090962E+02  0.31640843253E+02 -0.13129487260E+03  0.14311001386E+03  0.00000000000E+00 0. -1.
          3    1    5    5  503    0 -0.14873826764E+03  0.83518182662E+02 -0.11652271610E+03  0.20658146689E+03  0.00000000000E+00 0. -1.
         -4    1    5    5    0  503 -0.23170892980E+03  0.37225026103E+02 -0.21592682928E+03  0.31890300456E+03  0.00000000000E+00 0.  1.
         -1    1    6    6    0  502  0.34611729577E+03  0.46085225857E+03 -0.95018544388E+03  0.11113209997E+04  0.00000000000E+00 0.  1.
<mgrwt>
<rscale>  0 0.20303971E+04</rscale>
<asrwt>0</asrwt>
<pdfrwt beam="1">  1        2 0.28531410E+00 0.20303971E+04</pdfrwt>
<pdfrwt beam="2">  1       -2 0.85497224E-01 0.20303971E+04</pdfrwt>
<totfact> 0.88674186E+00</totfact>
</mgrwt>
</event>
<event>
12    1  0.1549527E-007  0.2886805E+04  0.7818608E-02  0.8276814E-01
         -1   -1    0    0    0  501 -0.00000000000E+00  0.00000000000E+00  0.69082050295E+03  0.69082050295E+03  0.00000000000E+00 0.  1.
          1   -1    0    0  501    0  0.00000000000E+00 -0.00000000000E+00 -0.30158499288E+04  0.30158499288E+04  0.00000000000E+00 0. -1.
         23    2    1    2    0    0 -0.66206823472E+03 -0.61006270352E+03  0.15781554067E+03  0.91710138466E+03  0.75222039492E+02 0.  0.
        254    2    1    2    0    0  0.66206823472E+03  0.61006270352E+03 -0.24828449665E+04  0.27895690471E+04  0.89814558456E+03 0.  0.
        -24    2    4    4    0    0  0.13838788689E+03  0.20272906362E+03 -0.18532269018E+04  0.18711449589E+04  0.80518489176E+02 0.  0.
         24    2    4    4    0    0  0.52368034783E+03  0.40733363990E+03 -0.62961806474E+03  0.91842408824E+03  0.83199143660E+02 0.  0.
         11    1    3    3    0    0 -0.32366192384E+03 -0.29498542805E+03  0.11486819285E+03  0.45273407806E+03  0.00000000000E+00 0.  1.
        -11    1    3    3    0    0 -0.33840631088E+03 -0.31507727547E+03  0.42947347818E+02  0.46436730661E+03  0.00000000000E+00 0. -1.
          4    1    6    6  502    0  0.42336991007E+02  0.11002056426E+02 -0.27687821626E+02  0.51769503759E+02  0.00000000000E+00 0. -1.
          3    1    5    5  503    0  0.47093134425E+02  0.13588443227E+03 -0.94066174913E+03  0.95159175518E+03  0.00000000000E+00 0. -1.
         -4    1    5    5    0  503  0.91294752463E+02  0.66844631355E+02 -0.91256515265E+03  0.91955320369E+03  0.00000000000E+00 0.  1.
         -3    1    6    6    0  502  0.48134335682E+03  0.39633158347E+03 -0.60193024312E+03  0.86665458448E+03  0.00000000000E+00 0.  1.
<mgrwt>
<rscale>  0 0.28868051E+04</rscale>
<asrwt>0</asrwt>
<pdfrwt beam="1">  1        1 0.46397692E+00 0.28868051E+04</pdfrwt>
<pdfrwt beam="2">  1       -1 0.10628008E+00 0.28868051E+04</pdfrwt>
<totfact> 0.41362017E-01</totfact>
</mgrwt>
</event>
<event>
12    1  0.1549527E-007  0.1114772E+04  0.7818608E-02  0.9190912E-01
          2   -1    0    0  501    0  0.00000000000E+00  0.00000000000E+00  0.12696684678E+04  0.12696684678E+04  0.00000000000E+00 0. -1.
         -2   -1    0    0    0  501 -0.00000000000E+00 -0.00000000000E+00 -0.24469317771E+03  0.24469317771E+03  0.00000000000E+00 0.  1.
         23    2    1    2    0    0  0.76633066475E+02 -0.10802672796E+03  0.29658676582E+03  0.33601937315E+03  0.86040157166E+02 0.  0.
        254    2    1    2    0    0 -0.76633066475E+02  0.10802672796E+03  0.72838852426E+03  0.11783422724E+04  0.91673238609E+03 0.  0.
        -24    2    4    4    0    0  0.34916568966E+03 -0.16638349055E+03  0.43505436326E+03  0.58771647853E+03  0.80859231933E+02 0.  0.
         24    2    4    4    0    0 -0.42579875613E+03  0.27441021851E+03  0.29333416101E+03  0.59062579382E+03  0.78666063608E+02 0.  0.
         13    1    3    3    0    0  0.52170096717E+02 -0.31947640585E+02  0.20755164011E+03  0.21637942148E+03  0.00000000000E+00 0. -1.
        -13    1    3    3    0    0  0.24462969758E+02 -0.76079087377E+02  0.89035125711E+02  0.11963995167E+03  0.00000000000E+00 0.  1.
          2    1    6    6  502    0 -0.95753200079E+02  0.64929987262E+02  0.10695528050E+03  0.15755637276E+03  0.00000000000E+00 0. -1.
          1    1    5    5  503    0  0.74063105659E+02 -0.81556319237E+01  0.11471736306E+03  0.13679156166E+03  0.00000000000E+00 0. -1.
         -2    1    5    5    0  503  0.27510258400E+03 -0.15822785862E+03  0.32033700019E+03  0.45092491688E+03  0.00000000000E+00 0.  1.
         -1    1    6    6    0  502 -0.33004555605E+03  0.20948023125E+03  0.18637888050E+03  0.43306942105E+03  0.00000000000E+00 0.  1.
<mgrwt>
<rscale>  0 0.11147721E+04</rscale>
<asrwt>0</asrwt>
<pdfrwt beam="1">  1        2 0.19533361E+00 0.11147721E+04</pdfrwt>
<pdfrwt beam="2">  1       -2 0.37645105E-01 0.11147721E+04</pdfrwt>
<totfact> 0.11363196E+02</totfact>
</mgrwt>
</event>
<event>
12    1  0.1549527E-007  0.1737187E+04  0.7818608E-02  0.8740435E-01
          2   -1    0    0  501    0  0.00000000000E+00  0.00000000000E+00  0.25220846544E+04  0.25220846544E+04  0.00000000000E+00 0. -1.
         -2   -1    0    0    0  501 -0.00000000000E+00 -0.00000000000E+00 -0.29913940164E+03  0.29913940164E+03  0.00000000000E+00 0.  1.
         23    2    1    2    0    0  0.59367920669E+03  0.63590688243E+02  0.10116603264E+04  0.11781345704E+04  0.89697680978E+02 0.  0.
        254    2    1    2    0    0 -0.59367920669E+03 -0.63590688243E+02  0.12112849264E+04  0.16430894857E+04  0.93596640367E+03 0.  0.
        -24    2    4    4    0    0 -0.71125934040E+03 -0.34325928634E+03  0.91690979974E+03  0.12129818482E+04  0.82973467310E+02 0.  0.
         24    2    4    4    0    0  0.11758013371E+03  0.27966859809E+03  0.29437512669E+03  0.43010763744E+03  0.79348925461E+02 0.  0.
         11    1    3    3    0    0  0.24285973976E+03  0.60281927388E+01  0.48907900082E+03  0.54609107422E+03  0.00000000000E+00 0. -1.
        -11    1    3    3    0    0  0.35081946694E+03  0.57562495504E+02  0.52258132555E+03  0.63204349620E+03  0.00000000000E+00 0.  1.
          4    1    6    6  502    0  0.20536667918E+02  0.21840118094E+02  0.65186480843E+02  0.71749723151E+02  0.00000000000E+00 0. -1.
          1    1    5    5  503    0 -0.26044189964E+03 -0.15569562542E+03  0.39781417322E+03  0.50032712027E+03  0.00000000000E+00 0. -1.
         -2    1    5    5    0  503 -0.45081744076E+03 -0.18756366091E+03  0.51909562653E+03  0.71265472795E+03  0.00000000000E+00 0.  1.
         -3    1    6    6    0  502  0.97043465788E+02  0.25782848000E+03  0.22918864584E+03  0.35835791429E+03  0.00000000000E+00 0.  1.
<mgrwt>
<rscale>  0 0.17371873E+04</rscale>
<asrwt>0</asrwt>
<pdfrwt beam="1">  1        2 0.38801301E+00 0.17371873E+04</pdfrwt>
<pdfrwt beam="2">  1       -2 0.46021448E-01 0.17371873E+04</pdfrwt>
<totfact> 0.14378261E+01</totfact>
</mgrwt>
</event>
<event>
12    1  0.1549527E-007  0.1869348E+04  0.7818608E-02  0.8670266E-01
         -1   -1    0    0    0  501 -0.00000000000E+00  0.00000000000E+00  0.22827648746E+03  0.22827648746E+03  0.00000000000E+00 0.  1.
          1   -1    0    0  501    0  0.00000000000E+00 -0.00000000000E+00 -0.38270051453E+04  0.38270051453E+04  0.00000000000E+00 0. -1.
         23    2    1    2    0    0 -0.46757804103E+03  0.32055960122E+03 -0.23384857152E+04  0.24079639601E+04  0.91582259043E+02 0.  0.
        254    2    1    2    0    0  0.46757804103E+03 -0.32055960122E+03 -0.12602429426E+04  0.16473176727E+04  0.89669145084E+03 0.  0.
        -24    2    4    4    0    0 -0.75261056689E+00 -0.39592565828E+03 -0.10444500373E+04  0.11199012745E+04  0.80902972571E+02 0.  0.
         24    2    4    4    0    0  0.46833065159E+03  0.75366057063E+02 -0.21579290534E+03  0.52741639820E+03  0.81165493398E+02 0.  0.
         11    1    3    3    0    0 -0.42366060416E+03  0.26099556906E+03 -0.21058147158E+04  0.21638074341E+04  0.00000000000E+00 0. -1.
        -11    1    3    3    0    0 -0.43917436862E+02  0.59564032153E+02 -0.23267099947E+03  0.24415652598E+03  0.00000000000E+00 0.  1.
          2    1    6    6  502    0  0.32545506385E+03  0.53790638568E+02 -0.18987818099E+03  0.38061549496E+03  0.00000000000E+00 0. -1.
          3    1    5    5  503    0 -0.26256998360E+02 -0.22502839616E+03 -0.50593340794E+03  0.55434269393E+03  0.00000000000E+00 0. -1.
         -4    1    5    5    0  503  0.25504387793E+02 -0.17089726212E+03 -0.53851662932E+03  0.56555858056E+03  0.00000000000E+00 0.  1.
         -1    1    6    6    0  502  0.14287558774E+03  0.21575418495E+02 -0.25914724347E+02  0.14680090324E+03  0.00000000000E+00 0.  1.
<mgrwt>
<rscale>  0 0.18693478E+04</rscale>
<asrwt>0</asrwt>
<pdfrwt beam="1">  1        1 0.58877003E+00 0.18693478E+04</pdfrwt>
<pdfrwt beam="2">  1       -1 0.35119459E-01 0.18693478E+04</pdfrwt>
<totfact> 0.98694545E-01</totfact>
</mgrwt>
</event>
<event>
12    1  0.1549527E-007  0.1483553E+04  0.7818608E-02  0.8895464E-01
         -2   -1    0    0    0  501 -0.00000000000E+00  0.00000000000E+00  0.38496766843E+03  0.38496766843E+03  0.00000000000E+00 0.  1.
          2   -1    0    0  501    0  0.00000000000E+00 -0.00000000000E+00 -0.14292945535E+04  0.14292945535E+04  0.00000000000E+00 0. -1.
         23    2    1    2    0    0  0.25960192134E+03  0.38316036551E+03 -0.33978011129E+03  0.58190403648E+03  0.94640162608E+02 0.  0.
        254    2    1    2    0    0 -0.25960192134E+03 -0.38316036551E+03 -0.70454677376E+03  0.12323581854E+04  0.89895245564E+03 0.  0.
        -24    2    4    4    0    0 -0.22619587960E+02  0.22204705224E+02  0.19571499251E+03  0.21386867311E+03  0.80191996821E+02 0.  0.
         24    2    4    4    0    0 -0.23698233338E+03 -0.40536507073E+03 -0.90026176627E+03  0.10184895123E+04  0.79800826902E+02 0.  0.
         13    1    3    3    0    0  0.88127490404E+02  0.11592613256E+03 -0.16268261630E+03  0.21833679585E+03  0.00000000000E+00 0.  1.
        -13    1    3    3    0    0  0.17147443094E+03  0.26723423295E+03 -0.17709749499E+03  0.36356724063E+03  0.00000000000E+00 0. -1.
          2    1    6    6  502    0 -0.24349591165E+03 -0.39470636991E+03 -0.87493147929E+03  0.99024667173E+03  0.00000000000E+00 0. -1.
          1    1    5    5  503    0 -0.21214351634E+02  0.43654944603E+02  0.63540021358E+02  0.79957096106E+02  0.00000000000E+00 0. -1.
         -4    1    5    5    0  503 -0.14052363258E+01 -0.21450239379E+02  0.13217497115E+03  0.13391157701E+03  0.00000000000E+00 0.  1.
         -1    1    6    6    0  502  0.65135782677E+01 -0.10658700829E+02 -0.25330286980E+02  0.28242840574E+02  0.00000000000E+00 0.  1.
<mgrwt>
<rscale>  0 0.14835528E+04</rscale>
<asrwt>0</asrwt>
<pdfrwt beam="1">  1        2 0.21989147E+00 0.14835528E+04</pdfrwt>
<pdfrwt beam="2">  1       -2 0.59225795E-01 0.14835528E+04</pdfrwt>
<totfact> 0.35850643E+01</totfact>
</mgrwt>
</event>
<event>
12    1  0.1549527E-007  0.1564290E+04  0.7818608E-02  0.8842792E-01
          1   -1    0    0  501    0  0.00000000000E+00  0.00000000000E+00  0.41126824671E+04  0.41126824671E+04  0.00000000000E+00 0. -1.
         -1   -1    0    0    0  501 -0.00000000000E+00 -0.00000000000E+00 -0.14874730719E+03  0.14874730719E+03  0.00000000000E+00 0.  1.
         23    2    1    2    0    0  0.11035047977E+03  0.12038297105E+03  0.26060461666E+04  0.26125316580E+04  0.84709819451E+02 0.  0.
        254    2    1    2    0    0 -0.11035047977E+03 -0.12038297105E+03  0.13578889933E+04  0.16488981163E+04  0.92105004839E+03 0.  0.
        -24    2    4    4    0    0  0.39908714111E+03 -0.21473707938E+02  0.53597789696E+03  0.67354976336E+03  0.81641358146E+02 0.  0.
         24    2    4    4    0    0 -0.50943762087E+03 -0.98909263114E+02  0.82191109637E+03  0.97534835295E+03  0.80354386113E+02 0.  0.
         11    1    3    3    0    0  0.12374407375E+03  0.97966934923E+02  0.22198228711E+04  0.22254266322E+04  0.00000000000E+00 0. -1.
        -11    1    3    3    0    0 -0.13393593985E+02  0.22416036130E+02  0.38622329550E+03  0.38710502583E+03  0.00000000000E+00 0.  1.
          4    1    6    6  502    0 -0.38976128983E+03 -0.40251650080E+02  0.61718385635E+03  0.73106085309E+03  0.00000000000E+00 0. -1.
          3    1    5    5  503    0  0.32891652210E+03 -0.75059326942E+01  0.48349978552E+03  0.58482002371E+03  0.00000000000E+00 0. -1.
         -4    1    5    5    0  503  0.70170619012E+02 -0.13967775244E+02  0.52478111437E+02  0.88729739646E+02  0.00000000000E+00 0.  1.
         -1    1    6    6    0  502 -0.11967633104E+03 -0.58657613035E+02  0.20472724003E+03  0.24428749986E+03  0.00000000000E+00 0.  1.
<mgrwt>
<rscale>  0 0.15642895E+04</rscale>
<asrwt>0</asrwt>
<pdfrwt beam="1">  1        1 0.63272029E+00 0.15642895E+04</pdfrwt>
<pdfrwt beam="2">  1       -1 0.22884204E-01 0.15642895E+04</pdfrwt>
<totfact> 0.12162768E+00</totfact>
</mgrwt>
</event>
<event>
12    1  0.1549527E-007  0.1503776E+04  0.7818608E-02  0.8881946E-01
          2   -1    0    0  501    0  0.00000000000E+00  0.00000000000E+00  0.87357151380E+03  0.87357151380E+03  0.00000000000E+00 0. -1.
         -2   -1    0    0    0  501 -0.00000000000E+00 -0.00000000000E+00 -0.64715416310E+03  0.64715416310E+03  0.00000000000E+00 0.  1.
         23    2    1    2    0    0 -0.18404427746E+02 -0.45729408738E+03  0.19994850187E+03  0.50752542428E+03  0.90255457306E+02 0.  0.
        254    2    1    2    0    0  0.18404427746E+02  0.45729408738E+03  0.26468848829E+02  0.10132002526E+04  0.90355826965E+03 0.  0.
        -24    2    4    4    0    0 -0.32478327543E+03  0.68936736786E+02 -0.24693188710E+03  0.42150203246E+03  0.80325318700E+02 0.  0.
         24    2    4    4    0    0  0.34318770317E+03  0.38835735059E+03  0.27340073593E+03  0.59169822016E+03  0.82216725582E+02 0.  0.
         13    1    3    3    0    0 -0.28717086559E+02 -0.29866913817E+03  0.86606447776E+02  0.31229569634E+03  0.00000000000E+00 0.  1.
        -13    1    3    3    0    0  0.10312658814E+02 -0.15862494921E+03  0.11334205410E+03  0.19522972793E+03  0.00000000000E+00 0. -1.
          2    1    6    6  502    0  0.10250242739E+03  0.16404441086E+03  0.12828957120E+03  0.23211103040E+03  0.00000000000E+00 0. -1.
          3    1    5    5  503    0 -0.35330825271E+02 -0.16180196088E+02 -0.39192801612E+02  0.55191862245E+02  0.00000000000E+00 0. -1.
         -4    1    5    5    0  503 -0.28945245016E+03  0.85116932874E+02 -0.20773908549E+03  0.36631017022E+03  0.00000000000E+00 0.  1.
         -1    1    6    6    0  502  0.24068527578E+03  0.22431293973E+03  0.14511116474E+03  0.35958718976E+03  0.00000000000E+00 0.  1.
<mgrwt>
<rscale>  0 0.15037758E+04</rscale>
<asrwt>0</asrwt>
<pdfrwt beam="1">  1        2 0.13439562E+00 0.15037758E+04</pdfrwt>
<pdfrwt beam="2">  1       -2 0.99562179E-01 0.15037758E+04</pdfrwt>
<totfact> 0.24647560E+01</totfact>
</mgrwt>
</event>
<event>
12    1  0.1549527E-007  0.1302331E+04  0.7818608E-02  0.9027719E-01
          1   -1    0    0  501    0  0.00000000000E+00  0.00000000000E+00  0.64574489615E+03  0.64574489615E+03  0.00000000000E+00 0. -1.
         -1   -1    0    0    0  501 -0.00000000000E+00 -0.00000000000E+00 -0.65663142305E+03  0.65663142305E+03  0.00000000000E+00 0.  1.
         23    2    1    2    0    0  0.11370877849E+03  0.31516636930E+03  0.15708968962E+02  0.34710644934E+03  0.89311750743E+02 0.  0.
        254    2    1    2    0    0 -0.11370877849E+03 -0.31516636930E+03 -0.26595495858E+02  0.95526986986E+03  0.89418883757E+03 0.  0.
        -24    2    4    4    0    0  0.50169999274E+01  0.98021716973E+02 -0.37514398337E+03  0.39587524169E+03  0.79691727501E+02 0.  0.
         24    2    4    4    0    0 -0.11872577841E+03 -0.41318808627E+03  0.34854848752E+03  0.55939462818E+03  0.81339392571E+02 0.  0.
         11    1    3    3    0    0  0.68256005747E+02  0.13334668263E+03 -0.33155859620E+02  0.15342597928E+03  0.00000000000E+00 0.  1.
        -11    1    3    3    0    0  0.45452772740E+02  0.18181968667E+03  0.48864828582E+02  0.19368047006E+03  0.00000000000E+00 0. -1.
          4    1    6    6  502    0 -0.77818943769E+02 -0.27520625647E+03  0.27903482384E+03  0.39956814753E+03  0.00000000000E+00 0. -1.
          1    1    5    5  503    0 -0.65781458298E+00  0.35075011569E+02 -0.27652906998E+03  0.27874543171E+03  0.00000000000E+00 0. -1.
         -2    1    5    5    0  503  0.56748145103E+01  0.62946705405E+02 -0.98614913399E+02  0.11712980998E+03  0.00000000000E+00 0.  1.
         -3    1    6    6    0  502 -0.40906834646E+02 -0.13798182980E+03  0.69513663682E+02  0.15982648065E+03  0.00000000000E+00 0.  1.
<mgrwt>
<rscale>  0 0.13023308E+04</rscale>
<asrwt>0</asrwt>
<pdfrwt beam="1">  1        1 0.99345370E-01 0.13023308E+04</pdfrwt>
<pdfrwt beam="2">  1       -1 0.10102022E+00 0.13023308E+04</pdfrwt>
<totfact> 0.28145861E+01</totfact>
</mgrwt>
</event>
<event>
12    1  0.1549527E-007  0.2528283E+04  0.7818608E-02  0.8392978E-01
          2   -1    0    0  501    0  0.00000000000E+00  0.00000000000E+00  0.20472919979E+04  0.20472919979E+04  0.00000000000E+00 0. -1.
         -2   -1    0    0    0  501 -0.00000000000E+00 -0.00000000000E+00 -0.78056924125E+03  0.78056924125E+03  0.00000000000E+00 0.  1.
         23    2    1    2    0    0 -0.36298584504E+03  0.43682508475E+03  0.16061960267E+04  0.17064005967E+04  0.96759711695E+02 0.  0.
        254    2    1    2    0    0  0.36298584504E+03 -0.43682508475E+03 -0.33947327010E+03  0.11214606424E+04  0.90545954797E+03 0.  0.
        -24    2    4    4    0    0  0.46130027587E+03 -0.28389689526E+03 -0.58774800263E+03  0.80354414158E+03  0.82704783528E+02 0.  0.
         24    2    4    4    0    0 -0.98314430833E+02 -0.15292818949E+03  0.24827473253E+03  0.31791650083E+03  0.79861130976E+02 0.  0.
         11    1    3    3    0    0 -0.10733654808E+03  0.10155381857E+03  0.54045576148E+03  0.56029165864E+03  0.00000000000E+00 0.  1.
        -11    1    3    3    0    0 -0.25564929696E+03  0.33527126618E+03  0.10657402652E+04  0.11461089381E+04  0.00000000000E+00 0. -1.
          4    1    6    6  502    0 -0.97428390545E+02 -0.15615873831E+03  0.20897851043E+03  0.27847775613E+03  0.00000000000E+00 0. -1.
          3    1    5    5  503    0  0.44691943308E+03 -0.27986688047E+03 -0.54536859323E+03  0.75861014554E+03  0.00000000000E+00 0. -1.
         -4    1    5    5    0  503  0.14380842794E+02 -0.40300147955E+01 -0.42379409400E+02  0.44933996036E+02  0.00000000000E+00 0.  1.
         -3    1    6    6    0  502 -0.88604028864E+00  0.32305488232E+01  0.39296222096E+02  0.39438744708E+02  0.00000000000E+00 0.  1.
<mgrwt>
<rscale>  0 0.25282825E+04</rscale>
<asrwt>0</asrwt>
<pdfrwt beam="1">  1        2 0.31496800E+00 0.25282825E+04</pdfrwt>
<pdfrwt beam="2">  1       -2 0.12008758E+00 0.25282825E+04</pdfrwt>
<totfact> 0.29655301E+00</totfact>
</mgrwt>
</event>
<event>
12    1  0.1549527E-007  0.1343009E+04  0.7818608E-02  0.8996137E-01
          2   -1    0    0  501    0  0.00000000000E+00  0.00000000000E+00  0.58245797929E+03  0.58245797929E+03  0.00000000000E+00 0. -1.
         -2   -1    0    0    0  501 -0.00000000000E+00 -0.00000000000E+00 -0.77416429893E+03  0.77416429893E+03  0.00000000000E+00 0.  1.
         23    2    1    2    0    0 -0.10463871379E+03  0.28587825521E+02  0.29636008724E+03  0.32885153811E+03  0.92452737208E+02 0.  0.
        254    2    1    2    0    0  0.10463871379E+03 -0.28587825521E+02 -0.48806640687E+03  0.10277707401E+04  0.89796289040E+03 0.  0.
        -24    2    4    4    0    0  0.47566519099E+03 -0.99118276980E+02 -0.14914192661E+03  0.51456929566E+03  0.80351969541E+02 0.  0.
         24    2    4    4    0    0 -0.37102647720E+03  0.70530451459E+02 -0.33892448026E+03  0.51320144446E+03  0.76620675435E+02 0.  0.
         11    1    3    3    0    0 -0.11348922311E+03  0.96357469770E+00  0.23344365368E+03  0.25957016716E+03  0.00000000000E+00 0. -1.
        -11    1    3    3    0    0  0.88505093133E+01  0.27624250823E+02  0.62916433558E+02  0.69281370947E+02  0.00000000000E+00 0.  1.
          2    1    6    6  502    0 -0.31601011392E+03  0.44436528155E+02 -0.24979724213E+03  0.40525998977E+03  0.00000000000E+00 0. -1.
          1    1    5    5  503    0  0.21304528702E+03 -0.49943244106E+02 -0.10873159591E+03  0.24434643829E+03  0.00000000000E+00 0. -1.
         -2    1    5    5    0  503  0.26261990397E+03 -0.49175032874E+02 -0.40410330702E+02  0.27022285737E+03  0.00000000000E+00 0.  1.
         -1    1    6    6    0  502 -0.55016363277E+02  0.26093923304E+02 -0.89127238133E+02  0.10794145468E+03  0.00000000000E+00 0.  1.
<mgrwt>
<rscale>  0 0.13430088E+04</rscale>
<asrwt>0</asrwt>
<pdfrwt beam="1">  1        2 0.89608921E-01 0.13430088E+04</pdfrwt>
<pdfrwt beam="2">  1       -2 0.11910220E+00 0.13430088E+04</pdfrwt>
<totfact> 0.27172718E+01</totfact>
</mgrwt>
</event>
<event>
12    1  0.1549527E-007  0.2381016E+04  0.7818608E-02  0.8446645E-01
          2   -1    0    0  501    0  0.00000000000E+00  0.00000000000E+00  0.22737798896E+04  0.22737798896E+04  0.00000000000E+00 0. -1.
         -2   -1    0    0    0  501 -0.00000000000E+00 -0.00000000000E+00 -0.62332727436E+03  0.62332727436E+03  0.00000000000E+00 0.  1.
         23    2    1    2    0    0 -0.24730681310E+03  0.12932376512E+03 -0.48221483789E+03  0.56472009649E+03  0.92153901010E+02 0.  0.
        254    2    1    2    0    0  0.24730681310E+03 -0.12932376512E+03  0.21326674532E+04  0.23323870675E+04  0.90214947256E+03 0.  0.
        -24    2    4    4    0    0  0.48954275649E+03 -0.26962712223E+03  0.18198933531E+04  0.19054419014E+04  0.79662587026E+02 0.  0.
         24    2    4    4    0    0 -0.24223594339E+03  0.14030335711E+03  0.31277410011E+03  0.42694516607E+03  0.78046478750E+02 0.  0.
         11    1    3    3    0    0 -0.40960735500E+01  0.13230038810E+02 -0.19199619940E+01  0.13982059916E+02  0.00000000000E+00 0. -1.
        -11    1    3    3    0    0 -0.24321073955E+03  0.11609372631E+03 -0.48029487590E+03  0.55073803658E+03  0.00000000000E+00 0.  1.
          2    1    6    6  502    0 -0.13460656898E+02  0.45018135368E+01 -0.25073238984E+01  0.14413267582E+02  0.00000000000E+00 0. -1.
          3    1    5    5  503    0  0.13275132220E+03 -0.36613658207E+02  0.48591736281E+03  0.50505361794E+03  0.00000000000E+00 0. -1.
         -4    1    5    5    0  503  0.35679143429E+03 -0.23301346402E+03  0.13339759902E+04  0.14003882835E+04  0.00000000000E+00 0.  1.
         -1    1    6    6    0  502 -0.22877528649E+03  0.13580154357E+03  0.31528142400E+03  0.41253189849E+03  0.00000000000E+00 0.  1.
<mgrwt>
<rscale>  0 0.23810158E+04</rscale>
<asrwt>0</asrwt>
<pdfrwt beam="1">  1        2 0.34981229E+00 0.23810158E+04</pdfrwt>
<pdfrwt beam="2">  1       -2 0.95896505E-01 0.23810158E+04</pdfrwt>
<totfact> 0.38518086E+00</totfact>
</mgrwt>
</event>
<event>
12    1  0.1549527E-007  0.3441334E+04  0.7818608E-02  0.8127836E-01
         -2   -1    0    0    0  501 -0.00000000000E+00  0.00000000000E+00  0.12566879460E+04  0.12566879460E+04  0.00000000000E+00 0.  1.
          2   -1    0    0  501    0  0.00000000000E+00 -0.00000000000E+00 -0.23559502296E+04  0.23559502296E+04  0.00000000000E+00 0. -1.
         23    2    1    2    0    0  0.11996523440E+04  0.67360543662E+03  0.34625474312E+03  0.14220181911E+04  0.96609306267E+02 0.  0.
        254    2    1    2    0    0 -0.11996523440E+04 -0.67360543662E+03 -0.14455170267E+04  0.21906199845E+04  0.90354104009E+03 0.  0.
        -24    2    4    4    0    0 -0.27686900392E+03 -0.39019794589E+03 -0.10266749366E+04  0.11355168886E+04  0.80164186180E+02 0.  0.
         24    2    4    4    0    0 -0.92278334009E+03 -0.28340749073E+03 -0.41884209017E+03  0.10551030958E+04  0.77233074477E+02 0.  0.
         13    1    3    3    0    0  0.74534665764E+03  0.37090915733E+03  0.23235392714E+03  0.86435154335E+03  0.00000000000E+00 0.  1.
        -13    1    3    3    0    0  0.45430568637E+03  0.30269627929E+03  0.11390081598E+03  0.55766664778E+03  0.00000000000E+00 0. -1.
          2    1    6    6  502    0 -0.73926745822E+03 -0.25416707766E+03 -0.32088896961E+03  0.84503669090E+03  0.00000000000E+00 0. -1.
          3    1    5    5  503    0 -0.22295036514E+03 -0.31829033484E+03 -0.75141368612E+03  0.84595397644E+03  0.00000000000E+00 0. -1.
         -4    1    5    5    0  503 -0.53918638781E+02 -0.71907611051E+02 -0.27526125043E+03  0.28956291220E+03  0.00000000000E+00 0.  1.
         -1    1    6    6    0  502 -0.18351588187E+03 -0.29240413071E+02 -0.97953120563E+02  0.21006640494E+03  0.00000000000E+00 0.  1.
<mgrwt>
<rscale>  0 0.34413336E+04</rscale>
<asrwt>0</asrwt>
<pdfrwt beam="1">  1        2 0.36245388E+00 0.34413336E+04</pdfrwt>
<pdfrwt beam="2">  1       -2 0.19333661E+00 0.34413336E+04</pdfrwt>
<totfact> 0.51211350E-01</totfact>
</mgrwt>
</event>
<event>
12    1  0.1549527E-007  0.2903275E+04  0.7818608E-02  0.8271904E-01
         -2   -1    0    0    0  501 -0.00000000000E+00  0.00000000000E+00  0.14012773877E+04  0.14012773877E+04  0.00000000000E+00 0.  1.
          2   -1    0    0  501    0  0.00000000000E+00 -0.00000000000E+00 -0.15038071281E+04  0.15038071281E+04  0.00000000000E+00 0. -1.
         23    2    1    2    0    0 -0.25448656243E+02 -0.12780075406E+04  0.11806221675E+03  0.12869218507E+04  0.90984916196E+02 0.  0.
        254    2    1    2    0    0  0.25448656243E+02  0.12780075406E+04 -0.22059195710E+03  0.16181626651E+04  0.96738755998E+03 0.  0.
        -24    2    4    4    0    0  0.14210916472E+03  0.13278693289E+03 -0.39858167862E+03  0.45086337001E+03  0.81135933136E+02 0.  0.
         24    2    4    4    0    0 -0.11666050848E+03  0.11452206077E+04  0.17798972151E+03  0.11672992951E+04  0.75943326002E+02 0.  0.
         13    1    3    3    0    0 -0.86349503648E+01 -0.64375694559E+03  0.13969999140E+02  0.64396640303E+03  0.00000000000E+00 0. -1.
        -13    1    3    3    0    0 -0.16813705878E+02 -0.63425059500E+03  0.10409221761E+03  0.64295544771E+03  0.00000000000E+00 0.  1.
          2    1    6    6  502    0 -0.14297053419E+02  0.47720034476E+03  0.58227504775E+02  0.48095219834E+03  0.00000000000E+00 0. -1.
          3    1    5    5  503    0 -0.81889876993E+01 -0.24301397100E+01 -0.17561640728E+02  0.19528858738E+02  0.00000000000E+00 0. -1.
         -4    1    5    5    0  503  0.15029815242E+03  0.13521707260E+03 -0.38102003789E+03  0.43133451128E+03  0.00000000000E+00 0.  1.
         -3    1    6    6    0  502 -0.10236345506E+03  0.66802026294E+03  0.11976221674E+03  0.68634709673E+03  0.00000000000E+00 0.  1.
<mgrwt>
<rscale>  0 0.29032747E+04</rscale>
<asrwt>0</asrwt>
<pdfrwt beam="1">  1        2 0.23135494E+00 0.29032747E+04</pdfrwt>
<pdfrwt beam="2">  1       -2 0.21558114E+00 0.29032747E+04</pdfrwt>
<totfact> 0.11492877E+00</totfact>
</mgrwt>
</event>
<event>
12    1  0.1549527E-007  0.1646045E+04  0.7818608E-02  0.8792750E-01
          2   -1    0    0  501    0  0.00000000000E+00  0.00000000000E+00  0.35166160070E+04  0.35166160070E+04  0.00000000000E+00 0. -1.
         -2   -1    0    0    0  501 -0.00000000000E+00 -0.00000000000E+00 -0.19261870762E+03  0.19261870762E+03  0.00000000000E+00 0.  1.
         23    2    1    2    0    0 -0.49339118727E+03 -0.12786030829E+03  0.56537652560E+03  0.76667120832E+03  0.91383827117E+02 0.  0.
        254    2    1    2    0    0  0.49339118727E+03  0.12786030829E+03  0.27586207737E+04  0.29425635063E+04  0.88820509618E+03 0.  0.
        -24    2    4    4    0    0  0.30379905944E+03 -0.31503814355E+03  0.19307719552E+04  0.19814636556E+04  0.82310237388E+02 0.  0.
         24    2    4    4    0    0  0.18959212784E+03  0.44289845183E+03  0.82784881853E+03  0.96109985062E+03  0.79215168566E+02 0.  0.
         11    1    3    3    0    0 -0.43836714079E+03 -0.10854748860E+03  0.45074357704E+03  0.63805805351E+03  0.00000000000E+00 0.  1.
        -11    1    3    3    0    0 -0.55024046485E+02 -0.19312819682E+02  0.11463294856E+03  0.12861315481E+03  0.00000000000E+00 0. -1.
          2    1    6    6  502    0  0.10549743799E+03  0.32362756825E+03  0.53912203499E+03  0.63758692033E+03  0.00000000000E+00 0. -1.
          1    1    5    5  503    0  0.49171150096E+02 -0.25871182376E+02  0.16363828968E+03  0.17281380132E+03  0.00000000000E+00 0. -1.
         -2    1    5    5    0  503  0.25462790934E+03 -0.28916696117E+03  0.17671336655E+04  0.18086498543E+04  0.00000000000E+00 0.  1.
         -1    1    6    6    0  502  0.84094689847E+02  0.11927088358E+03  0.28872678354E+03  0.32351293029E+03  0.00000000000E+00 0.  1.
<mgrwt>
<rscale>  0 0.16460450E+04</rscale>
<asrwt>0</asrwt>
<pdfrwt beam="1">  1        2 0.54101780E+00 0.16460450E+04</pdfrwt>
<pdfrwt beam="2">  1       -2 0.29633650E-01 0.16460450E+04</pdfrwt>
<totfact> 0.80240614E+00</totfact>
</mgrwt>
</event>
<event>
12    1  0.1549527E-007  0.1091248E+04  0.7818608E-02  0.9213764E-01
          2   -1    0    0  501    0  0.00000000000E+00  0.00000000000E+00  0.19860981801E+04  0.19860981801E+04  0.00000000000E+00 0. -1.
         -2   -1    0    0    0  501 -0.00000000000E+00 -0.00000000000E+00 -0.14989467734E+03  0.14989467734E+03  0.00000000000E+00 0.  1.
         23    2    1    2    0    0  0.87277943927E+02 -0.10041703192E+03  0.13945709249E+03  0.21310287324E+03  0.90903983098E+02 0.  0.
        254    2    1    2    0    0 -0.87277943927E+02  0.10041703192E+03  0.16967464103E+04  0.19228899842E+04  0.89490585583E+03 0.  0.
        -24    2    4    4    0    0 -0.53171830465E+02 -0.24899274419E+03  0.14760372308E+04  0.14999764234E+04  0.80117001211E+02 0.  0.
         24    2    4    4    0    0 -0.34106113462E+02  0.34940977611E+03  0.22070917952E+03  0.42291356084E+03  0.83023607495E+02 0.  0.
         11    1    3    3    0    0  0.72776303139E+02 -0.45151829167E+02  0.12926779923E+03  0.15506528268E+03  0.00000000000E+00 0.  1.
        -11    1    3    3    0    0  0.14501640787E+02 -0.55265202753E+02  0.10189293259E+02  0.58037590559E+02  0.00000000000E+00 0. -1.
          4    1    6    6  502    0 -0.33190666640E+02  0.25093086526E+03  0.11369175942E+03  0.27747745071E+03  0.00000000000E+00 0. -1.
          3    1    5    5  503    0 -0.39476900141E+02 -0.10577152362E+03  0.85901346107E+03  0.86640069664E+03  0.00000000000E+00 0. -1.
         -4    1    5    5    0  503 -0.13694930324E+02 -0.14322122056E+03  0.61702376971E+03  0.63357572674E+03  0.00000000000E+00 0.  1.
         -3    1    6    6    0  502 -0.91544682248E+00  0.98478910843E+02  0.10701742010E+03  0.14543611012E+03  0.00000000000E+00 0.  1.
<mgrwt>
<rscale>  0 0.10912480E+04</rscale>
<asrwt>0</asrwt>
<pdfrwt beam="1">  1        2 0.30555355E+00 0.10912480E+04</pdfrwt>
<pdfrwt beam="2">  1       -2 0.23060721E-01 0.10912480E+04</pdfrwt>
<totfact> 0.11237486E+02</totfact>
</mgrwt>
</event>
<event>
12    1  0.1549527E-007  0.2301948E+04  0.7818608E-02  0.8477153E-01
         -1   -1    0    0    0  501 -0.00000000000E+00  0.00000000000E+00  0.56432302294E+03  0.56432302294E+03  0.00000000000E+00 0.  1.
          1   -1    0    0  501    0  0.00000000000E+00 -0.00000000000E+00 -0.23474880770E+04  0.23474880770E+04  0.00000000000E+00 0. -1.
         23    2    1    2    0    0  0.90248163043E+03  0.36820323848E+03 -0.70169873145E+03  0.12047723798E+04  0.95124441400E+02 0.  0.
        254    2    1    2    0    0 -0.90248163043E+03 -0.36820323848E+03 -0.10814663226E+04  0.17070387201E+04  0.89127160115E+03 0.  0.
        -24    2    4    4    0    0 -0.10601637850E+04 -0.21261320526E+03 -0.91445155283E+03  0.14183407635E+04  0.79481148002E+02 0.  0.
         24    2    4    4    0    0  0.15768215455E+03 -0.15559003322E+03 -0.16701476978E+03  0.28869795664E+03  0.79879011879E+02 0.  0.
         13    1    3    3    0    0  0.85805121211E+03  0.36736809791E+03 -0.68285311368E+03  0.11565031677E+04  0.00000000000E+00 0.  1.
        -13    1    3    3    0    0  0.44430418319E+02  0.83514056990E+00 -0.18845617767E+02  0.48269212142E+02  0.00000000000E+00 0. -1.
          4    1    6    6  502    0  0.12930700244E+03 -0.97093082475E+02 -0.80938844787E+02  0.18082716649E+03  0.00000000000E+00 0. -1.
          3    1    5    5  503    0 -0.57389122601E+03 -0.15136280301E+03 -0.52347662952E+03  0.79138462145E+03  0.00000000000E+00 0. -1.
         -4    1    5    5    0  503 -0.48627255898E+03 -0.61250402258E+02 -0.39097492331E+03  0.62695614205E+03  0.00000000000E+00 0.  1.
         -3    1    6    6    0  502  0.28375152115E+02 -0.58496950747E+02 -0.86075924991E+02  0.10787079015E+03  0.00000000000E+00 0.  1.
<mgrwt>
<rscale>  0 0.23019484E+04</rscale>
<asrwt>0</asrwt>
<pdfrwt beam="1">  1        1 0.36115201E+00 0.23019484E+04</pdfrwt>
<pdfrwt beam="2">  1       -1 0.86818926E-01 0.23019484E+04</pdfrwt>
<totfact> 0.20396033E+00</totfact>
</mgrwt>
</event>
<event>
12    1  0.1549527E-007  0.1173375E+04  0.7818608E-02  0.9136486E-01
          2   -1    0    0  501    0  0.00000000000E+00  0.00000000000E+00  0.86976641770E+03  0.86976641770E+03  0.00000000000E+00 0. -1.
         -2   -1    0    0    0  501 -0.00000000000E+00 -0.00000000000E+00 -0.39574076651E+03  0.39574076651E+03  0.00000000000E+00 0.  1.
         23    2    1    2    0    0  0.34254466133E+02 -0.12617958668E+03 -0.91106859282E+02  0.18897067214E+03  0.10156179684E+03 0.  0.
        254    2    1    2    0    0 -0.34254466133E+02  0.12617958668E+03  0.56513251047E+03  0.10765365121E+04  0.90689660430E+03 0.  0.
        -24    2    4    4    0    0  0.36719803733E+03  0.21926008132E+03  0.48110145379E+03  0.64857379966E+03  0.79246343040E+02 0.  0.
         24    2    4    4    0    0 -0.40145250346E+03 -0.93080494643E+02  0.84031056686E+02  0.42796271242E+03  0.79137688330E+02 0.  0.
         11    1    3    3    0    0 -0.22355557446E+02  0.43961798831E+01 -0.17597979667E+02  0.28788647669E+02  0.00000000000E+00 0. -1.
        -11    1    3    3    0    0  0.56610023579E+02 -0.13057576656E+03 -0.73508879616E+02  0.16018202447E+03  0.00000000000E+00 0.  1.
          4    1    6    6  502    0 -0.31369424601E+03 -0.65346323420E+02  0.97528590743E+02  0.33494185761E+03  0.00000000000E+00 0. -1.
          1    1    5    5  503    0  0.33595635896E+03  0.21619392744E+03  0.46577925631E+03  0.61364224512E+03  0.00000000000E+00 0. -1.
         -2    1    5    5    0  503  0.31241678366E+02  0.30661538832E+01  0.15322197479E+02  0.34931554536E+02  0.00000000000E+00 0.  1.
         -3    1    6    6    0  502 -0.87758257449E+02 -0.27734171224E+02 -0.13497534057E+02  0.93020854810E+02  0.00000000000E+00 0.  1.
<mgrwt>
<rscale>  0 0.11733747E+04</rscale>
<asrwt>0</asrwt>
<pdfrwt beam="1">  1        2 0.13381022E+00 0.11733747E+04</pdfrwt>
<pdfrwt beam="2">  1       -2 0.60883195E-01 0.11733747E+04</pdfrwt>
<totfact> 0.76340479E+01</totfact>
</mgrwt>
</event>
<event>
12    1  0.1549527E-007  0.2787925E+04  0.7818608E-02  0.8307027E-01
          2   -1    0    0  501    0  0.00000000000E+00  0.00000000000E+00  0.26098788819E+04  0.26098788819E+04  0.00000000000E+00 0.  1.
         -2   -1    0    0    0  501 -0.00000000000E+00 -0.00000000000E+00 -0.74452952742E+03  0.74452952742E+03  0.00000000000E+00 0. -1.
         23    2    1    2    0    0  0.96135091542E+03 -0.30445710516E+03 -0.50670530409E+02  0.10138926583E+04  0.92309850380E+02 0.  0.
        254    2    1    2    0    0 -0.96135091542E+03  0.30445710516E+03  0.19160198849E+04  0.23405157510E+04  0.88881498071E+03 0.  0.
        -24    2    4    4    0    0 -0.28249939512E+03  0.35253296742E+03  0.21314370673E+03  0.50471199897E+03  0.72239606999E+02 0.  0.
         24    2    4    4    0    0 -0.67885152030E+03 -0.48075862260E+02  0.17028761782E+04  0.18358037520E+04  0.85073278521E+02 0.  0.
         11    1    3    3    0    0  0.36234201805E+03 -0.83218662735E+02  0.14199892719E+02  0.37204666485E+03  0.00000000000E+00 0.  1.
        -11    1    3    3    0    0  0.59900889737E+03 -0.22123844242E+03 -0.64870423129E+02  0.64184599347E+03  0.00000000000E+00 0. -1.
          4    1    6    6  502    0 -0.10136861698E+03  0.15953165723E+02  0.20667782108E+03  0.23075056172E+03  0.00000000000E+00 0. -1.
          3    1    5    5  503    0 -0.50185958339E+02  0.34401150829E+02  0.48306072080E+02  0.77688777777E+02  0.00000000000E+00 0. -1.
         -4    1    5    5    0  503 -0.23231343678E+03  0.31813181659E+03  0.16483763466E+03  0.42702322119E+03  0.00000000000E+00 0.  1.
         -3    1    6    6    0  502 -0.57748290332E+03 -0.64029027983E+02  0.14961983571E+04  0.16050531903E+04  0.00000000000E+00 0.  1.
<mgrwt>
<rscale>  0 0.27879253E+04</rscale>
<asrwt>0</asrwt>
<pdfrwt beam="1">  1        2 0.40151982E+00 0.27879253E+04</pdfrwt>
<pdfrwt beam="2">  1       -2 0.11454301E+00 0.27879253E+04</pdfrwt>
<totfact> 0.15568369E+00</totfact>
</mgrwt>
</event>
<event>
12    1  0.1549527E-007  0.1515250E+04  0.7818608E-02  0.8874374E-01
         -2   -1    0    0    0  501 -0.00000000000E+00  0.00000000000E+00  0.81408185940E+03  0.81408185940E+03  0.00000000000E+00 0.  1.
          2   -1    0    0  501    0  0.00000000000E+00 -0.00000000000E+00 -0.70508380879E+03  0.70508380879E+03  0.00000000000E+00 0. -1.
         23    2    1    2    0    0 -0.70884994196E+02  0.47502184070E+03  0.12921956226E+03  0.50550187759E+03  0.90354974550E+02 0.  0.
        254    2    1    2    0    0  0.70884994196E+02 -0.47502184070E+03 -0.20221511651E+02  0.10136637906E+04  0.89243203624E+03 0.  0.
        -24    2    4    4    0    0  0.86917426216E+02 -0.58444951573E+03  0.29884262008E+03  0.66660868738E+03  0.76969832425E+02 0.  0.
         24    2    4    4    0    0 -0.16032432021E+02  0.10942767503E+03 -0.31906413173E+03  0.34705510322E+03  0.80086637951E+02 0.  0.
         11    1    3    3    0    0 -0.77241916394E+02  0.37414995158E+03  0.13253339981E+03  0.40437557046E+03  0.00000000000E+00 0. -1.
        -11    1    3    3    0    0  0.63569221980E+01  0.10087188912E+03 -0.33138375468E+01  0.10112630713E+03  0.00000000000E+00 0.  1.
          2    1    6    6  502    0 -0.26051738201E+02  0.67371411801E+02 -0.27869836249E+03  0.28790689024E+03  0.00000000000E+00 0. -1.
          3    1    5    5  503    0  0.84353591830E+02 -0.58565829779E+03  0.29335085818E+03  0.66042857011E+03  0.00000000000E+00 0. -1.
         -2    1    5    5    0  503  0.25638343862E+01  0.12087820558E+01  0.54917618946E+01  0.61801172743E+01  0.00000000000E+00 0.  1.
         -1    1    6    6    0  502  0.10019306181E+02  0.42056263228E+02 -0.40365769236E+02  0.59148212982E+02  0.00000000000E+00 0.  1.
<mgrwt>
<rscale>  0 0.15152504E+04</rscale>
<asrwt>0</asrwt>
<pdfrwt beam="1">  1        2 0.10847443E+00 0.15152504E+04</pdfrwt>
<pdfrwt beam="2">  1       -2 0.12524336E+00 0.15152504E+04</pdfrwt>
<totfact> 0.18690989E+01</totfact>
</mgrwt>
</event>
<event>
12    1  0.1549527E-007  0.2432366E+04  0.7818608E-02  0.8427485E-01
          3   -1    0    0  501    0  0.00000000000E+00  0.00000000000E+00  0.28143486258E+04  0.28143486258E+04  0.00000000000E+00 0. -1.
         -3   -1    0    0    0  501 -0.00000000000E+00 -0.00000000000E+00 -0.52555734313E+03  0.52555734313E+03  0.00000000000E+00 0.  1.
         23    2    1    2    0    0  0.12805176970E+03 -0.21952026338E+03 -0.39924172581E+03  0.48217914747E+03  0.92284196203E+02 0.  0.
        254    2    1    2    0    0 -0.12805176970E+03  0.21952026338E+03  0.26880330084E+04  0.28577268214E+04  0.93621297241E+03 0.  0.
        -24    2    4    4    0    0  0.11434786137E+03  0.10712985862E+03  0.21943329552E+02  0.17702829474E+03  0.79405714024E+02 0.  0.
         24    2    4    4    0    0 -0.24239963108E+03  0.11239040476E+03  0.26660896789E+04  0.26806985267E+04  0.81983113392E+02 0.  0.
         13    1    3    3    0    0  0.23435917369E+02 -0.18846114078E+02 -0.95711731365E+01  0.31559873162E+02  0.00000000000E+00 0. -1.
        -13    1    3    3    0    0  0.10461585233E+03 -0.20067414930E+03 -0.38967055267E+03  0.45061927431E+03  0.00000000000E+00 0.  1.
          4    1    6    6  502    0 -0.60361397293E+02  0.13250365658E+02  0.97423168827E+03  0.97618976275E+03  0.00000000000E+00 0. -1.
          1    1    5    5  503    0 -0.72020739498E+01  0.31003699157E+02  0.87021209471E+01  0.32997365646E+02  0.00000000000E+00 0. -1.
         -2    1    5    5    0  503  0.12154993532E+03  0.76126159461E+02  0.13241208604E+02  0.14403092910E+03  0.00000000000E+00 0.  1.
         -3    1    6    6    0  502 -0.18203823378E+03  0.99140039105E+02  0.16918579906E+04  0.17045087639E+04  0.00000000000E+00 0.  1.
<mgrwt>
<rscale>  0 0.24323664E+04</rscale>
<asrwt>0</asrwt>
<pdfrwt beam="1">  1        3 0.43297670E+00 0.24323664E+04</pdfrwt>
<pdfrwt beam="2">  1       -3 0.80854978E-01 0.24323664E+04</pdfrwt>
<totfact> 0.24818780E-02</totfact>
</mgrwt>
</event>
<event>
12    1  0.1549527E-007  0.1771397E+04  0.7818608E-02  0.8721660E-01
          2   -1    0    0  501    0  0.00000000000E+00  0.00000000000E+00  0.14290277801E+04  0.14290277801E+04  0.00000000000E+00 0. -1.
         -2   -1    0    0    0  501 -0.00000000000E+00 -0.00000000000E+00 -0.54894813629E+03  0.54894813629E+03  0.00000000000E+00 0.  1.
         23    2    1    2    0    0  0.58290178782E+02  0.59458377106E+03  0.35553921980E+02  0.60701823022E+03  0.10138759642E+03 0.  0.
        254    2    1    2    0    0 -0.58290178782E+02 -0.59458377106E+03  0.84452572180E+03  0.13709576861E+04  0.89965197530E+03 0.  0.
        -24    2    4    4    0    0 -0.39104327867E+03 -0.12663770550E+03  0.62269385502E+03  0.75030764846E+03  0.79132648279E+02 0.  0.
         24    2    4    4    0    0  0.33275309989E+03 -0.46794606556E+03  0.22183186679E+03  0.62065003768E+03  0.79365902001E+02 0.  0.
         13    1    3    3    0    0  0.45010212535E+02  0.55734908263E+03  0.87061041612E+01  0.55923136124E+03  0.00000000000E+00 0.  1.
        -13    1    3    3    0    0  0.13279966247E+02  0.37234688425E+02  0.26847817819E+02  0.47786868984E+02  0.00000000000E+00 0. -1.
          4    1    6    6  502    0  0.14637069949E+03 -0.15319295915E+03  0.10624991033E+03  0.23702638640E+03  0.00000000000E+00 0. -1.
          3    1    5    5  503    0 -0.43442981922E+02 -0.80420582402E+01  0.31286372950E+02  0.54136905262E+02  0.00000000000E+00 0. -1.
         -4    1    5    5    0  503 -0.34760029675E+03 -0.11859564726E+03  0.59140748207E+03  0.69617074320E+03  0.00000000000E+00 0.  1.
         -3    1    6    6    0  502  0.18638240040E+03 -0.31475310640E+03  0.11558195646E+03  0.38362365129E+03  0.00000000000E+00 0.  1.
<mgrwt>
<rscale>  0 0.17713973E+04</rscale>
<asrwt>0</asrwt>
<pdfrwt beam="1">  1        2 0.21985043E+00 0.17713973E+04</pdfrwt>
<pdfrwt beam="2">  1       -2 0.84453560E-01 0.17713973E+04</pdfrwt>
<totfact> 0.16115143E+01</totfact>
</mgrwt>
</event>
<event>
12    1  0.1549527E-007  0.1461392E+04  0.7818608E-02  0.8910540E-01
          2   -1    0    0  501    0  0.00000000000E+00  0.00000000000E+00  0.27243327045E+04  0.27243327045E+04  0.00000000000E+00 0. -1.
         -2   -1    0    0    0  501 -0.00000000000E+00 -0.00000000000E+00 -0.19598075781E+03  0.19598075781E+03  0.00000000000E+00 0.  1.
         23    2    1    2    0    0  0.98079989123E+02 -0.28512723556E+03  0.14186626239E+04  0.14531397408E+04  0.89968001007E+02 0.  0.
        254    2    1    2    0    0 -0.98079989123E+02  0.28512723556E+03  0.11096893228E+04  0.14671737215E+04  0.91119213735E+03 0.  0.
        -24    2    4    4    0    0  0.26122498763E+03  0.92082166882E+02  0.66428187030E+01  0.28836392708E+03  0.79950033029E+02 0.  0.
         24    2    4    4    0    0 -0.35930497676E+03  0.19304506868E+03  0.11030465041E+04  0.11788097944E+04  0.80712306002E+02 0.  0.
         13    1    3    3    0    0  0.22785269477E+02 -0.16394833777E+03  0.90600146576E+03  0.92099776434E+03  0.00000000000E+00 0. -1.
        -13    1    3    3    0    0  0.75294719647E+02 -0.12117889778E+03  0.51266115813E+03  0.53214197648E+03  0.00000000000E+00 0.  1.
          2    1    6    6  502    0 -0.12365792717E+03  0.40342219165E+02  0.43820441123E+03  0.45710161192E+03  0.00000000000E+00 0. -1.
          3    1    5    5  503    0  0.28261960964E+02  0.13210324740E+02 -0.25536035559E+02  0.40315508546E+02  0.00000000000E+00 0. -1.
         -4    1    5    5    0  503  0.23296302667E+03  0.78871842141E+02  0.32178854262E+02  0.24804841854E+03  0.00000000000E+00 0.  1.
         -1    1    6    6    0  502 -0.23564704958E+03  0.15270284951E+03  0.66484209284E+03  0.72170818247E+03  0.00000000000E+00 0.  1.
<mgrwt>
<rscale>  0 0.14613922E+04</rscale>
<asrwt>0</asrwt>
<pdfrwt beam="1">  1        2 0.41912808E+00 0.14613922E+04</pdfrwt>
<pdfrwt beam="2">  1       -2 0.30150888E-01 0.14613922E+04</pdfrwt>
<totfact> 0.25406613E+01</totfact>
</mgrwt>
</event>
<event>
12    1  0.1549527E-007  0.1313129E+04  0.7818608E-02  0.9019218E-01
          1   -1    0    0  501    0  0.00000000000E+00  0.00000000000E+00  0.94019684497E+03  0.94019684497E+03  0.00000000000E+00 0. -1.
         -1   -1    0    0    0  501 -0.00000000000E+00 -0.00000000000E+00 -0.45849638691E+03  0.45849638691E+03  0.00000000000E+00 0.  1.
         23    2    1    2    0    0  0.28102319386E+03 -0.16006978435E+03  0.36024403962E+02  0.33821673995E+03  0.92176104023E+02 0.  0.
        254    2    1    2    0    0 -0.28102319386E+03  0.16006978435E+03  0.44567605411E+03  0.10604764919E+04  0.90630396302E+03 0.  0.
        -24    2    4    4    0    0 -0.12968356040E+03  0.52541409382E+03  0.17280221987E+03  0.57306734633E+03  0.75284662534E+02 0.  0.
         24    2    4    4    0    0 -0.15133963345E+03 -0.36534430947E+03  0.27287383424E+03  0.48740914560E+03  0.82020708944E+02 0.  0.
         13    1    3    3    0    0  0.25638642602E+02 -0.46995179923E+02  0.23980456537E+02  0.58659604722E+02  0.00000000000E+00 0.  1.
        -13    1    3    3    0    0  0.25538455125E+03 -0.11307460443E+03  0.12043947426E+02  0.27955713523E+03  0.00000000000E+00 0. -1.
          4    1    6    6  502    0 -0.20818156842E+02 -0.11755421605E+02  0.35643271892E+01  0.24172091753E+02  0.00000000000E+00 0. -1.
          3    1    5    5  503    0 -0.60747009648E+02  0.29542887224E+03  0.13326429313E+03  0.32973897185E+03  0.00000000000E+00 0. -1.
         -4    1    5    5    0  503 -0.68936550756E+02  0.22998522158E+03  0.39537926742E+02  0.24332837447E+03  0.00000000000E+00 0.  1.
         -3    1    6    6    0  502 -0.13052147661E+03 -0.35358888786E+03  0.26930950705E+03  0.46323705385E+03  0.00000000000E+00 0.  1.
<mgrwt>
<rscale>  0 0.13131289E+04</rscale>
<asrwt>0</asrwt>
<pdfrwt beam="1">  1        1 0.14464567E+00 0.13131289E+04</pdfrwt>
<pdfrwt beam="2">  1       -1 0.70537906E-01 0.13131289E+04</pdfrwt>
<totfact> 0.33653399E+01</totfact>
</mgrwt>
</event>
<event>
12    1  0.1549527E-007  0.2458165E+04  0.7818608E-02  0.8418043E-01
          2   -1    0    0  501    0  0.00000000000E+00  0.00000000000E+00  0.21689993982E+04  0.21689993982E+04  0.00000000000E+00 0. -1.
         -2   -1    0    0    0  501 -0.00000000000E+00 -0.00000000000E+00 -0.69647049823E+03  0.69647049823E+03  0.00000000000E+00 0.  1.
         23    2    1    2    0    0 -0.71723974318E+01 -0.95377361545E+03  0.11319561147E+04  0.14830764665E+04  0.91954375200E+02 0.  0.
        254    2    1    2    0    0  0.71723974318E+01  0.95377361545E+03  0.34057278526E+03  0.13823934299E+04  0.94089649813E+03 0.  0.
        -24    2    4    4    0    0 -0.26901037887E+02  0.36360296866E+03 -0.32055297789E+03  0.49193348747E+03  0.79457912156E+02 0.  0.
         24    2    4    4    0    0  0.34073435318E+02  0.59017064679E+03  0.66112576315E+03  0.89045994244E+03  0.79807537659E+02 0.  0.
         11    1    3    3    0    0 -0.43233317155E+02 -0.75111089507E+03  0.89297238333E+03  0.11676627826E+04  0.00000000000E+00 0. -1.
        -11    1    3    3    0    0  0.36060919723E+02 -0.20266272038E+03  0.23898373139E+03  0.31541368397E+03  0.00000000000E+00 0.  1.
          4    1    6    6  502    0  0.25248177844E+02  0.17217291211E+03  0.14699294158E+03  0.22778917231E+03  0.00000000000E+00 0. -1.
          1    1    5    5  503    0 -0.37596852996E+02  0.25365465360E+03 -0.26321119735E+03  0.36747019071E+03  0.00000000000E+00 0. -1.
         -2    1    5    5    0  503  0.10695815109E+02  0.10994831506E+03 -0.57341780532E+02  0.12446329676E+03  0.00000000000E+00 0.  1.
         -3    1    6    6    0  502  0.88252574744E+01  0.41799773468E+03  0.51413282157E+03  0.66267077013E+03  0.00000000000E+00 0.  1.
<mgrwt>
<rscale>  0 0.24581652E+04</rscale>
<asrwt>0</asrwt>
<pdfrwt beam="1">  1        2 0.33369221E+00 0.24581652E+04</pdfrwt>
<pdfrwt beam="2">  1       -2 0.10714931E+00 0.24581652E+04</pdfrwt>
<totfact> 0.33674827E+00</totfact>
</mgrwt>
</event>
<event>
12    1  0.1549527E-007  0.1804158E+04  0.7818608E-02  0.8704091E-01
          1   -1    0    0  501    0  0.00000000000E+00  0.00000000000E+00  0.79146247552E+03  0.79146247552E+03  0.00000000000E+00 0. -1.
         -1   -1    0    0    0  501 -0.00000000000E+00 -0.00000000000E+00 -0.10281554531E+04  0.10281554531E+04  0.00000000000E+00 0.  1.
         23    2    1    2    0    0 -0.24748842995E+03  0.51718967954E+03  0.26966733839E+03  0.64008867167E+03  0.90869943420E+02 0.  0.
        254    2    1    2    0    0  0.24748842995E+03 -0.51718967954E+03 -0.50636031595E+03  0.11795292569E+04  0.89786012875E+03 0.  0.
        -24    2    4    4    0    0  0.12252010069E+03  0.21394125136E+03 -0.31838319903E+03  0.41023364909E+03  0.78369326368E+02 0.  0.
         24    2    4    4    0    0  0.12496832925E+03 -0.73113093090E+03 -0.18797711693E+03  0.76929560784E+03  0.79440633869E+02 0.  0.
         11    1    3    3    0    0 -0.20727652524E+03  0.43556288349E+03  0.26159962863E+03  0.54873759584E+03  0.00000000000E+00 0. -1.
        -11    1    3    3    0    0 -0.40211904705E+02  0.81626796054E+02  0.80677097661E+01  0.91351075828E+02  0.00000000000E+00 0.  1.
          2    1    6    6  502    0  0.11245361676E+03 -0.71388337321E+03 -0.17258362855E+03  0.74300766840E+03  0.00000000000E+00 0. -1.
          1    1    5    5  503    0  0.10751494445E+03  0.21804032107E+03 -0.29761122004E+03  0.38428307690E+03  0.00000000000E+00 0. -1.
         -2    1    5    5    0  503  0.15005156239E+02 -0.40990697101E+01 -0.20771978985E+02  0.25950572194E+02  0.00000000000E+00 0.  1.
         -1    1    6    6    0  502  0.12514712492E+02 -0.17247557698E+02 -0.15393488377E+02  0.26287939434E+02  0.00000000000E+00 0.  1.
<mgrwt>
<rscale>  0 0.18041579E+04</rscale>
<asrwt>0</asrwt>
<pdfrwt beam="1">  1        1 0.12176346E+00 0.18041579E+04</pdfrwt>
<pdfrwt beam="2">  1       -1 0.15817776E+00 0.18041579E+04</pdfrwt>
<totfact> 0.64019311E+00</totfact>
</mgrwt>
</event>
<event>
12    1  0.1549527E-007  0.1383583E+04  0.7818608E-02  0.8965789E-01
          2   -1    0    0  501    0  0.00000000000E+00  0.00000000000E+00  0.63790556006E+03  0.63790556006E+03  0.00000000000E+00 0. -1.
         -2   -1    0    0    0  501 -0.00000000000E+00 -0.00000000000E+00 -0.75022920963E+03  0.75022920963E+03  0.00000000000E+00 0.  1.
         23    2    1    2    0    0 -0.19364297861E+03  0.34281602646E+03  0.50513314990E+02  0.40718475316E+03  0.90705000180E+02 0.  0.
        254    2    1    2    0    0  0.19364297861E+03 -0.34281602646E+03 -0.16283696456E+03  0.98095001652E+03  0.88358736225E+03 0.  0.
        -24    2    4    4    0    0  0.16706928814E+03 -0.60369991223E+03 -0.27196658870E+03  0.68729408323E+03  0.77727732559E+02 0.  0.
         24    2    4    4    0    0  0.26573690467E+02  0.26088388577E+03  0.10912962414E+03  0.29365593330E+03  0.74551790156E+02 0.  0.
         13    1    3    3    0    0 -0.14315032858E+03  0.24184679892E+03 -0.56523685048E+01  0.28109400561E+03  0.00000000000E+00 0. -1.
        -13    1    3    3    0    0 -0.50492650031E+02  0.10096922754E+03  0.56165683494E+02  0.12609074756E+03  0.00000000000E+00 0.  1.
          4    1    6    6  502    0  0.15191384978E+02  0.23468327980E+03  0.70312500936E+02  0.24546052184E+03  0.00000000000E+00 0. -1.
          1    1    5    5  503    0  0.64340669266E+02 -0.33259924125E+03 -0.11589236888E+03  0.35804052588E+03  0.00000000000E+00 0. -1.
         -2    1    5    5    0  503  0.10272861887E+03 -0.27110067097E+03 -0.15607421981E+03  0.32925355735E+03  0.00000000000E+00 0.  1.
         -3    1    6    6    0  502  0.11382305489E+02  0.26200605972E+02  0.38817123203E+02  0.48195411455E+02  0.00000000000E+00 0.  1.
<mgrwt>
<rscale>  0 0.13835829E+04</rscale>
<asrwt>0</asrwt>
<pdfrwt beam="1">  1        2 0.98139317E-01 0.13835829E+04</pdfrwt>
<pdfrwt beam="2">  1       -2 0.11541988E+00 0.13835829E+04</pdfrwt>
<totfact> 0.26204905E+01</totfact>
</mgrwt>
</event>
<event>
12    1  0.1549527E-007  0.2933209E+04  0.7818608E-02  0.8263065E-01
          2   -1    0    0  501    0  0.00000000000E+00  0.00000000000E+00  0.24336395112E+04  0.24336395112E+04  0.00000000000E+00 0. -1.
         -2   -1    0    0    0  501 -0.00000000000E+00 -0.00000000000E+00 -0.88383190351E+03  0.88383190351E+03  0.00000000000E+00 0.  1.
         23    2    1    2    0    0 -0.20279309839E+03  0.12270357448E+04  0.18468419714E+03  0.12609512924E+04  0.95645957997E+02 0.  0.
        254    2    1    2    0    0  0.20279309839E+03 -0.12270357448E+04  0.13651234105E+04  0.20565201223E+04  0.90497034624E+03 0.  0.
        -24    2    4    4    0    0 -0.54460201162E+02 -0.12157872638E+04  0.12932002134E+04  0.17775614513E+04  0.79078044049E+02 0.  0.
         24    2    4    4    0    0  0.25725329955E+03 -0.11248481086E+02  0.71923197135E+02  0.27895867098E+03  0.79619126945E+02 0.  0.
         13    1    3    3    0    0 -0.12113107118E+03  0.80501431827E+03  0.76277372571E+02  0.81764235861E+03  0.00000000000E+00 0.  1.
        -13    1    3    3    0    0 -0.81662027206E+02  0.42202142657E+03  0.10840682457E+03  0.44330893379E+03  0.00000000000E+00 0. -1.
          4    1    6    6  502    0  0.73304562231E+02  0.58110203610E+01 -0.14588069399E+02  0.74967583463E+02  0.00000000000E+00 0. -1.
          3    1    5    5  503    0 -0.67459291175E+01 -0.27402093648E+03  0.34021035320E+03  0.43689365481E+03  0.00000000000E+00 0. -1.
         -4    1    5    5    0  503 -0.47714272045E+02 -0.94176632728E+03  0.95298986021E+03  0.13406677965E+04  0.00000000000E+00 0.  1.
         -3    1    6    6    0  502  0.18394873732E+03 -0.17059501447E+02  0.86511266535E+02  0.20399108752E+03  0.00000000000E+00 0.  1.
<mgrwt>
<rscale>  0 0.29332086E+04</rscale>
<asrwt>0</asrwt>
<pdfrwt beam="1">  1        2 0.37440608E+00 0.29332086E+04</pdfrwt>
<pdfrwt beam="2">  1       -2 0.13597414E+00 0.29332086E+04</pdfrwt>
<totfact> 0.12674140E+00</totfact>
</mgrwt>
</event>
<event>
12    1  0.1549527E-007  0.2157573E+04  0.7818608E-02  0.8536298E-01
         -2   -1    0    0    0  501 -0.00000000000E+00  0.00000000000E+00  0.64946999192E+03  0.64946999192E+03  0.00000000000E+00 0.  1.
          2   -1    0    0  501    0  0.00000000000E+00 -0.00000000000E+00 -0.17918917753E+04  0.17918917753E+04  0.00000000000E+00 0. -1.
         23    2    1    2    0    0  0.34007556332E+03  0.65907323884E+03  0.82299977254E+02  0.75193791415E+03  0.92781558323E+02 0.  0.
        254    2    1    2    0    0 -0.34007556332E+03 -0.65907323884E+03 -0.12247217607E+04  0.16894238531E+04  0.89676119534E+03 0.  0.
        -24    2    4    4    0    0 -0.25823603692E+03 -0.87055678283E+03 -0.10582964122E+04  0.13968217933E+04  0.81023844313E+02 0.  0.
         24    2    4    4    0    0 -0.81839526400E+02  0.21148354399E+03 -0.16642534843E+03  0.29260205974E+03  0.80595107209E+02 0.  0.
         11    1    3    3    0    0  0.28011020518E+03  0.49460994492E+03  0.29883511434E+02  0.56920448778E+03  0.00000000000E+00 0.  1.
        -11    1    3    3    0    0  0.59965358146E+02  0.16446329392E+03  0.52416465819E+02  0.18273342637E+03  0.00000000000E+00 0. -1.
          4    1    6    6  502    0 -0.87801641287E+02  0.11847811275E+03 -0.10167670454E+03  0.17912103076E+03  0.00000000000E+00 0. -1.
          1    1    5    5  503    0 -0.21429973734E+03 -0.80241089530E+03 -0.96034007497E+03  0.12696616407E+04  0.00000000000E+00 0. -1.
         -2    1    5    5    0  503 -0.43936299579E+02 -0.68145887526E+02 -0.97956337259E+02  0.12716015263E+03  0.00000000000E+00 0.  1.
         -3    1    6    6    0  502  0.59621148865E+01  0.93005431243E+02 -0.64748643886E+02  0.11348102899E+03  0.00000000000E+00 0.  1.
<mgrwt>
<rscale>  0 0.21575727E+04</rscale>
<asrwt>0</asrwt>
<pdfrwt beam="1">  1        2 0.27567565E+00 0.21575727E+04</pdfrwt>
<pdfrwt beam="2">  1       -2 0.99918461E-01 0.21575727E+04</pdfrwt>
<totfact> 0.66185275E+00</totfact>
</mgrwt>
</event>
<event>
12    1  0.1549527E-007  0.1303766E+04  0.7818608E-02  0.9026584E-01
          1   -1    0    0  501    0  0.00000000000E+00  0.00000000000E+00  0.30277248323E+04  0.30277248323E+04  0.00000000000E+00 0. -1.
         -1   -1    0    0    0  501 -0.00000000000E+00 -0.00000000000E+00 -0.14035336503E+03  0.14035336503E+03  0.00000000000E+00 0.  1.
         23    2    1    2    0    0  0.12700963182E+03 -0.20573605199E+03  0.13212532921E+04  0.13462634356E+04  0.90863669399E+02 0.  0.
        254    2    1    2    0    0 -0.12700963182E+03  0.20573605199E+03  0.15661181752E+04  0.18218147618E+04  0.89879036372E+03 0.  0.
        -24    2    4    4    0    0 -0.40062533891E+03  0.32045421567E+03  0.13499157815E+04  0.14463318736E+04  0.80073121860E+02 0.  0.
         24    2    4    4    0    0  0.27361570709E+03 -0.11471816368E+03  0.21620239365E+03  0.37548288817E+03  0.78855006452E+02 0.  0.
         11    1    3    3    0    0  0.34315018961E+02 -0.58923925626E+02  0.62412506911E+03  0.62783887378E+03  0.00000000000E+00 0.  1.
        -11    1    3    3    0    0  0.92694612862E+02 -0.14681212637E+03  0.69712822299E+03  0.71842456180E+03  0.00000000000E+00 0. -1.
          2    1    6    6  502    0  0.69195126692E+02 -0.25257389896E+02  0.15309756764E+02  0.75234898515E+02  0.00000000000E+00 0. -1.
          1    1    5    5  503    0 -0.15510960061E+03  0.86117067280E+02  0.53165261123E+03  0.56047269024E+03  0.00000000000E+00 0. -1.
         -2    1    5    5    0  503 -0.24551573830E+03  0.23433714839E+03  0.81826317031E+03  0.88585918337E+03  0.00000000000E+00 0.  1.
         -1    1    6    6    0  502  0.20442058040E+03 -0.89460773783E+02  0.20089263688E+03  0.30024798965E+03  0.00000000000E+00 0.  1.
<mgrwt>
<rscale>  0 0.13037659E+04</rscale>
<asrwt>0</asrwt>
<pdfrwt beam="1">  1        1 0.46580377E+00 0.13037659E+04</pdfrwt>
<pdfrwt beam="2">  1       -1 0.21592828E-01 0.13037659E+04</pdfrwt>
<totfact> 0.10179616E+01</totfact>
</mgrwt>
</event>
<event>
12    1  0.1549527E-007  0.3579795E+04  0.7818608E-02  0.8095136E-01
         -2   -1    0    0    0  501 -0.00000000000E+00  0.00000000000E+00  0.94288715198E+03  0.94288715198E+03  0.00000000000E+00 0.  1.
          2   -1    0    0  501    0  0.00000000000E+00 -0.00000000000E+00 -0.33977907532E+04  0.33977907532E+04  0.00000000000E+00 0. -1.
         23    2    1    2    0    0 -0.36614585856E+03  0.11185607471E+04  0.29397175597E+03  0.12167731488E+04  0.94215538332E+02 0.  0.
        254    2    1    2    0    0  0.36614585856E+03 -0.11185607471E+04 -0.27488753572E+04  0.31239047564E+04  0.90400457021E+03 0.  0.
        -24    2    4    4    0    0  0.22631699555E+03 -0.58988523162E+03 -0.23693279566E+04  0.24534178614E+04  0.79751287958E+02 0.  0.
         24    2    4    4    0    0  0.13982886301E+03 -0.52867551548E+03 -0.37954740064E+03  0.67048689500E+03  0.80290319727E+02 0.  0.
         13    1    3    3    0    0 -0.31216795800E+03  0.92900182033E+03  0.27962065586E+03  0.10191569690E+04  0.00000000000E+00 0.  1.
        -13    1    3    3    0    0 -0.53977900552E+02  0.18955892676E+03  0.14351100103E+02  0.19761617985E+03  0.00000000000E+00 0. -1.
          2    1    6    6  502    0  0.77440434308E+02 -0.25136435745E+03 -0.13562410273E+03  0.29593066469E+03  0.00000000000E+00 0. -1.
          1    1    5    5  503    0  0.18764565241E+03 -0.51576558809E+03 -0.19460746032E+04  0.20219869915E+04  0.00000000000E+00 0. -1.
         -2    1    5    5    0  503  0.38671343138E+02 -0.74119643523E+02 -0.42325335339E+03  0.43143086989E+03  0.00000000000E+00 0.  1.
         -1    1    6    6    0  502  0.62388428698E+02 -0.27731115802E+03 -0.24392329791E+03  0.37455623031E+03  0.00000000000E+00 0.  1.
<mgrwt>
<rscale>  0 0.35797951E+04</rscale>
<asrwt>0</asrwt>
<pdfrwt beam="1">  1        2 0.52273704E+00 0.35797951E+04</pdfrwt>
<pdfrwt beam="2">  1       -2 0.14505956E+00 0.35797951E+04</pdfrwt>
<totfact> 0.25528597E-01</totfact>
</mgrwt>
</event>
<event>
12    1  0.1549527E-007  0.1393554E+04  0.7818608E-02  0.8958498E-01
         -2   -1    0    0    0  501 -0.00000000000E+00  0.00000000000E+00  0.37013747007E+03  0.37013747007E+03  0.00000000000E+00 0.  1.
          2   -1    0    0  501    0  0.00000000000E+00 -0.00000000000E+00 -0.13116691635E+04  0.13116691635E+04  0.00000000000E+00 0. -1.
         23    2    1    2    0    0  0.26441810982E+03 -0.23969665757E+02 -0.62966966572E+03  0.68951471938E+03  0.91952045309E+02 0.  0.
        254    2    1    2    0    0 -0.26441810982E+03  0.23969665757E+02 -0.31186202767E+03  0.99229191415E+03  0.90382179488E+03 0.  0.
        -24    2    4    4    0    0  0.12562619686E+03 -0.97390977719E+01 -0.52053636480E+03  0.54142331190E+03  0.79399648811E+02 0.  0.
         24    2    4    4    0    0 -0.39004430668E+03  0.33708763529E+02  0.20867433714E+03  0.45086860224E+03  0.80415642746E+02 0.  0.
         13    1    3    3    0    0  0.81478331844E+02  0.34838302047E+02 -0.21101107898E+03  0.22886262539E+03  0.00000000000E+00 0.  1.
        -13    1    3    3    0    0  0.18293977798E+03 -0.58807967805E+02 -0.41865858674E+03  0.46065209399E+03  0.00000000000E+00 0. -1.
          4    1    6    6  502    0 -0.36298881188E+03  0.42536724287E+02  0.21151757585E+03  0.42226761107E+03  0.00000000000E+00 0. -1.
          3    1    5    5  503    0  0.78685074386E+02 -0.34507596954E+02 -0.40867733877E+03  0.41761140119E+03  0.00000000000E+00 0. -1.
         -4    1    5    5    0  503  0.46941122470E+02  0.24768499183E+02 -0.11185902603E+03  0.12381191072E+03  0.00000000000E+00 0.  1.
         -3    1    6    6    0  502 -0.27055494792E+02 -0.88279607573E+01 -0.28432387124E+01  0.28600991170E+02  0.00000000000E+00 0.  1.
<mgrwt>
<rscale>  0 0.13935536E+04</rscale>
<asrwt>0</asrwt>
<pdfrwt beam="1">  1        2 0.20179526E+00 0.13935536E+04</pdfrwt>
<pdfrwt beam="2">  1       -2 0.56944226E-01 0.13935536E+04</pdfrwt>
<totfact> 0.45815131E+01</totfact>
</mgrwt>
</event>
<event>
12    1  0.1549527E-007  0.1374647E+04  0.7818608E-02  0.8972378E-01
          2   -1    0    0  501    0  0.00000000000E+00  0.00000000000E+00  0.28511362365E+04  0.28511362365E+04  0.00000000000E+00 0. -1.
         -2   -1    0    0    0  501 -0.00000000000E+00 -0.00000000000E+00 -0.16569304849E+03  0.16569304849E+03  0.00000000000E+00 0.  1.
         23    2    1    2    0    0 -0.11692618803E+03 -0.36575322446E+03  0.85483302425E+03  0.94199018381E+03  0.95701893331E+02 0.  0.
        254    2    1    2    0    0  0.11692618803E+03  0.36575322446E+03  0.18306101637E+04  0.20748391011E+04  0.89798472675E+03 0.  0.
        -24    2    4    4    0    0  0.28073730960E+03  0.41559216884E+03  0.44101376760E+03  0.67266160650E+03  0.80313173584E+02 0.  0.
         24    2    4    4    0    0 -0.16381112157E+03 -0.49838944382E+02  0.13895963961E+04  0.14021774946E+04  0.76194346542E+02 0.  0.
         11    1    3    3    0    0 -0.87075090871E+02 -0.18372757050E+03  0.54126449800E+03  0.57819127320E+03  0.00000000000E+00 0.  1.
        -11    1    3    3    0    0 -0.29851097158E+02 -0.18202565396E+03  0.31356852625E+03  0.36379891060E+03  0.00000000000E+00 0. -1.
          2    1    6    6  502    0 -0.81181415266E+02 -0.31854255491E+02  0.42341307539E+03  0.43230052995E+03  0.00000000000E+00 0. -1.
          3    1    5    5  503    0  0.26053880321E+03  0.33583626767E+03  0.38115623880E+03  0.57091728388E+03  0.00000000000E+00 0. -1.
         -4    1    5    5    0  503  0.20198506385E+02  0.79755901164E+02  0.59857528801E+02  0.10174432262E+03  0.00000000000E+00 0.  1.
         -1    1    6    6    0  502 -0.82629706301E+02 -0.17984688891E+02  0.96618332072E+03  0.96987696469E+03  0.00000000000E+00 0.  1.
<mgrwt>
<rscale>  0 0.13746468E+04</rscale>
<asrwt>0</asrwt>
<pdfrwt beam="1">  1        2 0.43863631E+00 0.13746468E+04</pdfrwt>
<pdfrwt beam="2">  1       -2 0.25491240E-01 0.13746468E+04</pdfrwt>
<totfact> 0.29289714E+01</totfact>
</mgrwt>
</event>
<event>
12    1  0.1549527E-007  0.2471060E+04  0.7818608E-02  0.8413369E-01
         -2   -1    0    0    0  501 -0.00000000000E+00  0.00000000000E+00  0.75025441774E+03  0.75025441774E+03  0.00000000000E+00 0. -1.
          2   -1    0    0  501    0  0.00000000000E+00 -0.00000000000E+00 -0.20346897003E+04  0.20346897003E+04  0.00000000000E+00 0.  1.
         23    2    1    2    0    0  0.31940491963E+03  0.10566633499E+04 -0.34891465723E+03  0.11615691195E+04  0.94575068884E+02 0.  0.
        254    2    1    2    0    0 -0.31940491963E+03 -0.10566633499E+04 -0.93552062537E+03  0.16233749985E+04  0.73592839837E+03 0.  0.
        -24    2    4    4    0    0 -0.51918552297E+03 -0.79399609125E+03 -0.84302908627E+03  0.12716237836E+04  0.79659315907E+02 0.  0.
         24    2    4    4    0    0  0.19978060334E+03 -0.26266725870E+03 -0.92491539103E+02  0.35175121490E+03  0.79169780297E+02 0.  0.
         11    1    3    3    0    0  0.88816966418E+02  0.17524558499E+03 -0.50371702873E+02  0.20282203291E+03  0.00000000000E+00 0.  1.
        -11    1    3    3    0    0  0.23058795321E+03  0.88141776496E+03 -0.29854295436E+03  0.95874708664E+03  0.00000000000E+00 0. -1.
          4    1    6    6  502    0  0.14730143811E+03 -0.18948598534E+03 -0.29407348198E+02  0.24180042274E+03  0.00000000000E+00 0. -1.
          3    1    5    5  503    0 -0.41896169725E+03 -0.66796916641E+03 -0.66393150937E+03  0.10307845362E+04  0.00000000000E+00 0. -1.
         -4    1    5    5    0  503 -0.10022382572E+03 -0.12602692484E+03 -0.17909757690E+03  0.24083924738E+03  0.00000000000E+00 0.  1.
         -3    1    6    6    0  502  0.52479165234E+02 -0.73181273361E+02 -0.63084190906E+02  0.10995079216E+03  0.00000000000E+00 0.  1.
<mgrwt>
<rscale>  0 0.24710604E+04</rscale>
<asrwt>0</asrwt>
<pdfrwt beam="1">  1        2 0.31302918E+00 0.24710604E+04</pdfrwt>
<pdfrwt beam="2">  1       -2 0.11542376E+00 0.24710604E+04</pdfrwt>
<totfact> 0.33384772E+00</totfact>
</mgrwt>
</event>
<event>
12    1  0.1549527E-007  0.1037263E+04  0.7818608E-02  0.9268594E-01
         -1   -1    0    0    0  501 -0.00000000000E+00  0.00000000000E+00  0.54000047450E+03  0.54000047450E+03  0.00000000000E+00 0.  1.
          1   -1    0    0  501    0  0.00000000000E+00 -0.00000000000E+00 -0.49810816093E+03  0.49810816093E+03  0.00000000000E+00 0. -1.
         23    2    1    2    0    0  0.10889146848E+03  0.23209167532E+01 -0.40558233528E+01  0.14211981566E+03  0.91207750429E+02 0.  0.
        254    2    1    2    0    0 -0.10889146848E+03 -0.23209167532E+01  0.45948136921E+02  0.89598881977E+03  0.88815651510E+03 0.  0.
        -24    2    4    4    0    0  0.30033690091E+03 -0.17070445370E+03 -0.17302690645E+03  0.39568196700E+03  0.85344268051E+02 0.  0.
         24    2    4    4    0    0 -0.40922836940E+03  0.16838353695E+03  0.21897504337E+03  0.50030685278E+03  0.80845553266E+02 0.  0.
         13    1    3    3    0    0  0.59716357942E+02 -0.41721723153E+02 -0.17102793833E+02  0.74828144075E+02  0.00000000000E+00 0. -1.
        -13    1    3    3    0    0  0.49175110541E+02  0.44042639906E+02  0.13046970480E+02  0.67291671590E+02  0.00000000000E+00 0.  1.
          4    1    6    6  502    0 -0.90082841515E+02  0.73281883888E+02  0.44546109284E+02  0.12437647967E+03  0.00000000000E+00 0. -1.
          3    1    5    5  503    0 -0.50111759179E+00  0.83633990796E+00  0.58316735087E+01  0.59126135672E+01  0.00000000000E+00 0. -1.
         -4    1    5    5    0  503  0.30083801851E+03 -0.17154079361E+03 -0.17885857996E+03  0.38976935343E+03  0.00000000000E+00 0.  1.
         -1    1    6    6    0  502 -0.31914552788E+03  0.95101653058E+02  0.17442893409E+03  0.37593037311E+03  0.00000000000E+00 0.  1.
<mgrwt>
<rscale>  0 0.10372630E+04</rscale>
<asrwt>0</asrwt>
<pdfrwt beam="1">  1        1 0.76632025E-01 0.10372630E+04</pdfrwt>
<pdfrwt beam="2">  1       -1 0.83076996E-01 0.10372630E+04</pdfrwt>
<totfact> 0.64163262E+01</totfact>
</mgrwt>
</event>
<event>
12    1  0.1549527E-007  0.1211553E+04  0.7818608E-02  0.9102804E-01
          1   -1    0    0  501    0  0.00000000000E+00  0.00000000000E+00  0.63193437326E+03  0.63193437326E+03  0.00000000000E+00 0. -1.
         -1   -1    0    0    0  501 -0.00000000000E+00 -0.00000000000E+00 -0.58070140866E+03  0.58070140866E+03  0.00000000000E+00 0.  1.
         23    2    1    2    0    0 -0.86855828058E+01 -0.17476203385E+03 -0.17241071908E+03  0.26887458821E+03  0.10932008192E+03 0.  0.
        254    2    1    2    0    0  0.86855828058E+01  0.17476203385E+03  0.22364368367E+03  0.94376119371E+03  0.90002860270E+03 0.  0.
        -24    2    4    4    0    0 -0.12739004436E+03  0.84498264725E+02 -0.32414332779E+03  0.36709370525E+03  0.79502901466E+02 0.  0.
         24    2    4    4    0    0  0.13607562716E+03  0.90263769121E+02  0.54778701146E+03  0.57666748846E+03  0.76227672156E+02 0.  0.
         13    1    3    3    0    0 -0.41622597039E+01  0.94636189281E+00  0.12826741410E+02  0.13518332067E+02  0.00000000000E+00 0. -1.
        -13    1    3    3    0    0 -0.45233231018E+01 -0.17570839574E+03 -0.18523746049E+03  0.25535625615E+03  0.00000000000E+00 0.  1.
          2    1    6    6  502    0  0.30511720090E+02  0.34993448050E+02  0.27641798006E+03  0.28028986099E+03  0.00000000000E+00 0. -1.
          3    1    5    5  503    0 -0.54793469465E+02  0.61626745985E+02 -0.23931148734E+03  0.25312085669E+03  0.00000000000E+00 0. -1.
         -4    1    5    5    0  503 -0.72596574892E+02  0.22871518739E+02 -0.84831840441E+02  0.11397284856E+03  0.00000000000E+00 0.  1.
         -1    1    6    6    0  502  0.10556390707E+03  0.55270321071E+02  0.27136903139E+03  0.29637762747E+03  0.00000000000E+00 0.  1.
<mgrwt>
<rscale>  0 0.12115530E+04</rscale>
<asrwt>0</asrwt>
<pdfrwt beam="1">  1        1 0.97220673E-01 0.12115530E+04</pdfrwt>
<pdfrwt beam="2">  1       -1 0.89338678E-01 0.12115530E+04</pdfrwt>
<totfact> 0.38573068E+01</totfact>
</mgrwt>
</event>
<event>
12    1  0.1549527E-007  0.2575218E+04  0.7818608E-02  0.8376668E-01
          1   -1    0    0  501    0  0.00000000000E+00  0.00000000000E+00  0.26435002738E+04  0.26435002738E+04  0.00000000000E+00 0. -1.
         -1   -1    0    0    0  501 -0.00000000000E+00 -0.00000000000E+00 -0.62717480606E+03  0.62717480606E+03  0.00000000000E+00 0.  1.
         23    2    1    2    0    0  0.46466349799E+03  0.11655850286E+03  0.21835075342E+04  0.22374725878E+04  0.95291018302E+02 0.  0.
        254    2    1    2    0    0 -0.46466349799E+03 -0.11655850286E+03 -0.16718206649E+03  0.10332024921E+04  0.90003305234E+03 0.  0.
        -24    2    4    4    0    0 -0.10407270058E+03 -0.47725407471E+03 -0.15081058895E+02  0.49505888595E+03  0.79077704787E+02 0.  0.
         24    2    4    4    0    0 -0.36059079742E+03  0.36069557184E+03 -0.15210100760E+03  0.53814360611E+03  0.79604054919E+02 0.  0.
         11    1    3    3    0    0  0.37588285044E+03  0.13188844650E+03  0.17792219840E+04  0.18232699602E+04  0.00000000000E+00 0. -1.
        -11    1    3    3    0    0  0.88780647548E+02 -0.15329943640E+02  0.40428555025E+03  0.41420262757E+03  0.00000000000E+00 0.  1.
          2    1    6    6  502    0 -0.67227855757E+02  0.11637890304E+03 -0.41928294687E+02  0.14078925939E+03  0.00000000000E+00 0. -1.
          3    1    5    5  503    0 -0.13519862383E+02 -0.21986696283E+02  0.15082178256E+02  0.29894373939E+02  0.00000000000E+00 0. -1.
         -4    1    5    5    0  503 -0.90552838194E+02 -0.45526737842E+03 -0.30163237151E+02  0.46516451201E+03  0.00000000000E+00 0.  1.
         -1    1    6    6    0  502 -0.29336294166E+03  0.24431666880E+03 -0.11017271291E+03  0.39735434673E+03  0.00000000000E+00 0.  1.
<mgrwt>
<rscale>  0 0.25752179E+04</rscale>
<asrwt>0</asrwt>
<pdfrwt beam="1">  1        1 0.40669234E+00 0.25752179E+04</pdfrwt>
<pdfrwt beam="2">  1       -1 0.96488433E-01 0.25752179E+04</pdfrwt>
<totfact> 0.98113070E-01</totfact>
</mgrwt>
</event>
<event>
12    1  0.1549527E-007  0.1539029E+04  0.7818608E-02  0.8858906E-01
         -2   -1    0    0    0  501 -0.00000000000E+00  0.00000000000E+00  0.18892623136E+04  0.18892623136E+04  0.00000000000E+00 0.  1.
          2   -1    0    0  501    0  0.00000000000E+00 -0.00000000000E+00 -0.31343070538E+03  0.31343070538E+03  0.00000000000E+00 0. -1.
         23    2    1    2    0    0  0.44770012196E+03 -0.37566890051E+02  0.19622724995E+03  0.49738109942E+03  0.83881785862E+02 0.  0.
        254    2    1    2    0    0 -0.44770012196E+03  0.37566890051E+02  0.13796043583E+04  0.17053119196E+04  0.89606578287E+03 0.  0.
        -24    2    4    4    0    0  0.17394544310E+03  0.25145295005E+03  0.28076204888E+03  0.42234987634E+03  0.77887654296E+02 0.  0.
         24    2    4    4    0    0 -0.62164556506E+03 -0.21388606000E+03  0.10988423094E+04  0.12829620433E+04  0.79666355751E+02 0.  0.
         11    1    3    3    0    0  0.12151167347E+03 -0.35484618609E+02  0.25205660414E+02  0.12907195770E+03  0.00000000000E+00 0. -1.
        -11    1    3    3    0    0  0.32618844849E+03 -0.20822714415E+01  0.17102158954E+03  0.36830914172E+03  0.00000000000E+00 0.  1.
          2    1    6    6  502    0 -0.61643102209E+03 -0.21814466406E+03  0.10756081156E+04  0.12587720675E+04  0.00000000000E+00 0. -1.
          3    1    5    5  503    0  0.91761216929E+02  0.95336928132E+02  0.78097603140E+02  0.15365053340E+03  0.00000000000E+00 0. -1.
         -4    1    5    5    0  503  0.82184226169E+02  0.15611602192E+03  0.20266444574E+03  0.26869934294E+03  0.00000000000E+00 0.  1.
         -1    1    6    6    0  502 -0.52145429745E+01  0.42586040657E+01  0.23234193799E+02  0.24189975785E+02  0.00000000000E+00 0.  1.
<mgrwt>
<rscale>  0 0.15390293E+04</rscale>
<asrwt>0</asrwt>
<pdfrwt beam="1">  1        2 0.48220110E-01 0.15390293E+04</pdfrwt>
<pdfrwt beam="2">  1       -2 0.29065573E+00 0.15390293E+04</pdfrwt>
<totfact> 0.36616207E+00</totfact>
</mgrwt>
</event>
<event>
12    1  0.1549527E-007  0.3785125E+04  0.7818608E-02  0.8049354E-01
         -2   -1    0    0    0  501 -0.00000000000E+00  0.00000000000E+00  0.35877728053E+04  0.35877728053E+04  0.00000000000E+00 0. -1.
          2   -1    0    0  501    0  0.00000000000E+00 -0.00000000000E+00 -0.99833339083E+03  0.99833339083E+03  0.00000000000E+00 0.  1.
         23    2    1    2    0    0 -0.26102689678E+02 -0.11300601264E+04 -0.44912629661E+03  0.12198943901E+04  0.93330879134E+02 0.  0.
        254    2    1    2    0    0  0.26102689678E+02  0.11300601264E+04  0.30385657111E+04  0.33662118060E+04  0.90597080662E+03 0.  0.
        -24    2    4    4    0    0  0.43871550942E+02 -0.12936146405E+03  0.59998402230E+03  0.62034537886E+03  0.78666769932E+02 0.  0.
         24    2    4    4    0    0 -0.17768861264E+02  0.12594215905E+04  0.24385816888E+04  0.27458664272E+04  0.81506488991E+02 0.  0.
         11    1    3    3    0    0 -0.30009503189E+02 -0.23242915015E+03 -0.12436798906E+03  0.26531354436E+03  0.00000000000E+00 0.  1.
        -11    1    3    3    0    0  0.39068135107E+01 -0.89763097630E+03 -0.32475830755E+03  0.95458084578E+03  0.00000000000E+00 0. -1.
          4    1    6    6  502    0 -0.32003863024E+01  0.31258259757E+03  0.53116991759E+03  0.61632751369E+03  0.00000000000E+00 0. -1.
          1    1    5    5  503    0  0.14927334823E+02 -0.45033251869E+02  0.38046537078E+03  0.38341194225E+03  0.00000000000E+00 0. -1.
         -2    1    5    5    0  503  0.28944216119E+02 -0.84328212186E+02  0.21951865153E+03  0.23693343661E+03  0.00000000000E+00 0.  1.
         -3    1    6    6    0  502 -0.14568474962E+02  0.94683899293E+03  0.19074117712E+04  0.21295389135E+04  0.00000000000E+00 0.  1.
<mgrwt>
<rscale>  0 0.37851253E+04</rscale>
<asrwt>0</asrwt>
<pdfrwt beam="1">  1        2 0.15358975E+00 0.37851253E+04</pdfrwt>
<pdfrwt beam="2">  1       -2 0.55196504E+00 0.37851253E+04</pdfrwt>
<totfact> 0.16888213E-02</totfact>
</mgrwt>
</event>
<event>
12    1  0.1549527E-007  0.1428628E+04  0.7818608E-02  0.8933353E-01
          1   -1    0    0  501    0  0.00000000000E+00  0.00000000000E+00  0.18020475244E+04  0.18020475244E+04  0.00000000000E+00 0. -1.
         -1   -1    0    0    0  501 -0.00000000000E+00 -0.00000000000E+00 -0.28314692286E+03  0.28314692286E+03  0.00000000000E+00 0.  1.
         23    2    1    2    0    0 -0.25280981702E+03  0.32198228200E+03  0.62763475585E+03  0.75491028521E+03  0.91535558511E+02 0.  0.
        254    2    1    2    0    0  0.25280981702E+03 -0.32198228200E+03  0.89126584574E+03  0.13302841621E+04  0.89873007663E+03 0.  0.
        -24    2    4    4    0    0 -0.22493329031E+03 -0.37067187276E+03  0.20019068911E+03  0.48452439105E+03  0.81822681277E+02 0.  0.
         24    2    4    4    0    0  0.47774310733E+03  0.48689590759E+02  0.69107515663E+03  0.84575977104E+03  0.84353810531E+02 0.  0.
         13    1    3    3    0    0 -0.24808371328E+03  0.27101219094E+03  0.53385602572E+03  0.64807051517E+03  0.00000000000E+00 0. -1.
        -13    1    3    3    0    0 -0.47261037392E+01  0.50970091059E+02  0.93778730131E+02  0.10683977005E+03  0.00000000000E+00 0.  1.
          4    1    6    6  502    0  0.32379581660E+03  0.62961778910E+00  0.41980979073E+03  0.53017392208E+03  0.00000000000E+00 0. -1.
          1    1    5    5  503    0 -0.16902588413E+02 -0.15663734447E+01  0.12705925944E+02  0.21203574579E+02  0.00000000000E+00 0. -1.
         -2    1    5    5    0  503 -0.20803070190E+03 -0.36910549931E+03  0.18748476316E+03  0.46332081647E+03  0.00000000000E+00 0.  1.
         -3    1    6    6    0  502  0.15394729074E+03  0.48059972970E+02  0.27126536590E+03  0.31558584896E+03  0.00000000000E+00 0.  1.
<mgrwt>
<rscale>  0 0.14286276E+04</rscale>
<asrwt>0</asrwt>
<pdfrwt beam="1">  1        1 0.27723807E+00 0.14286276E+04</pdfrwt>
<pdfrwt beam="2">  1       -1 0.43561066E-01 0.14286276E+04</pdfrwt>
<totfact> 0.20564128E+01</totfact>
</mgrwt>
</event>
<event>
12    1  0.1549527E-007  0.3035824E+04  0.7818608E-02  0.8233575E-01
         -2   -1    0    0    0  501 -0.00000000000E+00  0.00000000000E+00  0.27795467097E+04  0.27795467097E+04  0.00000000000E+00 0.  1.
          2   -1    0    0  501    0  0.00000000000E+00 -0.00000000000E+00 -0.82893235496E+03  0.82893235496E+03  0.00000000000E+00 0. -1.
         23    2    1    2    0    0 -0.34176796123E+03  0.30002071086E+03 -0.65858901475E+03  0.80547958729E+03  0.90775045705E+02 0.  0.
        254    2    1    2    0    0  0.34176796123E+03 -0.30002071086E+03  0.26092033695E+04  0.28029994774E+04  0.91763068851E+03 0.  0.
        -24    2    4    4    0    0  0.48046222413E+01  0.26178440049E+03  0.32066291691E+03  0.42091524455E+03  0.76097175278E+02 0.  0.
         24    2    4    4    0    0  0.33696333899E+03 -0.56180511135E+03  0.22885404526E+04  0.23820842328E+04  0.87969393253E+02 0.  0.
         11    1    3    3    0    0 -0.19326631892E+03  0.19113203646E+03 -0.46265378981E+03  0.53659282013E+03  0.00000000000E+00 0.  1.
        -11    1    3    3    0    0 -0.14850164231E+03  0.10888867440E+03 -0.19593522494E+03  0.26888676716E+03  0.00000000000E+00 0. -1.
          2    1    6    6  502    0  0.28788273731E+03 -0.49299265601E+03  0.18746128660E+04  0.19596151731E+04  0.00000000000E+00 0. -1.
          3    1    5    5  503    0 -0.53708307529E+01 -0.35616294694E+01  0.12972960377E+02  0.14485466109E+02  0.00000000000E+00 0. -1.
         -4    1    5    5    0  503  0.10175452994E+02  0.26534602996E+03  0.30768995653E+03  0.40642977845E+03  0.00000000000E+00 0.  1.
         -1    1    6    6    0  502  0.49080601686E+02 -0.68812455341E+02  0.41392758655E+03  0.42246905967E+03  0.00000000000E+00 0.  1.
<mgrwt>
<rscale>  0 0.30358236E+04</rscale>
<asrwt>0</asrwt>
<pdfrwt beam="1">  1        2 0.12752806E+00 0.30358236E+04</pdfrwt>
<pdfrwt beam="2">  1       -2 0.42762257E+00 0.30358236E+04</pdfrwt>
<totfact> 0.13669657E-01</totfact>
</mgrwt>
</event>
<event>
12    1  0.1549527E-007  0.1270248E+04  0.7818608E-02  0.9053498E-01
          2   -1    0    0  501    0  0.00000000000E+00  0.00000000000E+00  0.14943035022E+04  0.14943035022E+04  0.00000000000E+00 0. -1.
         -2   -1    0    0    0  501 -0.00000000000E+00 -0.00000000000E+00 -0.26994664011E+03  0.26994664011E+03  0.00000000000E+00 0.  1.
         23    2    1    2    0    0  0.14744656421E+02  0.11607623830E+03 -0.81707850115E+02  0.16960688066E+03  0.91647276040E+02 0.  0.
        254    2    1    2    0    0 -0.14744656421E+02 -0.11607623830E+03  0.13060647122E+04  0.15946432616E+04  0.90740894941E+03 0.  0.
        -24    2    4    4    0    0 -0.36148776773E+03 -0.10853888560E+03  0.11366088419E+04  0.12001655181E+04  0.77868577986E+02 0.  0.
         24    2    4    4    0    0  0.34674311130E+03 -0.75373527019E+01  0.16945587025E+03  0.39447774351E+03  0.81300684103E+02 0.  0.
         11    1    3    3    0    0  0.11468888065E+02 -0.14010221264E+02 -0.14202347429E+02  0.23011483346E+02  0.00000000000E+00 0. -1.
        -11    1    3    3    0    0  0.32757683566E+01  0.13008645956E+03 -0.67505502686E+02  0.14659539731E+03  0.00000000000E+00 0.  1.
          2    1    6    6  502    0  0.34724508297E+03 -0.62347168411E+01  0.17490191166E+03  0.38885562622E+03  0.00000000000E+00 0. -1.
          3    1    5    5  503    0 -0.31008574832E+03 -0.11583667106E+03  0.10238215326E+04  0.10760027121E+04  0.00000000000E+00 0. -1.
         -4    1    5    5    0  503 -0.51402019407E+02  0.72977854588E+01  0.11278730929E+03  0.12416280606E+03  0.00000000000E+00 0.  1.
         -1    1    6    6    0  502 -0.50197166813E+00 -0.13026358607E+01 -0.54460414070E+01  0.56221172834E+01  0.00000000000E+00 0.  1.
<mgrwt>
<rscale>  0 0.12702476E+04</rscale>
<asrwt>0</asrwt>
<pdfrwt beam="1">  1        2 0.22989284E+00 0.12702476E+04</pdfrwt>
<pdfrwt beam="2">  1       -2 0.41530253E-01 0.12702476E+04</pdfrwt>
<totfact> 0.68965789E+01</totfact>
</mgrwt>
</event>
<event>
12    1  0.1549527E-007  0.1467286E+04  0.7818608E-02  0.8906504E-01
          1   -1    0    0  501    0  0.00000000000E+00  0.00000000000E+00  0.35520906593E+04  0.35520906593E+04  0.00000000000E+00 0. -1.
         -1   -1    0    0    0  501 -0.00000000000E+00 -0.00000000000E+00 -0.15152541069E+03  0.15152541069E+03  0.00000000000E+00 0.  1.
         23    2    1    2    0    0  0.70056743367E+02  0.30778129190E+03  0.25537428211E+03  0.41628949132E+03  0.91889312145E+02 0.  0.
        254    2    1    2    0    0 -0.70056743367E+02 -0.30778129190E+03  0.31451909665E+04  0.32873265786E+04  0.90258104797E+03 0.  0.
        -24    2    4    4    0    0 -0.33720955705E+02 -0.49694670979E+03  0.89417516417E+03  0.10266480208E+04  0.79773423539E+02 0.  0.
         24    2    4    4    0    0 -0.36335787662E+02  0.18916541789E+03  0.22510158023E+04  0.22606785579E+04  0.80570187062E+02 0.  0.
         13    1    3    3    0    0  0.85480615585E+01  0.10553731259E+02  0.44952176387E+02  0.46959011508E+02  0.00000000000E+00 0. -1.
        -13    1    3    3    0    0  0.61508681808E+02  0.29722756064E+03  0.21042210572E+03  0.36933047981E+03  0.00000000000E+00 0.  1.
          2    1    6    6  502    0 -0.18949164870E+02  0.15918456095E+02  0.11795998210E+03  0.12052811070E+03  0.00000000000E+00 0. -1.
          3    1    5    5  503    0  0.12791713744E+02 -0.29397746136E+03  0.56748169564E+03  0.63923536402E+03  0.00000000000E+00 0. -1.
         -4    1    5    5    0  503 -0.46512669449E+02 -0.20296924843E+03  0.32669346853E+03  0.38741265675E+03  0.00000000000E+00 0.  1.
         -1    1    6    6    0  502 -0.17386622791E+02  0.17324696180E+03  0.21330558202E+04  0.21401504472E+04  0.00000000000E+00 0.  1.
<mgrwt>
<rscale>  0 0.14672859E+04</rscale>
<asrwt>0</asrwt>
<pdfrwt beam="1">  1        1 0.54647542E+00 0.14672859E+04</pdfrwt>
<pdfrwt beam="2">  1       -1 0.23311604E-01 0.14672859E+04</pdfrwt>
<totfact> 0.35259438E+00</totfact>
</mgrwt>
</event>
<event>
12    1  0.1549527E-007  0.1545765E+04  0.7818608E-02  0.8854577E-01
         -1   -1    0    0    0  501 -0.00000000000E+00  0.00000000000E+00  0.17809427261E+03  0.17809427261E+03  0.00000000000E+00 0.  1.
          1   -1    0    0  501    0  0.00000000000E+00 -0.00000000000E+00 -0.33541096647E+04  0.33541096647E+04  0.00000000000E+00 0. -1.
         23    2    1    2    0    0 -0.12596895853E+02 -0.31532627478E+03 -0.19827923543E+04  0.20098572641E+04  0.92039992036E+02 0.  0.
        254    2    1    2    0    0  0.12596895853E+02  0.31532627478E+03 -0.11932230378E+04  0.15223466732E+04  0.89116150858E+03 0.  0.
        -24    2    4    4    0    0 -0.36852488446E+03 -0.63842306906E+02 -0.64670029046E+03  0.75156297680E+03  0.82092702451E+02 0.  0.
         24    2    4    4    0    0  0.38112178032E+03  0.37916858168E+03 -0.54652274729E+03  0.77078369645E+03  0.79986052712E+02 0.  0.
         11    1    3    3    0    0  0.19705069288E+02 -0.12958130386E+02 -0.10622842914E+03  0.10881489814E+03  0.00000000000E+00 0.  1.
        -11    1    3    3    0    0 -0.32301965141E+02 -0.30236814439E+03 -0.18765639252E+04  0.19010423659E+04  0.00000000000E+00 0. -1.
          4    1    6    6  502    0  0.20841268307E+03  0.25758995339E+03 -0.35602176121E+03  0.48635370360E+03  0.00000000000E+00 0. -1.
          1    1    5    5  503    0 -0.69925854930E+02 -0.27870266470E+02 -0.19369876046E+03  0.20781142111E+03  0.00000000000E+00 0. -1.
         -2    1    5    5    0  503 -0.29859902953E+03 -0.35972040436E+02 -0.45300153001E+03  0.54375155569E+03  0.00000000000E+00 0.  1.
         -3    1    6    6    0  502  0.17270909725E+03  0.12157862829E+03 -0.19050098609E+03  0.28442999285E+03  0.00000000000E+00 0.  1.
<mgrwt>
<rscale>  0 0.15457655E+04</rscale>
<asrwt>0</asrwt>
<pdfrwt beam="1">  1        1 0.51601687E+00 0.15457655E+04</pdfrwt>
<pdfrwt beam="2">  1       -1 0.27399119E-01 0.15457655E+04</pdfrwt>
<totfact> 0.37746807E+00</totfact>
</mgrwt>
</event>
<event>
12    1  0.1549527E-007  0.2805791E+04  0.7818608E-02  0.8301473E-01
          1   -1    0    0  501    0  0.00000000000E+00  0.00000000000E+00  0.12456368727E+04  0.12456368727E+04  0.00000000000E+00 0. -1.
         -1   -1    0    0    0  501 -0.00000000000E+00 -0.00000000000E+00 -0.15800074208E+04  0.15800074208E+04  0.00000000000E+00 0.  1.
         23    2    1    2    0    0  0.60381892983E+03 -0.99052065173E+03 -0.58524662256E+03  0.13025130443E+04  0.91094235689E+02 0.  0.
        254    2    1    2    0    0 -0.60381892983E+03  0.99052065173E+03  0.25087607445E+03  0.15231312492E+04  0.95460019703E+03 0.  0.
        -24    2    4    4    0    0  0.19878829708E+03  0.18773653840E+02  0.13813434187E+03  0.25545003676E+03  0.79400174712E+02 0.  0.
         24    2    4    4    0    0 -0.80260722690E+03  0.97174699789E+03  0.11274173258E+03  0.12676812125E+04  0.76383045411E+02 0.  0.
         11    1    3    3    0    0  0.52604035397E+03 -0.91063715862E+03 -0.53994634265E+03  0.11821677299E+04  0.00000000000E+00 0.  1.
        -11    1    3    3    0    0  0.77778575861E+02 -0.79883493104E+02 -0.45300279918E+02  0.12034531438E+03  0.00000000000E+00 0. -1.
          2    1    6    6  502    0 -0.49267816182E+03  0.59360170215E+03  0.31634396255E+02  0.77207220320E+03  0.00000000000E+00 0. -1.
          1    1    5    5  503    0  0.93906544185E+02  0.29208212517E+02  0.10748071730E+03  0.14568343527E+03  0.00000000000E+00 0. -1.
         -2    1    5    5    0  503  0.10488175289E+03 -0.10434558678E+02  0.30653624567E+02  0.10976660149E+03  0.00000000000E+00 0.  1.
         -1    1    6    6    0  502 -0.30992906509E+03  0.37814529574E+03  0.81107336321E+02  0.49560900928E+03  0.00000000000E+00 0.  1.
<mgrwt>
<rscale>  0 0.28057908E+04</rscale>
<asrwt>0</asrwt>
<pdfrwt beam="1">  1        1 0.19163644E+00 0.28057908E+04</pdfrwt>
<pdfrwt beam="2">  1       -1 0.24307806E+00 0.28057908E+04</pdfrwt>
<totfact> 0.66281860E-01</totfact>
</mgrwt>
</event>
<event>
12    1  0.1815449E-007  0.1554845E+04  0.7818608E-02  0.8848779E-01
          2   -1    0    0  501    0  0.00000000000E+00  0.00000000000E+00  0.19693544650E+04  0.19693544650E+04  0.00000000000E+00 0. -1.
         -2   -1    0    0    0  501 -0.00000000000E+00 -0.00000000000E+00 -0.30689547274E+03  0.30689547274E+03  0.00000000000E+00 0.  1.
         23    2    1    2    0    0  0.15554460824E+02 -0.49298890041E+03  0.75198944272E+03  0.90422549103E+03  0.94104301079E+02 0.  0.
        254    2    1    2    0    0 -0.15554460824E+02  0.49298890041E+03  0.91046954953E+03  0.13720244467E+04  0.90012015007E+03 0.  0.
        -24    2    4    4    0    0  0.15333505429E+03  0.35870113223E+03 -0.34441252564E+02  0.39951100639E+03  0.79023434573E+02 0.  0.
         24    2    4    4    0    0 -0.16888951511E+03  0.13428776818E+03  0.94491080210E+03  0.97251344032E+03  0.79806607995E+02 0.  0.
         13    1    3    3    0    0 -0.15926677893E+02 -0.32025989858E+02  0.28254510781E+02  0.45581141655E+02  0.00000000000E+00 0.  1.
        -13    1    3    3    0    0  0.31481138717E+02 -0.46096291055E+03  0.72373493194E+03  0.85864434937E+03  0.00000000000E+00 0. -1.
          2    1    6    6  502    0 -0.53832426402E+02  0.53107699418E+02  0.18840999424E+03  0.20301892473E+03  0.00000000000E+00 0. -1.
          1    1    5    5  503    0  0.49230971187E+02  0.42759949055E+02 -0.99116081425E+01  0.65957120489E+02  0.00000000000E+00 0. -1.
         -2    1    5    5    0  503  0.10410408310E+03  0.31594118318E+03 -0.24529644422E+02  0.33355388590E+03  0.00000000000E+00 0.  1.
         -1    1    6    6    0  502 -0.11505708871E+03  0.81180068760E+02  0.75650080786E+03  0.76949451559E+03  0.00000000000E+00 0.  1.
<mgrwt>
<rscale>  0 0.15548453E+04</rscale>
<asrwt>0</asrwt>
<pdfrwt beam="1">  1        2 0.30297760E+00 0.15548453E+04</pdfrwt>
<pdfrwt beam="2">  1       -2 0.47214689E-01 0.15548453E+04</pdfrwt>
<totfact> 0.28433968E+01</totfact>
</mgrwt>
</event>
<event>
12    1  0.1549527E-007  0.2769278E+04  0.7818608E-02  0.8312870E-01
         -2   -1    0    0    0  501 -0.00000000000E+00  0.00000000000E+00  0.68395689103E+03  0.68395689103E+03  0.00000000000E+00 0.  1.
          2   -1    0    0  501    0  0.00000000000E+00 -0.00000000000E+00 -0.28031374556E+04  0.28031374556E+04  0.00000000000E+00 0. -1.
         23    2    1    2    0    0 -0.13318109954E+02 -0.83397786418E+03 -0.21016067325E+04  0.22629395692E+04  0.91914013367E+02 0.  0.
        254    2    1    2    0    0  0.13318109954E+02  0.83397786418E+03 -0.17573832143E+02  0.12241547775E+04  0.89585134350E+03 0.  0.
        -24    2    4    4    0    0 -0.26825110754E+03  0.54167020617E+03  0.32171729828E+03  0.68937544272E+03  0.79819872652E+02 0.  0.
         24    2    4    4    0    0  0.28156921749E+03  0.29230765801E+03 -0.33929113042E+03  0.53477933475E+03  0.78393077039E+02 0.  0.
         11    1    3    3    0    0 -0.34169992029E+02 -0.21796643564E+03 -0.48528890478E+03  0.53308749425E+03  0.00000000000E+00 0. -1.
        -11    1    3    3    0    0  0.20851882074E+02 -0.61601142854E+03 -0.16163178277E+04  0.17298520749E+04  0.00000000000E+00 0.  1.
          2    1    6    6  502    0  0.12754502306E+03  0.80148473191E+02 -0.11060366810E+03  0.18688146527E+03  0.00000000000E+00 0. -1.
          1    1    5    5  503    0 -0.54213993000E+02  0.13213057150E+03  0.11399596264E+03  0.18273676275E+03  0.00000000000E+00 0. -1.
         -2    1    5    5    0  503 -0.21403711454E+03  0.40953963467E+03  0.20772133563E+03  0.50663867997E+03  0.00000000000E+00 0.  1.
         -1    1    6    6    0  502  0.15402419443E+03  0.21215918482E+03 -0.22868746232E+03  0.34789786949E+03  0.00000000000E+00 0.  1.
<mgrwt>
<rscale>  0 0.27692780E+04</rscale>
<asrwt>0</asrwt>
<pdfrwt beam="1">  1        2 0.43125192E+00 0.27692780E+04</pdfrwt>
<pdfrwt beam="2">  1       -2 0.10522414E+00 0.27692780E+04</pdfrwt>
<totfact> 0.14682718E+00</totfact>
</mgrwt>
</event>
<event>
12    1  0.1549527E-007  0.1239013E+04  0.7818608E-02  0.9079378E-01
          2   -1    0    0  501    0  0.00000000000E+00  0.00000000000E+00  0.15159224086E+04  0.15159224086E+04  0.00000000000E+00 0. -1.
         -2   -1    0    0    0  501 -0.00000000000E+00 -0.00000000000E+00 -0.25317136602E+03  0.25317136602E+03  0.00000000000E+00 0.  1.
         23    2    1    2    0    0  0.10935384097E+03  0.29146687545E+02 -0.63562212146E+02  0.15899921251E+03  0.91830293677E+02 0.  0.
        254    2    1    2    0    0 -0.10935384097E+03 -0.29146687545E+02  0.13263132548E+04  0.16100945621E+04  0.90580895190E+03 0.  0.
        -24    2    4    4    0    0  0.22294352992E+03 -0.24039300739E+03  0.15319848185E+03  0.37008205877E+03  0.77448949943E+02 0.  0.
         24    2    4    4    0    0 -0.33229737089E+03  0.21124631984E+03  0.11731147729E+04  0.12400125034E+04  0.79913626705E+02 0.  0.
         11    1    3    3    0    0  0.92302796885E+02  0.59763377423E+02 -0.54878917112E+02  0.12289492722E+03  0.00000000000E+00 0.  1.
        -11    1    3    3    0    0  0.17051044081E+02 -0.30616689878E+02 -0.86832950336E+01  0.36104285285E+02  0.00000000000E+00 0. -1.
          2    1    6    6  502    0 -0.49989687288E+02  0.91239846194E+01  0.21510850243E+03  0.22102914683E+03  0.00000000000E+00 0. -1.
          1    1    5    5  503    0  0.12029969711E+03 -0.88683742774E+02  0.98211717282E+02  0.17883613943E+03  0.00000000000E+00 0. -1.
         -2    1    5    5    0  503  0.10264383282E+03 -0.15170926461E+03  0.54986764564E+02  0.19124591933E+03  0.00000000000E+00 0.  1.
         -1    1    6    6    0  502 -0.28230768360E+03  0.20212233522E+03  0.95800627048E+03  0.10189833565E+04  0.00000000000E+00 0.  1.
<mgrwt>
<rscale>  0 0.12390127E+04</rscale>
<asrwt>0</asrwt>
<pdfrwt beam="1">  1        2 0.23321883E+00 0.12390127E+04</pdfrwt>
<pdfrwt beam="2">  1       -2 0.38949442E-01 0.12390127E+04</pdfrwt>
<totfact> 0.76206547E+01</totfact>
</mgrwt>
</event>
<event>
12    1  0.1549527E-007  0.1854342E+04  0.7818608E-02  0.8677923E-01
          1   -1    0    0  501    0  0.00000000000E+00  0.00000000000E+00  0.13057406412E+04  0.13057406412E+04  0.00000000000E+00 0. -1.
         -1   -1    0    0    0  501 -0.00000000000E+00 -0.00000000000E+00 -0.65835923703E+03  0.65835923703E+03  0.00000000000E+00 0.  1.
         23    2    1    2    0    0 -0.64075223423E+03 -0.15814548098E+03  0.51446186211E+03  0.84154604039E+03  0.89192554145E+02 0.  0.
        254    2    1    2    0    0  0.64075223423E+03  0.15814548098E+03  0.13291954203E+03  0.11225538378E+04  0.89826838712E+03 0.  0.
        -24    2    4    4    0    0  0.63009378318E+03  0.33143209265E+03  0.37938572056E+03  0.81065639412E+03  0.79780052144E+02 0.  0.
         24    2    4    4    0    0  0.10658451050E+02 -0.17328661168E+03 -0.24646617853E+03  0.31189744369E+03  0.79953648146E+02 0.  0.
         13    1    3    3    0    0 -0.43936281791E+03 -0.13327034877E+03  0.31347914982E+03  0.55594050850E+03  0.00000000000E+00 0. -1.
        -13    1    3    3    0    0 -0.20138941632E+03 -0.24875132206E+02  0.20098271229E+03  0.28560553189E+03  0.00000000000E+00 0.  1.
          2    1    6    6  502    0  0.22753562030E+01 -0.17873653199E+03 -0.21912688331E+03  0.28278705081E+03  0.00000000000E+00 0. -1.
          1    1    5    5  503    0  0.39534570512E+03  0.19726693305E+03  0.27732254638E+03  0.52165147768E+03  0.00000000000E+00 0. -1.
         -2    1    5    5    0  503  0.23474807806E+03  0.13416515960E+03  0.10206317418E+03  0.28900491644E+03  0.00000000000E+00 0.  1.
         -1    1    6    6    0  502  0.83830948470E+01  0.54499203088E+01 -0.27339295219E+02  0.29110392880E+02  0.00000000000E+00 0.  1.
<mgrwt>
<rscale>  0 0.18543424E+04</rscale>
<asrwt>0</asrwt>
<pdfrwt beam="1">  1        1 0.20088317E+00 0.18543424E+04</pdfrwt>
<pdfrwt beam="2">  1       -1 0.10128604E+00 0.18543424E+04</pdfrwt>
<totfact> 0.77896944E+00</totfact>
</mgrwt>
</event>
<event>
12    1  0.1549527E-007  0.1222436E+04  0.7818608E-02  0.9093442E-01
          2   -1    0    0  501    0  0.00000000000E+00  0.00000000000E+00  0.66464005297E+03  0.66464005297E+03  0.00000000000E+00 0. -1.
         -2   -1    0    0    0  501 -0.00000000000E+00 -0.00000000000E+00 -0.56208984544E+03  0.56208984544E+03  0.00000000000E+00 0.  1.
         23    2    1    2    0    0 -0.10447764391E+03 -0.13706535133E+03 -0.17836151799E+03  0.26469943902E+03  0.92468769362E+02 0.  0.
        254    2    1    2    0    0  0.10447764391E+03  0.13706535133E+03  0.28091172553E+03  0.96203045938E+03  0.90381896342E+03 0.  0.
        -24    2    4    4    0    0  0.15221414256E+02 -0.27359273426E+03  0.42374187643E+03  0.51090511158E+03  0.79888544255E+02 0.  0.
         24    2    4    4    0    0  0.89256229652E+02  0.41065808560E+03 -0.14283015090E+03  0.45112534781E+03  0.80665293823E+02 0.  0.
         13    1    3    3    0    0 -0.11941232192E+03 -0.10653298624E+03 -0.13340217796E+03  0.20833799670E+03  0.00000000000E+00 0.  1.
        -13    1    3    3    0    0  0.14934678008E+02 -0.30532365090E+02 -0.44959340031E+02  0.56361442327E+02  0.00000000000E+00 0. -1.
          4    1    6    6  502    0  0.25338884176E+02  0.34426895357E+02 -0.33032187848E+02  0.54022177013E+02  0.00000000000E+00 0. -1.
          3    1    5    5  503    0  0.41851722232E+02 -0.85275165715E+02  0.13136663619E+03  0.16211296569E+03  0.00000000000E+00 0. -1.
         -4    1    5    5    0  503 -0.26630307976E+02 -0.18831756855E+03  0.29237524024E+03  0.34879214589E+03  0.00000000000E+00 0.  1.
         -3    1    6    6    0  502  0.63917345476E+02  0.37623119024E+03 -0.10979796305E+03  0.39710317079E+03  0.00000000000E+00 0.  1.
<mgrwt>
<rscale>  0 0.12224360E+04</rscale>
<asrwt>0</asrwt>
<pdfrwt beam="1">  1        2 0.10225232E+00 0.12224360E+04</pdfrwt>
<pdfrwt beam="2">  1       -2 0.86475361E-01 0.12224360E+04</pdfrwt>
<totfact> 0.49942947E+01</totfact>
</mgrwt>
</event>
<event>
12    1  0.1549527E-007  0.1636554E+04  0.7818608E-02  0.8798401E-01
          1   -1    0    0  501    0  0.00000000000E+00  0.00000000000E+00  0.81268973796E+03  0.81268973796E+03  0.00000000000E+00 0. -1.
         -1   -1    0    0    0  501 -0.00000000000E+00 -0.00000000000E+00 -0.82390290563E+03  0.82390290563E+03  0.00000000000E+00 0.  1.
         23    2    1    2    0    0  0.41918711696E+03 -0.37692873104E+03 -0.18126735467E+01  0.57101659594E+03  0.90904123900E+02 0.  0.
        254    2    1    2    0    0 -0.41918711696E+03  0.37692873104E+03 -0.94004941251E+01  0.10655760477E+04  0.90419623795E+03 0.  0.
        -24    2    4    4    0    0 -0.45620328285E+02  0.52458689965E+03  0.24228501042E+03  0.58494834952E+03  0.78676017271E+02 0.  0.
         24    2    4    4    0    0 -0.37356678868E+03 -0.14765816860E+03 -0.25168550455E+03  0.48062769813E+03  0.79387093739E+02 0.  0.
         13    1    3    3    0    0  0.43740179719E+02 -0.65751025349E+02 -0.24979601060E+02  0.82827417716E+02  0.00000000000E+00 0. -1.
        -13    1    3    3    0    0  0.37544693725E+03 -0.31117770570E+03  0.23166927513E+02  0.48818917823E+03  0.00000000000E+00 0.  1.
          2    1    6    6  502    0 -0.34576646476E+03 -0.15096396960E+03 -0.24996591682E+03  0.45257875319E+03  0.00000000000E+00 0. -1.
          1    1    5    5  503    0 -0.40861767334E+01  0.41526559996E+03  0.19531628956E+03  0.45892337957E+03  0.00000000000E+00 0. -1.
         -2    1    5    5    0  503 -0.41534151551E+02  0.10932129969E+03  0.46968720865E+02  0.12602496995E+03  0.00000000000E+00 0.  1.
         -1    1    6    6    0  502 -0.27800323923E+02  0.33058009931E+01 -0.17195877273E+01  0.28048944943E+02  0.00000000000E+00 0.  1.
<mgrwt>
<rscale>  0 0.16365542E+04</rscale>
<asrwt>0</asrwt>
<pdfrwt beam="1">  1        1 0.12502919E+00 0.16365542E+04</pdfrwt>
<pdfrwt beam="2">  1       -1 0.12675429E+00 0.16365542E+04</pdfrwt>
<totfact> 0.11147259E+01</totfact>
</mgrwt>
</event>
<event>
12    1  0.1549527E-007  0.2286577E+04  0.7818608E-02  0.8483233E-01
          2   -1    0    0  501    0  0.00000000000E+00  0.00000000000E+00  0.13430655458E+04  0.13430655458E+04  0.00000000000E+00 0. -1.
         -2   -1    0    0    0  501 -0.00000000000E+00 -0.00000000000E+00 -0.97322727898E+03  0.97322727898E+03  0.00000000000E+00 0.  1.
         23    2    1    2    0    0  0.22070527511E+03  0.81503075366E+03 -0.31763292419E+03  0.90639734868E+03  0.87632934943E+02 0.  0.
        254    2    1    2    0    0 -0.22070527511E+03 -0.81503075366E+03  0.68747119103E+03  0.14098954761E+04  0.89565767300E+03 0.  0.
        -24    2    4    4    0    0 -0.33886588801E+03  0.51965241708E+02  0.19868803582E+03  0.40423384442E+03  0.79984929785E+02 0.  0.
         24    2    4    4    0    0  0.11816061290E+03 -0.86699599537E+03  0.48878315521E+03  0.10056616317E+04  0.82476410069E+02 0.  0.
         11    1    3    3    0    0  0.20109971052E+03  0.73018986919E+03 -0.31204965617E+03  0.81914182322E+03  0.00000000000E+00 0. -1.
        -11    1    3    3    0    0  0.19605564587E+02  0.84840884474E+02 -0.55832680252E+01  0.87255525458E+02  0.00000000000E+00 0.  1.
          2    1    6    6  502    0  0.12163116581E+03 -0.83703972528E+03  0.45525215197E+03  0.96056450281E+03  0.00000000000E+00 0. -1.
          3    1    5    5  503    0 -0.19651547088E+03  0.43657034768E+02  0.15812503716E+03  0.25598397285E+03  0.00000000000E+00 0. -1.
         -4    1    5    5    0  503 -0.14235041713E+03  0.83082069403E+01  0.40562998664E+02  0.14824987157E+03  0.00000000000E+00 0.  1.
         -1    1    6    6    0  502 -0.34705529071E+01 -0.29956270094E+02  0.33531003237E+02  0.45097128883E+02  0.00000000000E+00 0.  1.
<mgrwt>
<rscale>  0 0.22865765E+04</rscale>
<asrwt>0</asrwt>
<pdfrwt beam="1">  1        2 0.20662547E+00 0.22865765E+04</pdfrwt>
<pdfrwt beam="2">  1       -2 0.14972727E+00 0.22865765E+04</pdfrwt>
<totfact> 0.42648238E+00</totfact>
</mgrwt>
</event>
<event>
12    1  0.1549527E-007  0.1189899E+04  0.7818608E-02  0.9121744E-01
         -2   -1    0    0    0  501 -0.00000000000E+00  0.00000000000E+00  0.14477187365E+03  0.14477187365E+03  0.00000000000E+00 0.  1.
          2   -1    0    0  501    0  0.00000000000E+00 -0.00000000000E+00 -0.24449835715E+04  0.24449835715E+04  0.00000000000E+00 0. -1.
         23    2    1    2    0    0  0.78077061385E+02 -0.16227240748E+03 -0.14248332974E+03  0.24700345891E+03  0.90999163267E+02 0.  0.
        254    2    1    2    0    0 -0.78077061385E+02  0.16227240748E+03 -0.21577283681E+04  0.23427519862E+04  0.89457632249E+03 0.  0.
        -24    2    4    4    0    0 -0.44133848428E+03 -0.77612220704E+02 -0.13011972101E+04  0.13785381930E+04  0.80312236395E+02 0.  0.
         24    2    4    4    0    0  0.36326142290E+03  0.23988462819E+03 -0.85653115794E+03  0.96421379324E+03  0.80988383990E+02 0.  0.
         11    1    3    3    0    0  0.60711731637E+02 -0.82012424089E+02 -0.12787519713E+03  0.16359712132E+03  0.00000000000E+00 0. -1.
        -11    1    3    3    0    0  0.17365329748E+02 -0.80259983395E+02 -0.14608132610E+02  0.83406337590E+02  0.00000000000E+00 0.  1.
          4    1    6    6  502    0  0.13452966031E+03  0.44429673345E+02 -0.28938411308E+03  0.32220395758E+03  0.00000000000E+00 0. -1.
          3    1    5    5  503    0 -0.28782415499E+03 -0.11398144381E+02 -0.81779297596E+03  0.86703979921E+03  0.00000000000E+00 0. -1.
         -4    1    5    5    0  503 -0.15351432929E+03 -0.66214076322E+02 -0.48340423419E+03  0.51149839378E+03  0.00000000000E+00 0.  1.
         -3    1    6    6    0  502  0.22873176259E+03  0.19545495484E+03 -0.56714704486E+03  0.64200983566E+03  0.00000000000E+00 0.  1.
<mgrwt>
<rscale>  0 0.11898989E+04</rscale>
<asrwt>0</asrwt>
<pdfrwt beam="1">  1        2 0.37615130E+00 0.11898989E+04</pdfrwt>
<pdfrwt beam="2">  1       -2 0.22272597E-01 0.11898989E+04</pdfrwt>
<totfact> 0.65711208E+01</totfact>
</mgrwt>
</event>
<event>
12    1  0.1549527E-007  0.1452873E+04  0.7818608E-02  0.8916411E-01
          1   -1    0    0  501    0  0.00000000000E+00  0.00000000000E+00  0.65761052002E+03  0.65761052002E+03  0.00000000000E+00 0. -1.
         -1   -1    0    0    0  501 -0.00000000000E+00 -0.00000000000E+00 -0.80246616858E+03  0.80246616858E+03  0.00000000000E+00 0.  1.
         23    2    1    2    0    0  0.41973287960E+03  0.14524127505E+03 -0.71765511295E+02  0.45942849253E+03  0.93024367462E+02 0.  0.
        254    2    1    2    0    0 -0.41973287960E+03 -0.14524127505E+03 -0.73090137262E+02  0.10006481961E+04  0.89369118040E+03 0.  0.
        -24    2    4    4    0    0 -0.57890503555E+03 -0.22299917470E+03  0.20753580195E+03  0.65899695309E+03  0.79663059119E+02 0.  0.
         24    2    4    4    0    0  0.15917215595E+03  0.77757899652E+02 -0.28062593921E+03  0.34165124297E+03  0.81194752772E+02 0.  0.
         13    1    3    3    0    0  0.16581660388E+03  0.59703237535E+02  0.17279616924E+02  0.17708248885E+03  0.00000000000E+00 0. -1.
        -13    1    3    3    0    0  0.25391627572E+03  0.85538037511E+02 -0.89045128219E+02  0.28234600368E+03  0.00000000000E+00 0.  1.
          4    1    6    6  502    0  0.42935365477E+02  0.14742629370E+02 -0.20414927831E+02  0.49775094252E+02  0.00000000000E+00 0. -1.
          3    1    5    5  503    0 -0.16089942382E+00  0.34316176828E+01 -0.82916326440E+00  0.35340345591E+01  0.00000000000E+00 0. -1.
         -4    1    5    5    0  503 -0.57874413613E+03 -0.22643079238E+03  0.20836496522E+03  0.65546291853E+03  0.00000000000E+00 0.  1.
         -3    1    6    6    0  502  0.11623679047E+03  0.63015270281E+02 -0.26021101138E+03  0.29187614872E+03  0.00000000000E+00 0.  1.
<mgrwt>
<rscale>  0 0.14528733E+04</rscale>
<asrwt>0</asrwt>
<pdfrwt beam="1">  1        1 0.10117085E+00 0.14528733E+04</pdfrwt>
<pdfrwt beam="2">  1       -1 0.12345633E+00 0.14528733E+04</pdfrwt>
<totfact> 0.16781707E+01</totfact>
</mgrwt>
</event>
<event>
12    1  0.1549527E-007  0.2251327E+04  0.7818608E-02  0.8497363E-01
          2   -1    0    0  501    0  0.00000000000E+00  0.00000000000E+00  0.18589351601E+04  0.18589351601E+04  0.00000000000E+00 0. -1.
         -2   -1    0    0    0  501 -0.00000000000E+00 -0.00000000000E+00 -0.68163671719E+03  0.68163671719E+03  0.00000000000E+00 0.  1.
         23    2    1    2    0    0 -0.51065841012E+03  0.25121089537E+03  0.13418582715E+04  0.14611875308E+04  0.10298763772E+03 0.  0.
        254    2    1    2    0    0  0.51065841012E+03 -0.25121089537E+03 -0.16455982863E+03  0.10793843465E+04  0.90228138872E+03 0.  0.
        -24    2    4    4    0    0  0.67756355271E+03 -0.19763001684E+03 -0.36730366694E+03  0.79960880385E+03  0.79449757289E+02 0.  0.
         24    2    4    4    0    0 -0.16690514259E+03 -0.53580878531E+02  0.20274383830E+03  0.27977554263E+03  0.80256171822E+02 0.  0.
         11    1    3    3    0    0 -0.41795491230E+03  0.24255004123E+03  0.11668024351E+04  0.12629112217E+04  0.00000000000E+00 0. -1.
        -11    1    3    3    0    0 -0.92703497816E+02  0.86608541381E+01  0.17505583639E+03  0.19827630911E+03  0.00000000000E+00 0.  1.
          4    1    6    6  502    0 -0.14391943962E+03 -0.11080536341E+02  0.14737407640E+03  0.20628790992E+03  0.00000000000E+00 0. -1.
          1    1    5    5  503    0  0.38781031843E+03 -0.12589781929E+03 -0.16976187521E+03  0.44166299172E+03  0.00000000000E+00 0. -1.
         -2    1    5    5    0  503  0.28975323428E+03 -0.71732197552E+02 -0.19754179173E+03  0.35794581213E+03  0.00000000000E+00 0.  1.
         -3    1    6    6    0  502 -0.22985702972E+02 -0.42500342189E+02  0.55369761909E+02  0.73487632709E+02  0.00000000000E+00 0.  1.
<mgrwt>
<rscale>  0 0.22513271E+04</rscale>
<asrwt>0</asrwt>
<pdfrwt beam="1">  1        2 0.28599002E+00 0.22513271E+04</pdfrwt>
<pdfrwt beam="2">  1       -2 0.10486719E+00 0.22513271E+04</pdfrwt>
<totfact> 0.53707751E+00</totfact>
</mgrwt>
</event>
<event>
12    1  0.1549527E-007  0.1209069E+04  0.7818608E-02  0.9104956E-01
          2   -1    0    0  501    0  0.00000000000E+00  0.00000000000E+00  0.17726310815E+04  0.17726310815E+04  0.00000000000E+00 0.  1.
         -2   -1    0    0    0  501 -0.00000000000E+00 -0.00000000000E+00 -0.20616913165E+03  0.20616913165E+03  0.00000000000E+00 0. -1.
         23    2    1    2    0    0  0.23031095713E+03  0.90836543080E+02  0.43241909478E+03  0.50684701504E+03  0.92807373594E+02 0.  0.
        254    2    1    2    0    0 -0.23031095713E+03 -0.90836543080E+02  0.11340428551E+04  0.14719531981E+04  0.90515115080E+03 0.  0.
        -24    2    4    4    0    0 -0.35801774760E+03 -0.40379767343E+03  0.90234034038E+03  0.10544429760E+04  0.80016442165E+02 0.  0.
         24    2    4    4    0    0  0.12770679047E+03  0.31296113035E+03  0.23170251472E+03  0.41751022218E+03  0.79843827926E+02 0.  0.
         11    1    3    3    0    0  0.22984159980E+03  0.66255116651E+02  0.40138180600E+03  0.46725181184E+03  0.00000000000E+00 0. -1.
        -11    1    3    3    0    0  0.46935732763E+00  0.24581426429E+02  0.31037288781E+02  0.39595203200E+02  0.00000000000E+00 0.  1.
          2    1    6    6  502    0  0.64195803572E+02  0.23203462309E+03  0.18921876955E+03  0.30621056523E+03  0.00000000000E+00 0. -1.
          1    1    5    5  503    0 -0.25019288369E+03 -0.26750647207E+03  0.53889628947E+03  0.65158683416E+03  0.00000000000E+00 0. -1.
         -2    1    5    5    0  503 -0.10782486391E+03 -0.13629120136E+03  0.36344405091E+03  0.40285614180E+03  0.00000000000E+00 0.  1.
         -1    1    6    6    0  502  0.63510986897E+02  0.80926507256E+02  0.42483745168E+02  0.11129965695E+03  0.00000000000E+00 0.  1.
<mgrwt>
<rscale>  0 0.12090688E+04</rscale>
<asrwt>0</asrwt>
<pdfrwt beam="1">  1        2 0.27271246E+00 0.12090688E+04</pdfrwt>
<pdfrwt beam="2">  1       -2 0.31718329E-01 0.12090688E+04</pdfrwt>
<totfact> 0.81407212E+01</totfact>
</mgrwt>
</event>
<event>
12    1  0.1549527E-007  0.1218105E+04  0.7818608E-02  0.9097156E-01
         -2   -1    0    0    0  501 -0.00000000000E+00  0.00000000000E+00  0.24195125940E+03  0.24195125940E+03  0.00000000000E+00 0.  1.
          2   -1    0    0  501    0  0.00000000000E+00 -0.00000000000E+00 -0.15331383400E+04  0.15331383400E+04  0.00000000000E+00 0. -1.
         23    2    1    2    0    0  0.14189459974E+03 -0.17467386593E+03 -0.10471988601E+03  0.26440861751E+03  0.91107769234E+02 0.  0.
        254    2    1    2    0    0 -0.14189459974E+03  0.17467386593E+03 -0.11864671946E+04  0.15106809819E+04  0.90763846783E+03 0.  0.
        -24    2    4    4    0    0  0.26149085717E+03 -0.17005935128E+03 -0.75905488290E+03  0.82459569855E+03  0.80598383781E+02 0.  0.
         24    2    4    4    0    0 -0.40338545691E+03  0.34473321721E+03 -0.42741231166E+03  0.68608528331E+03  0.80441991017E+02 0.  0.
         11    1    3    3    0    0  0.14704227674E+02  0.10532784404E+02 -0.68188233307E+01  0.19330033896E+02  0.00000000000E+00 0.  1.
        -11    1    3    3    0    0  0.12719037207E+03 -0.18520665033E+03 -0.97901062681E+02  0.24507858362E+03  0.00000000000E+00 0. -1.
          2    1    6    6  502    0 -0.30678780262E+03  0.27859115677E+03 -0.29126350268E+03  0.50652365835E+03  0.00000000000E+00 0. -1.
          1    1    5    5  503    0  0.20811055949E+03 -0.14839149619E+03 -0.53008884788E+03  0.58849318412E+03  0.00000000000E+00 0. -1.
         -2    1    5    5    0  503  0.53380297679E+02 -0.21667855090E+02 -0.22896603503E+03  0.23610251443E+03  0.00000000000E+00 0.  1.
         -1    1    6    6    0  502 -0.96597654285E+02  0.66142060438E+02 -0.13614880898E+03  0.17956162496E+03  0.00000000000E+00 0.  1.
<mgrwt>
<rscale>  0 0.12181047E+04</rscale>
<asrwt>0</asrwt>
<pdfrwt beam="1">  1        2 0.23586744E+00 0.12181047E+04</pdfrwt>
<pdfrwt beam="2">  1       -2 0.37223271E-01 0.12181047E+04</pdfrwt>
<totfact> 0.81496352E+01</totfact>
</mgrwt>
</event>
<event>
12    1  0.1549527E-007  0.2386508E+04  0.7818608E-02  0.8444572E-01
          2   -1    0    0  501    0  0.00000000000E+00  0.00000000000E+00  0.18782952799E+04  0.18782952799E+04  0.00000000000E+00 0. -1.
         -2   -1    0    0    0  501 -0.00000000000E+00 -0.00000000000E+00 -0.75805721832E+03  0.75805721832E+03  0.00000000000E+00 0.  1.
         23    2    1    2    0    0 -0.78470469029E+03 -0.31318369404E+02  0.11949403759E+04  0.14328116513E+04  0.91238341259E+02 0.  0.
        254    2    1    2    0    0  0.78470469029E+03  0.31318369404E+02 -0.74702314253E+02  0.12035408470E+04  0.90894875728E+03 0.  0.
        -24    2    4    4    0    0  0.12392225674E+03  0.38688151884E+03 -0.16074742283E+03  0.44382314015E+03  0.78135846144E+02 0.  0.
         24    2    4    4    0    0  0.66078243355E+03 -0.35556314944E+03  0.86045108579E+02  0.75971770682E+03  0.81906383234E+02 0.  0.
         13    1    3    3    0    0 -0.44713570234E+03 -0.28863661194E+02  0.60104810974E+03  0.74968145067E+03  0.00000000000E+00 0.  1.
        -13    1    3    3    0    0 -0.33756898795E+03 -0.24547082099E+01  0.59389226614E+03  0.68313020062E+03  0.00000000000E+00 0. -1.
          2    1    6    6  502    0  0.16979406123E+03 -0.52137459967E+02  0.17339783443E+02  0.17846289825E+03  0.00000000000E+00 0. -1.
          3    1    5    5  503    0  0.61700303370E+02  0.15776984554E+03 -0.27644018866E+02  0.17164627400E+03  0.00000000000E+00 0. -1.
         -4    1    5    5    0  503  0.62221953368E+02  0.22911167330E+03 -0.13310340397E+03  0.27217686616E+03  0.00000000000E+00 0.  1.
         -1    1    6    6    0  502  0.49098837233E+03 -0.30342568947E+03  0.68705325136E+02  0.58125480858E+03  0.00000000000E+00 0.  1.
<mgrwt>
<rscale>  0 0.23865082E+04</rscale>
<asrwt>0</asrwt>
<pdfrwt beam="1">  1        2 0.28896850E+00 0.23865082E+04</pdfrwt>
<pdfrwt beam="2">  1       -2 0.11662419E+00 0.23865082E+04</pdfrwt>
<totfact> 0.40044751E+00</totfact>
</mgrwt>
</event>
<event>
12    1  0.1569113E-007  0.2052934E+04  0.7818608E-02  0.8582265E-01
         -1   -1    0    0    0  501 -0.00000000000E+00  0.00000000000E+00  0.80940873019E+03  0.80940873019E+03  0.00000000000E+00 0.  1.
          1   -1    0    0  501    0  0.00000000000E+00 -0.00000000000E+00 -0.13017331346E+04  0.13017331346E+04  0.00000000000E+00 0. -1.
         23    2    1    2    0    0 -0.70740773816E+03 -0.40111118228E+03 -0.34872546772E+03  0.88976409714E+03  0.93567131809E+02 0.  0.
        254    2    1    2    0    0  0.70740773816E+03  0.40111118228E+03 -0.14359893669E+03  0.12213777676E+04  0.89990394383E+03 0.  0.
        -24    2    4    4    0    0  0.20256941147E+03  0.54528506074E+03 -0.30902180332E+03  0.66450681677E+03  0.87776253485E+02 0.  0.
         24    2    4    4    0    0  0.50483832668E+03 -0.14417387846E+03  0.16542286663E+03  0.55687095087E+03  0.84218096641E+02 0.  0.
         13    1    3    3    0    0 -0.33518099972E+03 -0.15708164673E+03 -0.11856538554E+03  0.38868843173E+03  0.00000000000E+00 0. -1.
        -13    1    3    3    0    0 -0.37222673843E+03 -0.24402953555E+03 -0.23016008219E+03  0.50107566540E+03  0.00000000000E+00 0.  1.
          2    1    6    6  502    0  0.48063337753E+03 -0.14314653309E+03  0.13770898835E+03  0.52006070704E+03  0.00000000000E+00 0. -1.
          1    1    5    5  503    0  0.19351537341E+03  0.51554959094E+03 -0.26632281701E+03  0.61169226195E+03  0.00000000000E+00 0. -1.
         -4    1    5    5    0  503  0.90540380610E+01  0.29735469804E+02 -0.42698986309E+02  0.52814554826E+02  0.00000000000E+00 0.  1.
         -1    1    6    6    0  502  0.24204949155E+02 -0.10273453747E+01  0.27713878278E+02  0.36810243837E+02  0.00000000000E+00 0.  1.
<mgrwt>
<rscale>  0 0.20529337E+04</rscale>
<asrwt>0</asrwt>
<pdfrwt beam="1">  1        1 0.20026664E+00 0.20529337E+04</pdfrwt>
<pdfrwt beam="2">  1       -1 0.12452442E+00 0.20529337E+04</pdfrwt>
<totfact> 0.47060137E+00</totfact>
</mgrwt>
</event>
<event>
12    1  0.1549527E-007  0.1125724E+04  0.7818608E-02  0.9180476E-01
          1   -1    0    0  501    0  0.00000000000E+00  0.00000000000E+00  0.76095250121E+03  0.76095250121E+03  0.00000000000E+00 0. -1.
         -1   -1    0    0    0  501 -0.00000000000E+00 -0.00000000000E+00 -0.41633801785E+03  0.41633801785E+03  0.00000000000E+00 0.  1.
         23    2    1    2    0    0 -0.73751378129E+02 -0.85963764430E+01  0.23242269745E+03  0.25936497952E+03  0.87958620078E+02 0.  0.
        254    2    1    2    0    0  0.73751378129E+02  0.85963764430E+01  0.11219178590E+03  0.91792553953E+03  0.90801273991E+03 0.  0.
        -24    2    4    4    0    0 -0.18448550806E+03 -0.13672296425E+03  0.41877421204E+03  0.48385936267E+03  0.77588469118E+02 0.  0.
         24    2    4    4    0    0  0.25823688619E+03  0.14531934069E+03 -0.30658242613E+03  0.43406617686E+03  0.81342865173E+02 0.  0.
         13    1    3    3    0    0  0.21223284919E+01  0.25771831920E+02  0.96903012724E+02  0.10029399520E+03  0.00000000000E+00 0. -1.
        -13    1    3    3    0    0 -0.75873706621E+02 -0.34368208363E+02  0.13551968473E+03  0.15907098432E+03  0.00000000000E+00 0.  1.
          2    1    6    6  502    0  0.58513310506E+02  0.75845079318E+02 -0.93052039227E+02  0.13354761536E+03  0.00000000000E+00 0. -1.
          1    1    5    5  503    0 -0.37446165805E+02 -0.23900674164E+02  0.31304587454E+02  0.54345512737E+02  0.00000000000E+00 0. -1.
         -4    1    5    5    0  503 -0.14703934226E+03 -0.11282229008E+03  0.38746962458E+03  0.42951384993E+03  0.00000000000E+00 0.  1.
         -1    1    6    6    0  502  0.19972357569E+03  0.69474261373E+02 -0.21353038690E+03  0.30051856151E+03  0.00000000000E+00 0.  1.
<mgrwt>
<rscale>  0 0.11257237E+04</rscale>
<asrwt>0</asrwt>
<pdfrwt beam="1">  1        1 0.11706962E+00 0.11257237E+04</pdfrwt>
<pdfrwt beam="2">  1       -1 0.64052003E-01 0.11257237E+04</pdfrwt>
<totfact> 0.58884920E+01</totfact>
</mgrwt>
</event>
<event>
12    1  0.1549527E-007  0.2828166E+04  0.7818608E-02  0.8294577E-01
          1   -1    0    0  501    0  0.00000000000E+00  0.00000000000E+00  0.19222420035E+04  0.19222420035E+04  0.00000000000E+00 0.  1.
         -1   -1    0    0    0  501 -0.00000000000E+00 -0.00000000000E+00 -0.10402597118E+04  0.10402597118E+04  0.00000000000E+00 0. -1.
         23    2    1    2    0    0  0.11505551335E+04 -0.46878980103E+03  0.66101652391E+03  0.14102329632E+04  0.90956982899E+02 0.  0.
        254    2    1    2    0    0 -0.11505551335E+04  0.46878980103E+03  0.22096576778E+03  0.15522687520E+04  0.90397533987E+03 0.  0.
        -24    2    4    4    0    0 -0.96213534047E+03 -0.11149014048E+02 -0.45790333330E+02  0.96651008153E+03  0.78843320401E+02 0.  0.
         24    2    4    4    0    0 -0.18841979308E+03  0.47993881508E+03  0.26675610111E+03  0.58575867050E+03  0.78173639691E+02 0.  0.
         13    1    3    3    0    0  0.96876649345E+03 -0.41835607325E+03  0.58749111177E+03  0.12077566515E+04  0.00000000000E+00 0.  1.
        -13    1    3    3    0    0  0.18178864009E+03 -0.50433727777E+02  0.73525412138E+02  0.20247631169E+03  0.00000000000E+00 0. -1.
          4    1    6    6  502    0 -0.10088554973E+03  0.35371393163E+03  0.19241031924E+03  0.41510621595E+03  0.00000000000E+00 0. -1.
          3    1    5    5  503    0 -0.75136549461E+03  0.16651202961E+02 -0.56294579574E+02  0.75365539124E+03  0.00000000000E+00 0. -1.
         -4    1    5    5    0  503 -0.21076984586E+03 -0.27800217009E+02  0.10504246243E+02  0.21285469029E+03  0.00000000000E+00 0.  1.
         -3    1    6    6    0  502 -0.87534243352E+02  0.12622488345E+03  0.74345781868E+02  0.17065245455E+03  0.00000000000E+00 0.  1.
<mgrwt>
<rscale>  0 0.28281661E+04</rscale>
<asrwt>0</asrwt>
<pdfrwt beam="1">  1        1 0.29572954E+00 0.28281661E+04</pdfrwt>
<pdfrwt beam="2">  1       -1 0.16003996E+00 0.28281661E+04</pdfrwt>
<totfact> 0.84868764E-01</totfact>
</mgrwt>
</event>
<event>
12    1  0.2072678E-007  0.2122322E+04  0.7818608E-02  0.8551474E-01
          1   -1    0    0  501    0  0.00000000000E+00  0.00000000000E+00  0.15396928202E+04  0.15396928202E+04  0.00000000000E+00 0. -1.
         -1   -1    0    0    0  501 -0.00000000000E+00 -0.00000000000E+00 -0.73135509050E+03  0.73135509050E+03  0.00000000000E+00 0.  1.
         23    2    1    2    0    0 -0.66719000241E+03 -0.10628647421E+03 -0.25068106312E+03  0.72642021553E+03  0.91684350909E+02 0.  0.
        254    2    1    2    0    0  0.66719000241E+03  0.10628647421E+03  0.10590187928E+04  0.15446276951E+04  0.89884069735E+03 0.  0.
        -24    2    4    4    0    0  0.73919872354E+03  0.34733544685E+03  0.95962446918E+03  0.12627445128E+04  0.81165986234E+02 0.  0.
         24    2    4    4    0    0 -0.72008721131E+02 -0.24104897263E+03  0.99394323594E+02  0.28188318230E+03  0.79303428522E+02 0.  0.
         11    1    3    3    0    0 -0.61331033564E+03 -0.90767555225E+02 -0.20171710863E+03  0.65198014448E+03  0.00000000000E+00 0.  1.
        -11    1    3    3    0    0 -0.53879666768E+02 -0.15518918989E+02 -0.48963954488E+02  0.74440071042E+02  0.00000000000E+00 0. -1.
          4    1    6    6  502    0 -0.87447900732E+02 -0.19472346435E+03  0.68852465185E+02  0.22428781704E+03  0.00000000000E+00 0. -1.
          1    1    5    5  503    0  0.63835095234E+03  0.29238028700E+03  0.77923578852E+03  0.10488977952E+04  0.00000000000E+00 0. -1.
         -2    1    5    5    0  503  0.10084777120E+03  0.54955159852E+02  0.18038868066E+03  0.21384671768E+03  0.00000000000E+00 0.  1.
         -3    1    6    6    0  502  0.15439179600E+02 -0.46325508281E+02  0.30541858409E+02  0.57595365259E+02  0.00000000000E+00 0.  1.
<mgrwt>
<rscale>  0 0.21223215E+04</rscale>
<asrwt>0</asrwt>
<pdfrwt beam="1">  1        1 0.23687582E+00 0.21223215E+04</pdfrwt>
<pdfrwt beam="2">  1       -1 0.11251617E+00 0.21223215E+04</pdfrwt>
<totfact> 0.40762982E+00</totfact>
</mgrwt>
</event>
<event>
12    1  0.1549527E-007  0.1623714E+04  0.7818608E-02  0.8806111E-01
          1   -1    0    0  501    0  0.00000000000E+00  0.00000000000E+00  0.10769924932E+04  0.10769924932E+04  0.00000000000E+00 0. -1.
         -1   -1    0    0    0  501 -0.00000000000E+00 -0.00000000000E+00 -0.61199305705E+03  0.61199305705E+03  0.00000000000E+00 0.  1.
         23    2    1    2    0    0 -0.43584499347E+03 -0.35152865487E+03  0.13993466405E+03  0.58427501888E+03  0.90897381483E+02 0.  0.
        254    2    1    2    0    0  0.43584499347E+03  0.35152865487E+03  0.32506477213E+03  0.11047105314E+04  0.89508938022E+03 0.  0.
        -24    2    4    4    0    0  0.11022069458E+03 -0.28884301901E+03  0.18335198348E+03  0.36815847283E+03  0.79648101829E+02 0.  0.
         24    2    4    4    0    0  0.32562429889E+03  0.64037167388E+03  0.14171278865E+03  0.73655205857E+03  0.79494375821E+02 0.  0.
         13    1    3    3    0    0 -0.30651000080E+03 -0.19487958798E+03  0.73793404055E+02  0.37063715529E+03  0.00000000000E+00 0.  1.
        -13    1    3    3    0    0 -0.12933499268E+03 -0.15664906689E+03  0.66141259991E+02  0.21363786359E+03  0.00000000000E+00 0. -1.
          2    1    6    6  502    0  0.29151502962E+03  0.55804771623E+03  0.14948166271E+03  0.64710357253E+03  0.00000000000E+00 0. -1.
          3    1    5    5  503    0  0.10137200304E+02 -0.11966753897E+03  0.47159252912E+02  0.12902355540E+03  0.00000000000E+00 0. -1.
         -4    1    5    5    0  503  0.10008349428E+03 -0.16917548004E+03  0.13619273057E+03  0.23913491742E+03  0.00000000000E+00 0.  1.
         -1    1    6    6    0  502  0.34109269268E+02  0.82323957644E+02 -0.77688740532E+01  0.89448486047E+02  0.00000000000E+00 0.  1.
<mgrwt>
<rscale>  0 0.16237142E+04</rscale>
<asrwt>0</asrwt>
<pdfrwt beam="1">  1        1 0.16569115E+00 0.16237142E+04</pdfrwt>
<pdfrwt beam="2">  1       -1 0.94152778E-01 0.16237142E+04</pdfrwt>
<totfact> 0.13810776E+01</totfact>
</mgrwt>
</event>
<event>
12    1  0.1549527E-007  0.1072444E+04  0.7818608E-02  0.9232474E-01
          1   -1    0    0  501    0  0.00000000000E+00  0.00000000000E+00  0.87586568242E+03  0.87586568242E+03  0.00000000000E+00 0. -1.
         -1   -1    0    0    0  501 -0.00000000000E+00 -0.00000000000E+00 -0.32828546239E+03  0.32828546239E+03  0.00000000000E+00 0.  1.
         23    2    1    2    0    0  0.84664746281E+02 -0.59676919110E+02  0.15720281258E+03  0.21136455420E+03  0.96087442213E+02 0.  0.
        254    2    1    2    0    0 -0.84664746281E+02  0.59676919110E+02  0.39037740745E+03  0.99278659061E+03  0.90691854117E+03 0.  0.
        -24    2    4    4    0    0  0.38579532458E+03  0.15939462138E+03  0.14997136040E+03  0.44945693552E+03  0.72632294169E+02 0.  0.
         24    2    4    4    0    0 -0.47046007086E+03 -0.99717702272E+02  0.24040604705E+03  0.54332965509E+03  0.78331016980E+02 0.  0.
         11    1    3    3    0    0  0.84639660776E+02 -0.16089004466E+02  0.14024396463E+03  0.16459373577E+03  0.00000000000E+00 0. -1.
        -11    1    3    3    0    0  0.25085505548E-01 -0.43587914644E+02  0.16958847951E+02  0.46770818425E+02  0.00000000000E+00 0.  1.
          4    1    6    6  502    0 -0.32560996994E+03 -0.10265584340E+03  0.15298865680E+03  0.37411977202E+03  0.00000000000E+00 0. -1.
          1    1    5    5  503    0  0.35478224574E+03  0.15190914910E+03  0.11631658400E+03  0.40308358834E+03  0.00000000000E+00 0. -1.
         -2    1    5    5    0  503  0.31013078834E+02  0.74854722801E+01  0.33654776405E+02  0.46373347183E+02  0.00000000000E+00 0.  1.
         -3    1    6    6    0  502 -0.14485010092E+03  0.29381411250E+01  0.87417390246E+02  0.16920988307E+03  0.00000000000E+00 0.  1.
<mgrwt>
<rscale>  0 0.10724439E+04</rscale>
<asrwt>0</asrwt>
<pdfrwt beam="1">  1        1 0.13474857E+00 0.10724439E+04</pdfrwt>
<pdfrwt beam="2">  1       -1 0.50505456E-01 0.10724439E+04</pdfrwt>
<totfact> 0.74862449E+01</totfact>
</mgrwt>
</event>
<event>
12    1  0.1549527E-007  0.2019690E+04  0.7818608E-02  0.8597470E-01
          2   -1    0    0  501    0  0.00000000000E+00  0.00000000000E+00  0.73369307736E+03  0.73369307736E+03  0.00000000000E+00 0. -1.
         -2   -1    0    0    0  501 -0.00000000000E+00 -0.00000000000E+00 -0.13899360195E+04  0.13899360195E+04  0.00000000000E+00 0.  1.
         23    2    1    2    0    0  0.16231925900E+01 -0.62024137673E+03 -0.80095430389E+03  0.10173969808E+04  0.94163790178E+02 0.  0.
        254    2    1    2    0    0 -0.16231925900E+01  0.62024137673E+03  0.14471136170E+03  0.11062321162E+04  0.90449218705E+03 0.  0.
        -24    2    4    4    0    0  0.12297745228E+03  0.68181159591E+03  0.40121822952E+03  0.80458598477E+03  0.79950191394E+02 0.  0.
         24    2    4    4    0    0 -0.12460064487E+03 -0.61570219174E+02 -0.25650686782E+03  0.30164613138E+03  0.76670742451E+02 0.  0.
         11    1    3    3    0    0 -0.11191517173E+02 -0.45957765227E+03 -0.52503596916E+03  0.69785359312E+03  0.00000000000E+00 0.  1.
        -11    1    3    3    0    0  0.12814709763E+02 -0.16066372446E+03 -0.27591833473E+03  0.31954338764E+03  0.00000000000E+00 0. -1.
          2    1    6    6  502    0 -0.28351854072E+02 -0.54543697565E+02 -0.85788913507E+02  0.10553947249E+03  0.00000000000E+00 0. -1.
          3    1    5    5  503    0  0.50819740790E+02  0.36318987461E+03  0.16914417467E+03  0.40385552231E+03  0.00000000000E+00 0. -1.
         -4    1    5    5    0  503  0.72157711494E+02  0.31862172129E+03  0.23207405485E+03  0.40073046246E+03  0.00000000000E+00 0.  1.
         -1    1    6    6    0  502 -0.96248790801E+02 -0.70265216093E+01 -0.17071795431E+03  0.19610665889E+03  0.00000000000E+00 0.  1.
<mgrwt>
<rscale>  0 0.20196895E+04</rscale>
<asrwt>0</asrwt>
<pdfrwt beam="1">  1        2 0.11287586E+00 0.20196895E+04</pdfrwt>
<pdfrwt beam="2">  1       -2 0.21383631E+00 0.20196895E+04</pdfrwt>
<totfact> 0.38698433E+00</totfact>
</mgrwt>
</event>
<event>
12    1  0.1549527E-007  0.1329407E+04  0.7818608E-02  0.9006565E-01
         -2   -1    0    0    0  501 -0.00000000000E+00  0.00000000000E+00  0.58988067323E+03  0.58988067323E+03  0.00000000000E+00 0.  1.
          2   -1    0    0  501    0  0.00000000000E+00 -0.00000000000E+00 -0.74901742497E+03  0.74901742497E+03  0.00000000000E+00 0. -1.
         23    2    1    2    0    0  0.31465801828E+03 -0.16510957097E+03  0.62417200530E+01  0.36701968159E+03  0.91616858224E+02 0.  0.
        254    2    1    2    0    0 -0.31465801828E+03  0.16510957097E+03 -0.16537847180E+03  0.97187841661E+03  0.88934064275E+03 0.  0.
        -24    2    4    4    0    0 -0.18162528898E+03  0.41857929843E+03 -0.38491319394E+03  0.60251393026E+03  0.81660851196E+02 0.  0.
         24    2    4    4    0    0 -0.13303272930E+03 -0.25346972746E+03  0.21953472214E+03  0.36936448635E+03  0.79309644721E+02 0.  0.
         11    1    3    3    0    0  0.21570058495E+03 -0.13861526156E+03  0.39257864303E+02  0.25938795847E+03  0.00000000000E+00 0.  1.
        -11    1    3    3    0    0  0.98957433323E+02 -0.26494309409E+02 -0.33016144250E+02  0.10763172312E+03  0.00000000000E+00 0. -1.
          2    1    6    6  502    0  0.85950394918E+01 -0.20664109515E+02  0.60153601188E+01  0.23174656055E+02  0.00000000000E+00 0. -1.
          3    1    5    5  503    0 -0.19769502380E+02  0.13459368665E+03 -0.99071492830E+02  0.16828979292E+03  0.00000000000E+00 0. -1.
         -4    1    5    5    0  503 -0.16185578660E+03  0.28398561178E+03 -0.28584170111E+03  0.43422413734E+03  0.00000000000E+00 0.  1.
         -1    1    6    6    0  502 -0.14162776879E+03 -0.23280561794E+03  0.21351936202E+03  0.34618983029E+03  0.00000000000E+00 0.  1.
<mgrwt>
<rscale>  0 0.13294072E+04</rscale>
<asrwt>0</asrwt>
<pdfrwt beam="1">  1        2 0.11523345E+00 0.13294072E+04</pdfrwt>
<pdfrwt beam="2">  1       -2 0.90750873E-01 0.13294072E+04</pdfrwt>
<totfact> 0.38106753E+01</totfact>
</mgrwt>
</event>
<event>
12    1  0.1549527E-007  0.2414830E+04  0.7818608E-02  0.8433972E-01
         -2   -1    0    0    0  501 -0.00000000000E+00  0.00000000000E+00  0.40186777318E+03  0.40186777318E+03  0.00000000000E+00 0.  1.
          2   -1    0    0  501    0  0.00000000000E+00 -0.00000000000E+00 -0.36276885960E+04  0.36276885960E+04  0.00000000000E+00 0. -1.
         23    2    1    2    0    0  0.36240916143E+03  0.59612279797E+03 -0.10833934306E+03  0.71190613925E+03  0.91488509075E+02 0.  0.
        254    2    1    2    0    0 -0.36240916143E+03 -0.59612279797E+03 -0.31174814798E+04  0.33176502300E+04  0.89521476808E+03 0.  0.
        -24    2    4    4    0    0  0.20480936204E+03  0.52755915873E+02 -0.10890880280E+04  0.11123005206E+04  0.79810111965E+02 0.  0.
         24    2    4    4    0    0 -0.56721852347E+03 -0.64887871385E+03 -0.20283934518E+04  0.22053497094E+04  0.80043154917E+02 0.  0.
         11    1    3    3    0    0  0.15441386958E+03  0.25288868054E+03 -0.39098596162E+00  0.29630470926E+03  0.00000000000E+00 0.  1.
        -11    1    3    3    0    0  0.20799529185E+03  0.34323411744E+03 -0.10794835710E+03  0.41560142999E+03  0.00000000000E+00 0. -1.
          2    1    6    6  502    0 -0.46925059914E+03 -0.56359872235E+03 -0.17769654437E+04  0.19223542423E+04  0.00000000000E+00 0. -1.
          1    1    5    5  503    0  0.18415883135E+03  0.17478698266E+02 -0.90892382221E+03  0.92755727297E+03  0.00000000000E+00 0. -1.
         -2    1    5    5    0  503  0.20650530688E+02  0.35277217607E+02 -0.18016420575E+03  0.18474324760E+03  0.00000000000E+00 0.  1.
         -1    1    6    6    0  502 -0.97967924329E+02 -0.85279991494E+02 -0.25142800814E+03  0.28299546714E+03  0.00000000000E+00 0.  1.
<mgrwt>
<rscale>  0 0.24148301E+04</rscale>
<asrwt>0</asrwt>
<pdfrwt beam="1">  1        2 0.55810592E+00 0.24148301E+04</pdfrwt>
<pdfrwt beam="2">  1       -2 0.61825813E-01 0.24148301E+04</pdfrwt>
<totfact> 0.14425823E+00</totfact>
</mgrwt>
</event>
<event>
12    1  0.1549527E-007  0.2327057E+04  0.7818608E-02  0.8467329E-01
         -1   -1    0    0    0  501 -0.00000000000E+00  0.00000000000E+00  0.15857079921E+04  0.15857079921E+04  0.00000000000E+00 0.  1.
          1   -1    0    0  501    0  0.00000000000E+00 -0.00000000000E+00 -0.85374996639E+03  0.85374996639E+03  0.00000000000E+00 0. -1.
         23    2    1    2    0    0  0.52050420389E+03  0.77387468640E+03 -0.27879452832E+02  0.93867398190E+03  0.10259105175E+03 0.  0.
        254    2    1    2    0    0 -0.52050420389E+03 -0.77387468640E+03  0.75983747854E+03  0.15007839766E+04  0.89732541146E+03 0.  0.
        -24    2    4    4    0    0 -0.18562605759E+03 -0.78645908014E+03  0.18941824946E+03  0.83386486830E+03  0.80476253348E+02 0.  0.
         24    2    4    4    0    0 -0.33487814629E+03  0.12584393746E+02  0.57041922908E+03  0.66691910828E+03  0.84268975648E+02 0.  0.
         13    1    3    3    0    0  0.13372222416E+03  0.19297951107E+03  0.37411574892E+02  0.23774429722E+03  0.00000000000E+00 0.  1.
        -13    1    3    3    0    0  0.38678197973E+03  0.58089517533E+03 -0.65291027724E+02  0.70092968468E+03  0.00000000000E+00 0. -1.
          2    1    6    6  502    0 -0.93819085948E+02  0.34410738967E+02  0.21271174908E+03  0.23501576126E+03  0.00000000000E+00 0. -1.
          1    1    5    5  503    0 -0.18813628465E+03 -0.68174358664E+03  0.16071707171E+03  0.72525826894E+03  0.00000000000E+00 0. -1.
         -2    1    5    5    0  503  0.25102270568E+01 -0.10471549350E+03  0.28701177751E+02  0.10860659935E+03  0.00000000000E+00 0.  1.
         -1    1    6    6    0  502 -0.24105906034E+03 -0.21826345221E+02  0.35770748000E+03  0.43190334702E+03  0.00000000000E+00 0.  1.
<mgrwt>
<rscale>  0 0.23270566E+04</rscale>
<asrwt>0</asrwt>
<pdfrwt beam="1">  1        1 0.13134615E+00 0.23270566E+04</pdfrwt>
<pdfrwt beam="2">  1       -1 0.24395508E+00 0.23270566E+04</pdfrwt>
<totfact> 0.13691783E+00</totfact>
</mgrwt>
</event>
<event>
12    1  0.1549527E-007  0.1108494E+04  0.7818608E-02  0.9196952E-01
         -2   -1    0    0    0  501 -0.00000000000E+00  0.00000000000E+00  0.17147973021E+03  0.17147973021E+03  0.00000000000E+00 0.  1.
          2   -1    0    0  501    0  0.00000000000E+00 -0.00000000000E+00 -0.17914057856E+04  0.17914057856E+04  0.00000000000E+00 0. -1.
         23    2    1    2    0    0  0.25519485492E+02  0.16971340866E+03 -0.26718200991E+03  0.33000292912E+03  0.89787647192E+02 0.  0.
        254    2    1    2    0    0 -0.25519485492E+02 -0.16971340866E+03 -0.13527440455E+04  0.16328825867E+04  0.89829572199E+03 0.  0.
        -24    2    4    4    0    0 -0.12835949031E+03 -0.45722040907E+03 -0.11763033379E+04  0.12710824385E+04  0.80214471393E+02 0.  0.
         24    2    4    4    0    0  0.10284000482E+03  0.28750700041E+03 -0.17644070758E+03  0.36180014822E+03  0.80818822587E+02 0.  0.
         13    1    3    3    0    0 -0.31242523674E+02  0.89238091478E+02 -0.14450841126E+03  0.17269109178E+03  0.00000000000E+00 0. -1.
        -13    1    3    3    0    0  0.56762009166E+02  0.80475317180E+02 -0.12267359865E+03  0.15731183733E+03  0.00000000000E+00 0.  1.
          4    1    6    6  502    0  0.96134108586E+01  0.86704749879E+02 -0.16754302698E+02  0.88830388826E+02  0.00000000000E+00 0. -1.
          1    1    5    5  503    0  0.70591981152E+01 -0.65601050050E+02 -0.13195483289E+03  0.14753104070E+03  0.00000000000E+00 0. -1.
         -2    1    5    5    0  503 -0.13541868843E+03 -0.39161935902E+03 -0.10443485050E+04  0.11235513978E+04  0.00000000000E+00 0.  1.
         -3    1    6    6    0  502  0.93226593964E+02  0.20080225053E+03 -0.15968640488E+03  0.27296975939E+03  0.00000000000E+00 0.  1.
<mgrwt>
<rscale>  0 0.11084941E+04</rscale>
<asrwt>0</asrwt>
<pdfrwt beam="1">  1        2 0.27560087E+00 0.11084941E+04</pdfrwt>
<pdfrwt beam="2">  1       -2 0.26381498E-01 0.11084941E+04</pdfrwt>
<totfact> 0.11265352E+02</totfact>
</mgrwt>
</event>
<event>
12    1  0.1549527E-007  0.2049414E+04  0.7818608E-02  0.8583860E-01
          2   -1    0    0  501    0  0.00000000000E+00  0.00000000000E+00  0.13829420798E+04  0.13829420798E+04  0.00000000000E+00 0. -1.
         -2   -1    0    0    0  501 -0.00000000000E+00 -0.00000000000E+00 -0.75926849636E+03  0.75926849636E+03  0.00000000000E+00 0.  1.
         23    2    1    2    0    0 -0.27873624947E+03  0.45453328383E+03  0.92611498640E+03  0.10724862809E+04  0.90793457419E+02 0.  0.
        254    2    1    2    0    0  0.27873624947E+03 -0.45453328383E+03 -0.30244140301E+03  0.10697242952E+04  0.87666690511E+03 0.  0.
        -24    2    4    4    0    0  0.58658112314E+03 -0.36455068286E+03 -0.20433366900E+03  0.72473547797E+03  0.80713383891E+02 0.  0.
         24    2    4    4    0    0 -0.30784487367E+03 -0.89982600974E+02 -0.98107734002E+02  0.34498881719E+03  0.80788747944E+02 0.  0.
         13    1    3    3    0    0 -0.25428914138E+03  0.35576215331E+03  0.71491291659E+03  0.83805140383E+03  0.00000000000E+00 0. -1.
        -13    1    3    3    0    0 -0.24447108090E+02  0.98771130517E+02  0.21120206981E+03  0.23443487712E+03  0.00000000000E+00 0.  1.
          4    1    6    6  502    0 -0.10997103402E+03 -0.19354804409E+02 -0.72969262304E+02  0.13338946742E+03  0.00000000000E+00 0. -1.
          3    1    5    5  503    0  0.19714428689E+03 -0.16171749397E+03 -0.96142883998E+02  0.27251031513E+03  0.00000000000E+00 0. -1.
         -2    1    5    5    0  503  0.38943683625E+03 -0.20283318889E+03 -0.10819078501E+03  0.45222516284E+03  0.00000000000E+00 0.  1.
         -3    1    6    6    0  502 -0.19787383965E+03 -0.70627796564E+02 -0.25138471698E+02  0.21159934977E+03  0.00000000000E+00 0.  1.
<mgrwt>
<rscale>  0 0.20494139E+04</rscale>
<asrwt>0</asrwt>
<pdfrwt beam="1">  1        2 0.21276032E+00 0.20494139E+04</pdfrwt>
<pdfrwt beam="2">  1       -2 0.11681054E+00 0.20494139E+04</pdfrwt>
<totfact> 0.77740488E+00</totfact>
</mgrwt>
</event>
<event>
12    1  0.1549527E-007  0.1780048E+04  0.7818608E-02  0.8716982E-01
         -1   -1    0    0    0  501 -0.00000000000E+00  0.00000000000E+00  0.56822714384E+03  0.56822714384E+03  0.00000000000E+00 0.  1.
          1   -1    0    0  501    0  0.00000000000E+00 -0.00000000000E+00 -0.13940595831E+04  0.13940595831E+04  0.00000000000E+00 0. -1.
         23    2    1    2    0    0 -0.33608240074E+03 -0.42825209106E+03 -0.71722931284E+03  0.90524714768E+03  0.93291358680E+02 0.  0.
        254    2    1    2    0    0  0.33608240074E+03  0.42825209106E+03 -0.10860312638E+03  0.10570395792E+04  0.89954810844E+03 0.  0.
        -24    2    4    4    0    0  0.23304902059E+03  0.81367326709E+02  0.37015200455E+03  0.45148160656E+03  0.76750548751E+02 0.  0.
         24    2    4    4    0    0  0.10303338015E+03  0.34688476435E+03 -0.47875513094E+03  0.60555797266E+03  0.80926297923E+02 0.  0.
         13    1    3    3    0    0 -0.33277536905E+03 -0.38616596069E+03 -0.65363855047E+03  0.82891914569E+03  0.00000000000E+00 0. -1.
        -13    1    3    3    0    0 -0.33070316873E+01 -0.42086130368E+02 -0.63590762370E+02  0.76328001983E+02  0.00000000000E+00 0.  1.
          4    1    6    6  502    0  0.87336100218E+01 -0.20815550284E+01 -0.79956992748E+01  0.12022479871E+02  0.00000000000E+00 0. -1.
          3    1    5    5  503    0  0.16161868195E+03  0.44132424275E+02  0.18511619471E+03  0.24967233481E+03  0.00000000000E+00 0. -1.
         -4    1    5    5    0  503  0.71430338633E+02  0.37234902434E+02  0.18503580984E+03  0.20180927174E+03  0.00000000000E+00 0.  1.
         -3    1    6    6    0  502  0.94299770127E+02  0.34896631938E+03 -0.47075943166E+03  0.59353549279E+03  0.00000000000E+00 0.  1.
<mgrwt>
<rscale>  0 0.17800477E+04</rscale>
<asrwt>0</asrwt>
<pdfrwt beam="1">  1        1 0.21447070E+00 0.17800477E+04</pdfrwt>
<pdfrwt beam="2">  1       -1 0.87419562E-01 0.17800477E+04</pdfrwt>
<totfact> 0.94422719E+00</totfact>
</mgrwt>
</event>
<event>
12    1  0.1549527E-007  0.1659908E+04  0.7818608E-02  0.8784566E-01
         -2   -1    0    0    0  501 -0.00000000000E+00  0.00000000000E+00  0.58029701189E+03  0.58029701189E+03  0.00000000000E+00 0.  1.
          2   -1    0    0  501    0  0.00000000000E+00 -0.00000000000E+00 -0.11870196195E+04  0.11870196195E+04  0.00000000000E+00 0. -1.
         23    2    1    2    0    0 -0.53443497734E+03 -0.21488277279E+03 -0.14389485473E+03  0.60080428777E+03  0.92003869135E+02 0.  0.
        254    2    1    2    0    0  0.53443497734E+03  0.21488277279E+03 -0.46282775289E+03  0.11665123436E+04  0.90263290876E+03 0.  0.
        -24    2    4    4    0    0  0.18623349853E+02  0.46207777565E+03 -0.86567139639E+02  0.47721834359E+03  0.79879771409E+02 0.  0.
         24    2    4    4    0    0  0.51581162749E+03 -0.24719500286E+03 -0.37626061325E+03  0.68929400005E+03  0.79919740555E+02 0.  0.
         13    1    3    3    0    0 -0.99873150992E+02 -0.70605453278E+02 -0.53920484368E+01  0.12242896107E+03  0.00000000000E+00 0.  1.
        -13    1    3    3    0    0 -0.43456182635E+03 -0.14427731951E+03 -0.13850280629E+03  0.47837532670E+03  0.00000000000E+00 0. -1.
          4    1    6    6  502    0  0.30007967459E+03 -0.16512946977E+03 -0.26502365125E+03  0.43307399900E+03  0.00000000000E+00 0. -1.
          3    1    5    5  503    0  0.43156449931E+02  0.14529059919E+03 -0.28343277920E+02  0.15419201921E+03  0.00000000000E+00 0. -1.
         -4    1    5    5    0  503 -0.24533100078E+02  0.31678717646E+03 -0.58223861718E+02  0.32302632438E+03  0.00000000000E+00 0.  1.
         -3    1    6    6    0  502  0.21573195290E+03 -0.82065533090E+02 -0.11123696200E+03  0.25622000105E+03  0.00000000000E+00 0.  1.
<mgrwt>
<rscale>  0 0.16599084E+04</rscale>
<asrwt>0</asrwt>
<pdfrwt beam="1">  1        2 0.18261840E+00 0.16599084E+04</pdfrwt>
<pdfrwt beam="2">  1       -2 0.89276465E-01 0.16599084E+04</pdfrwt>
<totfact> 0.19821022E+01</totfact>
</mgrwt>
</event>
<event>
12    1  0.1549527E-007  0.1661969E+04  0.7818608E-02  0.8783357E-01
         -1   -1    0    0    0  501 -0.00000000000E+00  0.00000000000E+00  0.27951822897E+03  0.27951822897E+03  0.00000000000E+00 0.  1.
          1   -1    0    0  501    0  0.00000000000E+00 -0.00000000000E+00 -0.24704480894E+04  0.24704480894E+04  0.00000000000E+00 0. -1.
         23    2    1    2    0    0  0.48897366226E+03 -0.30036317640E+03 -0.94218402308E+03  0.11071856865E+04  0.94000696835E+02 0.  0.
        254    2    1    2    0    0 -0.48897366226E+03  0.30036317640E+03 -0.12487458373E+04  0.16427806318E+04  0.90002708731E+03 0.  0.
        -24    2    4    4    0    0 -0.38875006235E+02  0.52555934934E+03 -0.46200596832E+03  0.70530209207E+03  0.79231499548E+02 0.  0.
         24    2    4    4    0    0 -0.45009865602E+03 -0.22519617295E+03 -0.78673986900E+03  0.93747853974E+03  0.81266687666E+02 0.  0.
         13    1    3    3    0    0  0.27729149173E+03 -0.16807104637E+03 -0.61943014656E+03  0.69916532700E+03  0.00000000000E+00 0.  1.
        -13    1    3    3    0    0  0.21168217053E+03 -0.13229213003E+03 -0.32275387652E+03  0.40802035954E+03  0.00000000000E+00 0. -1.
          2    1    6    6  502    0 -0.35180532815E+03 -0.14532181137E+03 -0.54803963411E+03  0.66725771508E+03  0.00000000000E+00 0. -1.
          1    1    5    5  503    0 -0.34212137846E+02  0.29143956862E+03 -0.20708593207E+03  0.35915466835E+03  0.00000000000E+00 0. -1.
         -2    1    5    5    0  503 -0.46628683894E+01  0.23411978072E+03 -0.25492003625E+03  0.34614742373E+03  0.00000000000E+00 0.  1.
         -1    1    6    6    0  502 -0.98293327873E+02 -0.79874361579E+02 -0.23870023489E+03  0.27022082466E+03  0.00000000000E+00 0.  1.
<mgrwt>
<rscale>  0 0.16619690E+04</rscale>
<asrwt>0</asrwt>
<pdfrwt beam="1">  1        1 0.38006894E+00 0.16619690E+04</pdfrwt>
<pdfrwt beam="2">  1       -1 0.43002804E-01 0.16619690E+04</pdfrwt>
<totfact> 0.72373942E+00</totfact>
</mgrwt>
</event>
<event>
12    1  0.1549527E-007  0.1954091E+04  0.7818608E-02  0.8628390E-01
          2   -1    0    0  501    0  0.00000000000E+00  0.00000000000E+00  0.68644805643E+03  0.68644805643E+03  0.00000000000E+00 0. -1.
         -2   -1    0    0    0  501 -0.00000000000E+00 -0.00000000000E+00 -0.13906632758E+04  0.13906632758E+04  0.00000000000E+00 0.  1.
         23    2    1    2    0    0  0.34261869340E+03  0.39815811963E+03 -0.86522708919E+03  0.10162575640E+04  0.90796824195E+02 0.  0.
        254    2    1    2    0    0 -0.34261869340E+03 -0.39815811963E+03  0.16101186977E+03  0.10608537682E+04  0.90750671519E+03 0.  0.
        -24    2    4    4    0    0 -0.37657235314E+03  0.19634419338E+02  0.41333845551E+03  0.56510843675E+03  0.79414223565E+02 0.  0.
         24    2    4    4    0    0  0.33953659749E+02 -0.41779253897E+03 -0.25232658574E+03  0.49574533150E+03  0.79945426438E+02 0.  0.
         13    1    3    3    0    0  0.30391720655E+03  0.35657294285E+03 -0.81669420107E+03  0.94154094444E+03  0.00000000000E+00 0.  1.
        -13    1    3    3    0    0  0.38701486850E+02  0.41585176783E+02 -0.48532888116E+02  0.74716619579E+02  0.00000000000E+00 0. -1.
          2    1    6    6  502    0  0.41561731516E+02 -0.35113814267E+03 -0.17884712377E+03  0.39624697658E+03  0.00000000000E+00 0. -1.
          3    1    5    5  503    0 -0.25344951432E+03  0.32347396672E+02  0.22924842170E+03  0.34327518004E+03  0.00000000000E+00 0. -1.
         -4    1    5    5    0  503 -0.12312283882E+03 -0.12712977334E+02  0.18409003381E+03  0.22183325670E+03  0.00000000000E+00 0.  1.
         -1    1    6    6    0  502 -0.76080717667E+01 -0.66654396295E+02 -0.73479461969E+02  0.99498354924E+02  0.00000000000E+00 0.  1.
<mgrwt>
<rscale>  0 0.19540912E+04</rscale>
<asrwt>0</asrwt>
<pdfrwt beam="1">  1        2 0.10560739E+00 0.19540912E+04</pdfrwt>
<pdfrwt beam="2">  1       -2 0.21394820E+00 0.19540912E+04</pdfrwt>
<totfact> 0.42275972E+00</totfact>
</mgrwt>
</event>
<event>
12    1  0.1549527E-007  0.1991896E+04  0.7818608E-02  0.8610419E-01
         -1   -1    0    0    0  501 -0.00000000000E+00  0.00000000000E+00  0.37442986782E+03  0.37442986782E+03  0.00000000000E+00 0.  1.
          1   -1    0    0  501    0  0.00000000000E+00 -0.00000000000E+00 -0.26491281366E+04  0.26491281366E+04  0.00000000000E+00 0. -1.
         23    2    1    2    0    0  0.38925124507E+03  0.23611677969E+03 -0.18873359929E+04  0.19434883077E+04  0.88554991351E+02 0.  0.
        254    2    1    2    0    0 -0.38925124507E+03 -0.23611677969E+03 -0.38736227590E+03  0.10800696968E+04  0.89957398344E+03 0.  0.
        -24    2    4    4    0    0  0.17130183105E+02 -0.14780105505E+03  0.25781919520E+03  0.30839122106E+03  0.80596605199E+02 0.  0.
         24    2    4    4    0    0 -0.40638142817E+03 -0.88315724640E+02 -0.64518147110E+03  0.77167847572E+03  0.79265420308E+02 0.  0.
         13    1    3    3    0    0  0.38754915896E+03  0.24033785981E+03 -0.18820660832E+04  0.19365250783E+04  0.00000000000E+00 0. -1.
        -13    1    3    3    0    0  0.17020861049E+01 -0.42210801234E+01 -0.52699097052E+01  0.69632293382E+01  0.00000000000E+00 0.  1.
          4    1    6    6  502    0 -0.27401954107E+03 -0.85196346720E+02 -0.48849408188E+03  0.56654355033E+03  0.00000000000E+00 0. -1.
          1    1    5    5  503    0 -0.17277280431E+02 -0.90090751297E+02  0.19887348119E+03  0.21901029521E+03  0.00000000000E+00 0. -1.
         -2    1    5    5    0  503  0.34407463536E+02 -0.57710303750E+02  0.58945714008E+02  0.89380925850E+02  0.00000000000E+00 0.  1.
         -3    1    6    6    0  502 -0.13236188711E+03 -0.31193779197E+01 -0.15668738922E+03  0.20513492539E+03  0.00000000000E+00 0.  1.
<mgrwt>
<rscale>  0 0.19918963E+04</rscale>
<asrwt>0</asrwt>
<pdfrwt beam="1">  1        1 0.40755817E+00 0.19918963E+04</pdfrwt>
<pdfrwt beam="2">  1       -1 0.57604595E-01 0.19918963E+04</pdfrwt>
<totfact> 0.30225150E+00</totfact>
</mgrwt>
</event>
<event>
12    1  0.1549527E-007  0.2596424E+04  0.7818608E-02  0.8369417E-01
          2   -1    0    0  501    0  0.00000000000E+00  0.00000000000E+00  0.10970961967E+04  0.10970961967E+04  0.00000000000E+00 0. -1.
         -2   -1    0    0    0  501 -0.00000000000E+00 -0.00000000000E+00 -0.15361954376E+04  0.15361954376E+04  0.00000000000E+00 0.  1.
         23    2    1    2    0    0  0.65002845440E+03  0.30232006471E+03  0.70232704981E+03  0.10075472008E+04  0.89183315961E+02 0.  0.
        254    2    1    2    0    0 -0.65002845440E+03 -0.30232006471E+03 -0.11414262907E+04  0.16257444334E+04  0.90898656353E+03 0.  0.
        -24    2    4    4    0    0 -0.33679233758E+03 -0.26613630487E+03  0.21513296953E+01  0.43683686267E+03  0.81019781225E+02 0.  0.
         24    2    4    4    0    0 -0.31323611682E+03 -0.36183759836E+02 -0.11435776204E+04  0.11889075708E+04  0.79405973075E+02 0.  0.
         11    1    3    3    0    0  0.78890008641E+02  0.50694123527E+02  0.13324888501E+03  0.16293800348E+03  0.00000000000E+00 0.  1.
        -11    1    3    3    0    0  0.57113844576E+03  0.25162594118E+03  0.56907816480E+03  0.84460919729E+03  0.00000000000E+00 0. -1.
          2    1    6    6  502    0 -0.17310011327E+03 -0.36546964318E+02 -0.50375220882E+03  0.53391536567E+03  0.00000000000E+00 0. -1.
          1    1    5    5  503    0 -0.31933219078E+03 -0.23303694090E+03 -0.15143001062E+02  0.39561164590E+03  0.00000000000E+00 0. -1.
         -2    1    5    5    0  503 -0.17460146796E+02 -0.33099363970E+02  0.17294330757E+02  0.41225216770E+02  0.00000000000E+00 0.  1.
         -1    1    6    6    0  502 -0.14013600356E+03  0.36320448178E+00 -0.63982541159E+03  0.65499220509E+03  0.00000000000E+00 0.  1.
<mgrwt>
<rscale>  0 0.25964238E+04</rscale>
<asrwt>0</asrwt>
<pdfrwt beam="1">  1        2 0.16878403E+00 0.25964238E+04</pdfrwt>
<pdfrwt beam="2">  1       -2 0.23633776E+00 0.25964238E+04</pdfrwt>
<totfact> 0.15107845E+00</totfact>
</mgrwt>
</event>
<event>
12    1  0.1549527E-007  0.3161795E+04  0.7818608E-02  0.8198980E-01
         -2   -1    0    0    0  501 -0.00000000000E+00  0.00000000000E+00  0.80604596542E+03  0.80604596542E+03  0.00000000000E+00 0.  1.
          2   -1    0    0  501    0  0.00000000000E+00 -0.00000000000E+00 -0.31006137055E+04  0.31006137055E+04  0.00000000000E+00 0. -1.
         23    2    1    2    0    0  0.10895210447E+04  0.64801913472E+03 -0.18117723159E+03  0.12847186556E+04  0.10340178490E+03 0.  0.
        254    2    1    2    0    0 -0.10895210447E+04 -0.64801913472E+03 -0.21133905085E+04  0.26219410153E+04  0.89508119227E+03 0.  0.
        -24    2    4    4    0    0 -0.53225885601E+03 -0.65949051086E+03 -0.17656539235E+04  0.19602008606E+04  0.81402780500E+02 0.  0.
         24    2    4    4    0    0 -0.55726218864E+03  0.11471376147E+02 -0.34773658504E+03  0.66174015474E+03  0.79413855662E+02 0.  0.
         11    1    3    3    0    0  0.38598319407E+03  0.28632838477E+03 -0.56818881466E+02  0.48393734648E+03  0.00000000000E+00 0. -1.
        -11    1    3    3    0    0  0.70353785058E+03  0.36169074995E+03 -0.12435835012E+03  0.80078130912E+03  0.00000000000E+00 0.  1.
          4    1    6    6  502    0 -0.75735536640E+02  0.17171889723E+02 -0.76679007430E+02  0.10913485001E+03  0.00000000000E+00 0. -1.
          3    1    5    5  503    0 -0.46122115110E+02 -0.97796453353E+02 -0.24510783182E+03  0.26789782569E+03  0.00000000000E+00 0. -1.
         -4    1    5    5    0  503 -0.48613674090E+03 -0.56169405751E+03 -0.15205460917E+04  0.16923030349E+04  0.00000000000E+00 0.  1.
         -3    1    6    6    0  502 -0.48152665200E+03 -0.57005135756E+01 -0.27105757761E+03  0.55260530473E+03  0.00000000000E+00 0.  1.
<mgrwt>
<rscale>  0 0.31617952E+04</rscale>
<asrwt>0</asrwt>
<pdfrwt beam="1">  1        2 0.47701749E+00 0.31617952E+04</pdfrwt>
<pdfrwt beam="2">  1       -2 0.12400707E+00 0.31617952E+04</pdfrwt>
<totfact> 0.62076278E-01</totfact>
</mgrwt>
</event>
<event>
12    1  0.1549527E-007  0.1338819E+04  0.7818608E-02  0.8999336E-01
         -3   -1    0    0    0  501 -0.00000000000E+00  0.00000000000E+00  0.87469619066E+03  0.87469619066E+03  0.00000000000E+00 0.  1.
          3   -1    0    0  501    0  0.00000000000E+00 -0.00000000000E+00 -0.51230221295E+03  0.51230221295E+03  0.00000000000E+00 0. -1.
         23    2    1    2    0    0 -0.12019715255E+03  0.12152928647E+03 -0.23395519223E+03  0.30239949478E+03  0.86566156881E+02 0.  0.
        254    2    1    2    0    0  0.12019715255E+03 -0.12152928647E+03  0.59634916994E+03  0.10845989088E+04  0.88966608209E+03 0.  0.
        -24    2    4    4    0    0 -0.29855103593E+03 -0.30897590032E+03  0.33388694152E+03  0.54998906880E+03  0.80054094539E+02 0.  0.
         24    2    4    4    0    0  0.41874818848E+03  0.18744661385E+03  0.26246222842E+03  0.53460984004E+03  0.80218335311E+02 0.  0.
         11    1    3    3    0    0 -0.10118127086E+03  0.78014342212E+02 -0.21729497458E+03  0.25207338840E+03  0.00000000000E+00 0. -1.
        -11    1    3    3    0    0 -0.19015881687E+02  0.43514944261E+02 -0.16660217653E+02  0.50326106372E+02  0.00000000000E+00 0.  1.
          4    1    6    6  502    0  0.52747534348E+02  0.19599916174E+02  0.45856129398E+01  0.56457833291E+02  0.00000000000E+00 0. -1.
          3    1    5    5  503    0 -0.41453154231E+02 -0.23204120383E+02  0.66544999458E+02  0.81762045910E+02  0.00000000000E+00 0. -1.
         -4    1    5    5    0  503 -0.25709788170E+03 -0.28577177994E+03  0.26734194206E+03  0.46822702289E+03  0.00000000000E+00 0.  1.
         -3    1    6    6    0  502  0.36600065413E+03  0.16784669767E+03  0.25787661548E+03  0.47815200674E+03  0.00000000000E+00 0.  1.
<mgrwt>
<rscale>  0 0.13388186E+04</rscale>
<asrwt>0</asrwt>
<pdfrwt beam="1">  1        3 0.78815725E-01 0.13388186E+04</pdfrwt>
<pdfrwt beam="2">  1       -3 0.13456864E+00 0.13388186E+04</pdfrwt>
<totfact> 0.16401471E+00</totfact>
</mgrwt>
</event>
<event>
12    1  0.1549527E-007  0.2300147E+04  0.7818608E-02  0.8477863E-01
         -1   -1    0    0    0  501 -0.00000000000E+00  0.00000000000E+00  0.35272779065E+03  0.35272779065E+03  0.00000000000E+00 0.  1.
          1   -1    0    0  501    0  0.00000000000E+00 -0.00000000000E+00 -0.37498296783E+04  0.37498296783E+04  0.00000000000E+00 0. -1.
         23    2    1    2    0    0 -0.10089861778E+03 -0.20058767501E+03  0.24394159214E+03  0.34446221272E+03  0.93438585082E+02 0.  0.
        254    2    1    2    0    0  0.10089861778E+03  0.20058767501E+03 -0.36410434798E+04  0.37580952563E+04  0.90314250639E+03 0.  0.
        -24    2    4    4    0    0 -0.18797125336E+03  0.34488733260E+03 -0.30743362072E+04  0.31003510502E+04  0.79706057911E+02 0.  0.
         24    2    4    4    0    0  0.28886987114E+03 -0.14429965760E+03 -0.56670727265E+03  0.65774420604E+03  0.84865270122E+02 0.  0.
         11    1    3    3    0    0 -0.32163361099E+02 -0.12842457303E+03  0.86549728893E+02  0.15817145231E+03  0.00000000000E+00 0. -1.
        -11    1    3    3    0    0 -0.68735256684E+02 -0.72163101982E+02  0.15739186324E+03  0.18629076041E+03  0.00000000000E+00 0.  1.
          4    1    6    6  502    0  0.65071037011E+02  0.71548938136E+00 -0.14285597514E+03  0.15697955732E+03  0.00000000000E+00 0. -1.
          1    1    5    5  503    0 -0.15495521142E+02  0.11554389077E+01 -0.15926305379E+03  0.16001926921E+03  0.00000000000E+00 0. -1.
         -2    1    5    5    0  503 -0.17247573221E+03  0.34373189370E+03 -0.29150731534E+04  0.29403317810E+04  0.00000000000E+00 0.  1.
         -3    1    6    6    0  502  0.22379883413E+03 -0.14501514698E+03 -0.42385129751E+03  0.50076464872E+03  0.00000000000E+00 0.  1.
<mgrwt>
<rscale>  0 0.23001471E+04</rscale>
<asrwt>0</asrwt>
<pdfrwt beam="1">  1        1 0.57689689E+00 0.23001471E+04</pdfrwt>
<pdfrwt beam="2">  1       -1 0.54265812E-01 0.23001471E+04</pdfrwt>
<totfact> 0.48801866E-01</totfact>
</mgrwt>
</event>
<event>
12    1  0.1549527E-007  0.1497503E+04  0.7818608E-02  0.8886115E-01
          2   -1    0    0  501    0  0.00000000000E+00  0.00000000000E+00  0.76702970412E+03  0.76702970412E+03  0.00000000000E+00 0. -1.
         -2   -1    0    0    0  501 -0.00000000000E+00 -0.00000000000E+00 -0.73090850507E+03  0.73090850507E+03  0.00000000000E+00 0.  1.
         23    2    1    2    0    0 -0.93379158900E+02  0.27816242491E+03  0.40377576699E+03  0.50732224771E+03  0.90812945457E+02 0.  0.
        254    2    1    2    0    0  0.93379158900E+02 -0.27816242491E+03 -0.36765456794E+03  0.99061596148E+03  0.87181196359E+03 0.  0.
        -24    2    4    4    0    0  0.85410390093E+02 -0.56398488600E+03 -0.88587709603E+02  0.58274369390E+03  0.79803158489E+02 0.  0.
         24    2    4    4    0    0  0.79687688078E+01  0.28582246110E+03 -0.27906685834E+03  0.40787226758E+03  0.81996918815E+02 0.  0.
         11    1    3    3    0    0 -0.19453422009E+02  0.37823580553E+02  0.12430919117E+03  0.13138429846E+03  0.00000000000E+00 0. -1.
        -11    1    3    3    0    0 -0.73925736891E+02  0.24033884435E+03  0.27946657583E+03  0.37593794925E+03  0.00000000000E+00 0.  1.
          4    1    6    6  502    0 -0.43402605356E+01  0.28477729543E+03 -0.27085429145E+03  0.39303815724E+03  0.00000000000E+00 0. -1.
          1    1    5    5  503    0  0.85203050937E+02 -0.45286105767E+03 -0.43621526660E+02  0.46286664929E+03  0.00000000000E+00 0. -1.
         -2    1    5    5    0  503  0.20733915552E+00 -0.11112382834E+03 -0.44966182943E+02  0.11987704460E+03  0.00000000000E+00 0.  1.
         -3    1    6    6    0  502  0.12309029343E+02  0.10451656713E+01 -0.82125668884E+01  0.14834110339E+02  0.00000000000E+00 0.  1.
<mgrwt>
<rscale>  0 0.14975026E+04</rscale>
<asrwt>0</asrwt>
<pdfrwt beam="1">  1        2 0.11800457E+00 0.14975026E+04</pdfrwt>
<pdfrwt beam="2">  1       -2 0.11244746E+00 0.14975026E+04</pdfrwt>
<totfact> 0.21919710E+01</totfact>
</mgrwt>
</event>
<event>
12    1  0.1549527E-007  0.1467628E+04  0.7818608E-02  0.8906270E-01
          2   -1    0    0  501    0  0.00000000000E+00  0.00000000000E+00  0.11879447896E+04  0.11879447896E+04  0.00000000000E+00 0. -1.
         -2   -1    0    0    0  501 -0.00000000000E+00 -0.00000000000E+00 -0.45328937432E+03  0.45328937432E+03  0.00000000000E+00 0.  1.
         23    2    1    2    0    0 -0.69705443931E+02 -0.56589190619E+02 -0.26290141194E+03  0.29233115433E+03  0.90989922444E+02 0.  0.
        254    2    1    2    0    0  0.69705443931E+02  0.56589190619E+02  0.99755682724E+03  0.13489030096E+04  0.90352560581E+03 0.  0.
        -24    2    4    4    0    0  0.35721598162E+02  0.47005690324E+03  0.44640994615E+03  0.65450658189E+03  0.82870385880E+02 0.  0.
         24    2    4    4    0    0  0.33983845770E+02 -0.41346771262E+03  0.55114688109E+03  0.69439642772E+03  0.79454786731E+02 0.  0.
         11    1    3    3    0    0 -0.48488191139E+02  0.16535541456E+02 -0.11805906857E+03  0.12869526985E+03  0.00000000000E+00 0. -1.
        -11    1    3    3    0    0 -0.21217252793E+02 -0.73124732075E+02 -0.14484234337E+03  0.16363588449E+03  0.00000000000E+00 0.  1.
          2    1    6    6  502    0  0.31568579760E+02 -0.31861399316E+03  0.47452191441E+03  0.57243558513E+03  0.00000000000E+00 0. -1.
          3    1    5    5  503    0  0.19338716962E+02  0.32134731407E+03  0.24996824268E+03  0.40758091783E+03  0.00000000000E+00 0. -1.
         -4    1    5    5    0  503  0.16382881200E+02  0.14870958918E+03  0.19644170347E+03  0.24692566406E+03  0.00000000000E+00 0.  1.
         -1    1    6    6    0  502  0.24152660093E+01 -0.94853719467E+02  0.76624966680E+02  0.12196084259E+03  0.00000000000E+00 0.  1.
<mgrwt>
<rscale>  0 0.14676277E+04</rscale>
<asrwt>0</asrwt>
<pdfrwt beam="1">  1        2 0.18276074E+00 0.14676277E+04</pdfrwt>
<pdfrwt beam="2">  1       -2 0.69736827E-01 0.14676277E+04</pdfrwt>
<totfact> 0.34963310E+01</totfact>
</mgrwt>
</event>
<event>
12    1  0.1549527E-007  0.1319781E+04  0.7818608E-02  0.9014024E-01
         -1   -1    0    0    0  501 -0.00000000000E+00  0.00000000000E+00  0.46630286568E+03  0.46630286568E+03  0.00000000000E+00 0.  1.
          1   -1    0    0  501    0  0.00000000000E+00 -0.00000000000E+00 -0.93384631704E+03  0.93384631704E+03  0.00000000000E+00 0. -1.
         23    2    1    2    0    0  0.79779828242E+02  0.75466412892E+02 -0.47233810959E+03  0.49274223351E+03  0.87359134899E+02 0.  0.
        254    2    1    2    0    0 -0.79779828242E+02 -0.75466412892E+02  0.47946582253E+01  0.90740694920E+03  0.90072436530E+03 0.  0.
        -24    2    4    4    0    0  0.25586009373E+03  0.85443285528E+02 -0.30625877523E+03  0.41569774552E+03  0.79026803202E+02 0.  0.
         24    2    4    4    0    0 -0.33563992197E+03 -0.16090969842E+03  0.31105343346E+03  0.49170920368E+03  0.80483627216E+02 0.  0.
         13    1    3    3    0    0 -0.33232406103E+00 -0.95390232642E+01 -0.45178602686E+01  0.10560040981E+02  0.00000000000E+00 0.  1.
        -13    1    3    3    0    0  0.80112152303E+02  0.85005436156E+02 -0.46782024932E+03  0.48218219253E+03  0.00000000000E+00 0. -1.
          4    1    6    6  502    0 -0.53425217128E+02 -0.24127451137E+02  0.15182764448E+02  0.60554967260E+02  0.00000000000E+00 0. -1.
          3    1    5    5  503    0  0.20414109818E+01 -0.83538919781E+01 -0.26392532119E+01  0.89955837773E+01  0.00000000000E+00 0. -1.
         -4    1    5    5    0  503  0.25381868274E+03  0.93797177506E+02 -0.30361952202E+03  0.40670216175E+03  0.00000000000E+00 0.  1.
         -3    1    6    6    0  502 -0.28221470484E+03 -0.13678224728E+03  0.29587066901E+03  0.43115423642E+03  0.00000000000E+00 0.  1.
<mgrwt>
<rscale>  0 0.13197806E+04</rscale>
<asrwt>0</asrwt>
<pdfrwt beam="1">  1        1 0.14366866E+00 0.13197806E+04</pdfrwt>
<pdfrwt beam="2">  1       -1 0.71738903E-01 0.13197806E+04</pdfrwt>
<totfact> 0.32869204E+01</totfact>
</mgrwt>
</event>
<event>
12    1  0.1549527E-007  0.1146970E+04  0.7818608E-02  0.9160583E-01
         -1   -1    0    0    0  501 -0.00000000000E+00  0.00000000000E+00  0.39286267645E+03  0.39286267645E+03  0.00000000000E+00 0.  1.
          1   -1    0    0  501    0  0.00000000000E+00 -0.00000000000E+00 -0.83715072859E+03  0.83715072859E+03  0.00000000000E+00 0. -1.
         23    2    1    2    0    0 -0.16687464344E+03 -0.10779708100E+03 -0.14744343613E+03  0.26330239527E+03  0.90117851733E+02 0.  0.
        254    2    1    2    0    0  0.16687464344E+03  0.10779708100E+03 -0.29684461601E+03  0.96671100978E+03  0.89830178286E+03 0.  0.
        -24    2    4    4    0    0 -0.23250063375E+03 -0.26998075015E+03 -0.10989606374E+03  0.38095770649E+03  0.78137565631E+02 0.  0.
         24    2    4    4    0    0  0.39937527719E+03  0.37777783115E+03 -0.18694855227E+03  0.58575330329E+03  0.77074440578E+02 0.  0.
         13    1    3    3    0    0 -0.11514299704E+03 -0.46557860690E+02 -0.13276943604E+03  0.18180557556E+03  0.00000000000E+00 0. -1.
        -13    1    3    3    0    0 -0.51731646400E+02 -0.61239220307E+02 -0.14674000088E+02  0.81496819702E+02  0.00000000000E+00 0.  1.
          2    1    6    6  502    0  0.37394359164E+02  0.47210938719E+02 -0.45694865937E+02  0.75599150822E+02  0.00000000000E+00 0. -1.
          1    1    5    5  503    0 -0.28602063235E+02 -0.80059058833E+02 -0.13344166304E+02  0.86055782472E+02  0.00000000000E+00 0. -1.
         -2    1    5    5    0  503 -0.20389857051E+03 -0.18992169132E+03 -0.96551897434E+02  0.29490192402E+03  0.00000000000E+00 0.  1.
         -1    1    6    6    0  502  0.36198091802E+03  0.33056689243E+03 -0.14125368633E+03  0.51015415247E+03  0.00000000000E+00 0.  1.
<mgrwt>
<rscale>  0 0.11469704E+04</rscale>
<asrwt>0</asrwt>
<pdfrwt beam="1">  1        1 0.12879242E+00 0.11469704E+04</pdfrwt>
<pdfrwt beam="2">  1       -1 0.60440412E-01 0.11469704E+04</pdfrwt>
<totfact> 0.56636087E+01</totfact>
</mgrwt>
</event>
<event>
12    1  0.1549527E-007  0.2400592E+04  0.7818608E-02  0.8439282E-01
          4   -1    0    0  501    0  0.00000000000E+00  0.00000000000E+00  0.10055527214E+04  0.10055527214E+04  0.00000000000E+00 0. -1.
         -4   -1    0    0    0  501 -0.00000000000E+00 -0.00000000000E+00 -0.14327545461E+04  0.14327545461E+04  0.00000000000E+00 0.  1.
         23    2    1    2    0    0  0.75737325875E+03  0.69528916492E+03 -0.23416748311E+03  0.10582656192E+04  0.89724214232E+02 0.  0.
        254    2    1    2    0    0 -0.75737325875E+03 -0.69528916492E+03 -0.19303434162E+03  0.13800416484E+04  0.90011744691E+03 0.  0.
        -24    2    4    4    0    0  0.11285987375E+03 -0.82173472277E+01  0.16157061469E+03  0.21321899292E+03  0.80946893158E+02 0.  0.
         24    2    4    4    0    0 -0.87023313250E+03 -0.68707181769E+03 -0.35460495631E+03  0.11668226554E+04  0.79731089575E+02 0.  0.
         11    1    3    3    0    0  0.37409911343E+02  0.62799507120E+02 -0.73770303149E+01  0.73469042035E+02  0.00000000000E+00 0. -1.
        -11    1    3    3    0    0  0.71996334741E+03  0.63248965780E+03 -0.22679045280E+03  0.98479657713E+03  0.00000000000E+00 0.  1.
          2    1    6    6  502    0 -0.80173691580E+03 -0.65719518542E+03 -0.32469491012E+03  0.10863306948E+04  0.00000000000E+00 0. -1.
          1    1    5    5  503    0  0.87202043645E+02  0.23495606809E+02  0.14122847018E+03  0.16763567862E+03  0.00000000000E+00 0. -1.
         -2    1    5    5    0  503  0.25657830105E+02 -0.31712954037E+02  0.20342144500E+02  0.45583314297E+02  0.00000000000E+00 0.  1.
         -1    1    6    6    0  502 -0.68496216708E+02 -0.29876632272E+02 -0.29910046189E+02  0.80491960606E+02  0.00000000000E+00 0.  1.
<mgrwt>
<rscale>  0 0.24005918E+04</rscale>
<asrwt>0</asrwt>
<pdfrwt beam="1">  1        4 0.15470042E+00 0.24005918E+04</pdfrwt>
<pdfrwt beam="2">  1       -4 0.22042378E+00 0.24005918E+04</pdfrwt>
<totfact> 0.47716647E-02</totfact>
</mgrwt>
</event>
<event>
12    1  0.1549527E-007  0.2103458E+04  0.7818608E-02  0.8559722E-01
          2   -1    0    0  501    0  0.00000000000E+00  0.00000000000E+00  0.34052547081E+04  0.34052547081E+04  0.00000000000E+00 0.  1.
         -2   -1    0    0    0  501 -0.00000000000E+00 -0.00000000000E+00 -0.32483154976E+03  0.32483154976E+03  0.00000000000E+00 0. -1.
         23    2    1    2    0    0  0.73128790788E+02  0.38198168898E+03 -0.91572344602E+02  0.41002771561E+03  0.92083671275E+02 0.  0.
        254    2    1    2    0    0 -0.73128790788E+02 -0.38198168898E+03  0.31719955029E+04  0.33200585422E+04  0.89998634574E+03 0.  0.
        -24    2    4    4    0    0 -0.25756987181E+03  0.11813968611E+03  0.40313680657E+03  0.49918116579E+03  0.79770465497E+02 0.  0.
         24    2    4    4    0    0  0.18444108102E+03 -0.50012137509E+03  0.27688586964E+04  0.28208773765E+04  0.81429665276E+02 0.  0.
         11    1    3    3    0    0  0.43876893070E+02  0.31036239492E+03 -0.10687109916E+03  0.33116677031E+03  0.00000000000E+00 0. -1.
        -11    1    3    3    0    0  0.29251897718E+02  0.71619294060E+02  0.15298754559E+02  0.78860945295E+02  0.00000000000E+00 0.  1.
          2    1    6    6  502    0  0.16766495790E+03 -0.44304714136E+03  0.23013256789E+04  0.23495748951E+04  0.00000000000E+00 0. -1.
          1    1    5    5  503    0 -0.16118733462E+03  0.36829497126E+02  0.19326922704E+03  0.25434378864E+03  0.00000000000E+00 0. -1.
         -2    1    5    5    0  503 -0.96382537184E+02  0.81310188988E+02  0.20986757954E+03  0.24483737715E+03  0.00000000000E+00 0.  1.
         -1    1    6    6    0  502  0.16776123122E+02 -0.57074233726E+02  0.46753301748E+03  0.47130248131E+03  0.00000000000E+00 0.  1.
<mgrwt>
<rscale>  0 0.21034583E+04</rscale>
<asrwt>0</asrwt>
<pdfrwt beam="1">  1        2 0.52388531E+00 0.21034583E+04</pdfrwt>
<pdfrwt beam="2">  1       -2 0.49974087E-01 0.21034583E+04</pdfrwt>
<totfact> 0.33128480E+00</totfact>
</mgrwt>
</event>
<event>
12    1  0.1549527E-007  0.1769283E+04  0.7818608E-02  0.8722807E-01
          1   -1    0    0  501    0  0.00000000000E+00  0.00000000000E+00  0.25102770044E+04  0.25102770044E+04  0.00000000000E+00 0. -1.
         -1   -1    0    0    0  501 -0.00000000000E+00 -0.00000000000E+00 -0.31175471759E+03  0.31175471759E+03  0.00000000000E+00 0.  1.
         23    2    1    2    0    0  0.34951317315E+03 -0.46784756928E+03  0.37539169805E+03  0.70087569319E+03  0.96265279593E+02 0.  0.
        254    2    1    2    0    0 -0.34951317315E+03  0.46784756928E+03  0.18231305887E+04  0.21211560288E+04  0.91348615125E+03 0.  0.
        -24    2    4    4    0    0 -0.16371965476E+03  0.51764015036E+03  0.39056159826E+03  0.67350164110E+03  0.79439586545E+02 0.  0.
         24    2    4    4    0    0 -0.18579351839E+03 -0.49792581078E+02  0.14325689905E+04  0.14476543877E+04  0.80316754564E+02 0.  0.
         13    1    3    3    0    0  0.32315976322E+03 -0.45133672648E+03  0.32978156046E+03  0.64567247955E+03  0.00000000000E+00 0.  1.
        -13    1    3    3    0    0  0.26353409925E+02 -0.16510842802E+02  0.45610137592E+02  0.55203213637E+02  0.00000000000E+00 0. -1.
          2    1    6    6  502    0 -0.14506373964E+03 -0.26522836482E+02  0.12674955965E+04  0.12760454681E+04  0.00000000000E+00 0. -1.
          1    1    5    5  503    0 -0.16860186121E+03  0.51683725708E+03  0.38571731251E+03  0.66657721464E+03  0.00000000000E+00 0. -1.
         -2    1    5    5    0  503  0.48822064482E+01  0.80289328536E+00  0.48442857452E+01  0.69244264608E+01  0.00000000000E+00 0.  1.
         -1    1    6    6    0  502 -0.40729778751E+02 -0.23269744596E+02  0.16507339396E+03  0.17160891959E+03  0.00000000000E+00 0.  1.
<mgrwt>
<rscale>  0 0.17692831E+04</rscale>
<asrwt>0</asrwt>
<pdfrwt beam="1">  1        1 0.38619645E+00 0.17692831E+04</pdfrwt>
<pdfrwt beam="2">  1       -1 0.47962266E-01 0.17692831E+04</pdfrwt>
<totfact> 0.54837365E+00</totfact>
</mgrwt>
</event>
<event>
12    1  0.1549527E-007  0.1568146E+04  0.7818608E-02  0.8840360E-01
          2   -1    0    0  501    0  0.00000000000E+00  0.00000000000E+00  0.19476909320E+04  0.19476909320E+04  0.00000000000E+00 0. -1.
         -2   -1    0    0    0  501 -0.00000000000E+00 -0.00000000000E+00 -0.31564050797E+03  0.31564050797E+03  0.00000000000E+00 0.  1.
         23    2    1    2    0    0  0.44785699349E+03 -0.16054868005E+03  0.38605554068E+03  0.61948369086E+03  0.91484411046E+02 0.  0.
        254    2    1    2    0    0 -0.44785699349E+03  0.16054868005E+03  0.12459948834E+04  0.16438477492E+04  0.96092684825E+03 0.  0.
        -24    2    4    4    0    0  0.30197397369E+02 -0.17533489632E+03 -0.65860892102E+02  0.20547424115E+03  0.78916398763E+02 0.  0.
         24    2    4    4    0    0 -0.47805439086E+03  0.33588357637E+03  0.13118557755E+04  0.14383735080E+04  0.81234200547E+02 0.  0.
         13    1    3    3    0    0  0.52806881881E+02  0.52225220234E+01  0.22661224884E+02  0.57700715970E+02  0.00000000000E+00 0. -1.
        -13    1    3    3    0    0  0.39505011161E+03 -0.16577120208E+03  0.36339431580E+03  0.56178297489E+03  0.00000000000E+00 0.  1.
          2    1    6    6  502    0 -0.40712573894E+03  0.26514778950E+03  0.11440592286E+04  0.12429506169E+04  0.00000000000E+00 0. -1.
          1    1    5    5  503    0  0.13784165222E+02 -0.13747594594E+03 -0.13521803025E+02  0.13882535100E+03  0.00000000000E+00 0. -1.
         -2    1    5    5    0  503  0.16413232147E+02 -0.37858950379E+02 -0.52339089077E+02  0.66648890154E+02  0.00000000000E+00 0.  1.
         -1    1    6    6    0  502 -0.70928651919E+02  0.70735786872E+02  0.16779654694E+03  0.19542289112E+03  0.00000000000E+00 0.  1.
<mgrwt>
<rscale>  0 0.15681456E+04</rscale>
<asrwt>0</asrwt>
<pdfrwt beam="1">  1        2 0.29964475E+00 0.15681456E+04</pdfrwt>
<pdfrwt beam="2">  1       -2 0.48560079E-01 0.15681456E+04</pdfrwt>
<totfact> 0.27586266E+01</totfact>
</mgrwt>
</event>
<event>
12    1  0.1549527E-007  0.1495636E+04  0.7818608E-02  0.8887360E-01
         -1   -1    0    0    0  501 -0.00000000000E+00  0.00000000000E+00  0.52756685435E+03  0.52756685435E+03  0.00000000000E+00 0.  1.
          1   -1    0    0  501    0  0.00000000000E+00 -0.00000000000E+00 -0.10600202140E+04  0.10600202140E+04  0.00000000000E+00 0. -1.
         23    2    1    2    0    0  0.82035833709E+02  0.34008222466E+03  0.25186402156E+03  0.44146720250E+03  0.95247089121E+02 0.  0.
        254    2    1    2    0    0 -0.82035833709E+02 -0.34008222466E+03 -0.78431738120E+03  0.11461198658E+04  0.75898036526E+03 0.  0.
        -24    2    4    4    0    0 -0.37664237614E+02 -0.21491791313E+03 -0.91523568934E+03  0.94392481697E+03  0.75692726671E+02 0.  0.
         24    2    4    4    0    0 -0.44371596095E+02 -0.12516431153E+03  0.13091830814E+03  0.20219504886E+03  0.78155556148E+02 0.  0.
         13    1    3    3    0    0 -0.18402565667E+02  0.20360939529E+02  0.19044955804E+02  0.33405577726E+02  0.00000000000E+00 0.  1.
        -13    1    3    3    0    0  0.10043839938E+03  0.31972128513E+03  0.23281906576E+03  0.40806162478E+03  0.00000000000E+00 0. -1.
          2    1    6    6  502    0  0.13782300241E+02 -0.78010965350E+02  0.67008017443E+02  0.10375806916E+03  0.00000000000E+00 0. -1.
          1    1    5    5  503    0 -0.47179659675E+02 -0.93588665545E+02 -0.51663547828E+03  0.52715934595E+03  0.00000000000E+00 0. -1.
         -2    1    5    5    0  503  0.95154220614E+01 -0.12132924759E+03 -0.39860021106E+03  0.41676547102E+03  0.00000000000E+00 0.  1.
         -1    1    6    6    0  502 -0.58153896336E+02 -0.47153346178E+02  0.63910290697E+02  0.98436979697E+02  0.00000000000E+00 0.  1.
<mgrwt>
<rscale>  0 0.14956357E+04</rscale>
<asrwt>0</asrwt>
<pdfrwt beam="1">  1        1 0.16308003E+00 0.14956357E+04</pdfrwt>
<pdfrwt beam="2">  1       -1 0.81164132E-01 0.14956357E+04</pdfrwt>
<totfact> 0.19903947E+01</totfact>
</mgrwt>
</event>
<event>
12    1  0.1549527E-007  0.1789361E+04  0.7818608E-02  0.8711978E-01
          2   -1    0    0  501    0  0.00000000000E+00  0.00000000000E+00  0.16493689916E+04  0.16493689916E+04  0.00000000000E+00 0. -1.
         -2   -1    0    0    0  501 -0.00000000000E+00 -0.00000000000E+00 -0.48530886621E+03  0.48530886621E+03  0.00000000000E+00 0.  1.
         23    2    1    2    0    0 -0.11318407933E+03 -0.64467469567E+03  0.26601889102E+03  0.71266794457E+03  0.93345861153E+02 0.  0.
        254    2    1    2    0    0  0.11318407933E+03  0.64467469567E+03  0.89804123437E+03  0.14220099132E+04  0.88725308435E+03 0.  0.
        -24    2    4    4    0    0  0.37071108387E+03  0.72524686881E+03  0.70596737349E+03  0.10812825700E+04  0.85862305061E+02 0.  0.
         24    2    4    4    0    0 -0.25752700455E+03 -0.80572173146E+02  0.19207386089E+03  0.34072734320E+03  0.79941986538E+02 0.  0.
         11    1    3    3    0    0 -0.57200462709E+02 -0.11425297676E+03  0.49340043755E+02  0.13696742514E+03  0.00000000000E+00 0. -1.
        -11    1    3    3    0    0 -0.55983616617E+02 -0.53042171891E+03  0.21667884726E+03  0.57570051943E+03  0.00000000000E+00 0.  1.
          4    1    6    6  502    0 -0.61680060505E+02 -0.22727323961E+02  0.87735013270E+01  0.66316931803E+02  0.00000000000E+00 0. -1.
          3    1    5    5  503    0  0.14029421002E+02  0.61162273551E+01  0.21298389921E+02  0.26226976645E+02  0.00000000000E+00 0. -1.
         -4    1    5    5    0  503  0.35668166287E+03  0.71913064146E+03  0.68466898357E+03  0.10550555934E+04  0.00000000000E+00 0.  1.
         -3    1    6    6    0  502 -0.19584694404E+03 -0.57844849185E+02  0.18330035956E+03  0.27441041140E+03  0.00000000000E+00 0.  1.
<mgrwt>
<rscale>  0 0.17893612E+04</rscale>
<asrwt>0</asrwt>
<pdfrwt beam="1">  1        2 0.25374907E+00 0.17893612E+04</pdfrwt>
<pdfrwt beam="2">  1       -2 0.74662903E-01 0.17893612E+04</pdfrwt>
<totfact> 0.15947070E+01</totfact>
</mgrwt>
</event>
<event>
12    1  0.1549527E-007  0.2037197E+04  0.7818608E-02  0.8589425E-01
          2   -1    0    0  501    0  0.00000000000E+00  0.00000000000E+00  0.24006786004E+04  0.24006786004E+04  0.00000000000E+00 0. -1.
         -2   -1    0    0    0  501 -0.00000000000E+00 -0.00000000000E+00 -0.43218717610E+03  0.43218717610E+03  0.00000000000E+00 0.  1.
         23    2    1    2    0    0 -0.62243938538E+03  0.46486831020E+03  0.11387594392E+04  0.13816213496E+04  0.92580554425E+02 0.  0.
        254    2    1    2    0    0  0.62243938538E+03 -0.46486831020E+03  0.82973198513E+03  0.14512444269E+04  0.90228703038E+03 0.  0.
        -24    2    4    4    0    0  0.82771161352E+03 -0.47453748952E+03  0.58540340269E+03  0.11222411920E+04  0.80223469577E+02 0.  0.
         24    2    4    4    0    0 -0.20527222813E+03  0.96691793158E+01  0.24432858245E+03  0.32900323490E+03  0.79476359386E+02 0.  0.
         11    1    3    3    0    0 -0.49671584555E+03  0.39660325046E+03  0.87414168592E+03  0.10808073170E+04  0.00000000000E+00 0. -1.
        -11    1    3    3    0    0 -0.12572353983E+03  0.68265059742E+02  0.26461775327E+03  0.30081403258E+03  0.00000000000E+00 0.  1.
          2    1    6    6  502    0 -0.16899702141E+03 -0.45221913182E+01  0.14648992536E+03  0.22369564522E+03  0.00000000000E+00 0. -1.
          3    1    5    5  503    0  0.67976245729E+03 -0.35591727026E+03  0.48402875596E+03  0.90721438382E+03  0.00000000000E+00 0. -1.
         -4    1    5    5    0  503  0.14794915623E+03 -0.11862021925E+03  0.10137464673E+03  0.21502680820E+03  0.00000000000E+00 0.  1.
         -1    1    6    6    0  502 -0.36275206729E+02  0.14191370634E+02  0.97838657082E+02  0.10530758968E+03  0.00000000000E+00 0.  1.
<mgrwt>
<rscale>  0 0.20371966E+04</rscale>
<asrwt>0</asrwt>
<pdfrwt beam="1">  1        2 0.36933516E+00 0.20371966E+04</pdfrwt>
<pdfrwt beam="2">  1       -2 0.66490337E-01 0.20371966E+04</pdfrwt>
<totfact> 0.76505155E+00</totfact>
</mgrwt>
</event>
<event>
12    1  0.1549527E-007  0.1572951E+04  0.7818608E-02  0.8837339E-01
          2   -1    0    0  501    0  0.00000000000E+00  0.00000000000E+00  0.35108007573E+04  0.35108007573E+04  0.00000000000E+00 0.  1.
         -2   -1    0    0    0  501 -0.00000000000E+00 -0.00000000000E+00 -0.17618318478E+03  0.17618318478E+03  0.00000000000E+00 0. -1.
         23    2    1    2    0    0  0.47935533738E+03  0.23936277557E+03  0.11764213752E+04  0.12958964898E+04  0.91128384828E+02 0.  0.
        254    2    1    2    0    0 -0.47935533738E+03 -0.23936277557E+03  0.21581961973E+04  0.23910874523E+04  0.87886989958E+03 0.  0.
        -24    2    4    4    0    0 -0.48742645930E+03 -0.52122361224E+03  0.17199500594E+04  0.18639293536E+04  0.82132950152E+02 0.  0.
         24    2    4    4    0    0  0.80711219189E+01  0.28186083667E+03  0.43824613798E+03  0.52715809862E+03  0.79531812728E+02 0.  0.
         13    1    3    3    0    0  0.46462909060E+03  0.24578438652E+03  0.11196160262E+04  0.12368630493E+04  0.00000000000E+00 0. -1.
        -13    1    3    3    0    0  0.14726246782E+02 -0.64216109508E+01  0.56805348940E+02  0.59033440520E+02  0.00000000000E+00 0.  1.
          4    1    6    6  502    0 -0.24576879267E+02  0.86192227275E+02  0.94252813480E+02  0.13006427598E+03  0.00000000000E+00 0. -1.
          3    1    5    5  503    0 -0.12442246214E+03 -0.15908131256E+03  0.57399716943E+03  0.60849039730E+03  0.00000000000E+00 0. -1.
         -4    1    5    5    0  503 -0.36300399716E+03 -0.36214229968E+03  0.11459528899E+04  0.12554389564E+04  0.00000000000E+00 0.  1.
         -3    1    6    6    0  502  0.32648001186E+02  0.19566860939E+03  0.34399332450E+03  0.39709382264E+03  0.00000000000E+00 0.  1.
<mgrwt>
<rscale>  0 0.15729514E+04</rscale>
<asrwt>0</asrwt>
<pdfrwt beam="1">  1        2 0.54012314E+00 0.15729514E+04</pdfrwt>
<pdfrwt beam="2">  1       -2 0.27105108E-01 0.15729514E+04</pdfrwt>
<totfact> 0.96217843E+00</totfact>
</mgrwt>
</event>
<event>
12    1  0.1549527E-007  0.2017324E+04  0.7818608E-02  0.8598564E-01
          1   -1    0    0  501    0  0.00000000000E+00  0.00000000000E+00  0.16016125920E+04  0.16016125920E+04  0.00000000000E+00 0. -1.
         -1   -1    0    0    0  501 -0.00000000000E+00 -0.00000000000E+00 -0.63523400320E+03  0.63523400320E+03  0.00000000000E+00 0.  1.
         23    2    1    2    0    0 -0.57610475036E+02  0.37578801478E+03 -0.39849312764E+03  0.55834234465E+03  0.91726779961E+02 0.  0.
        254    2    1    2    0    0  0.57610475036E+02 -0.37578801478E+03  0.13648717164E+04  0.16785042505E+04  0.89998117640E+03 0.  0.
        -24    2    4    4    0    0  0.44889965265E+03 -0.20466097532E+03  0.48072681296E+03  0.69351781664E+03  0.80446754640E+02 0.  0.
         24    2    4    4    0    0 -0.39128917761E+03 -0.17112703946E+03  0.88414490345E+03  0.98498643389E+03  0.78066513232E+02 0.  0.
         13    1    3    3    0    0 -0.63756271257E+02  0.37205572644E+03 -0.40100815476E+03  0.55072485497E+03  0.00000000000E+00 0.  1.
        -13    1    3    3    0    0  0.61457962210E+01  0.37322883408E+01  0.25150271235E+01  0.76174896705E+01  0.00000000000E+00 0. -1.
          4    1    6    6  502    0 -0.17059726245E+03 -0.33066069944E+02  0.36191618955E+03  0.40147243890E+03  0.00000000000E+00 0. -1.
          3    1    5    5  503    0  0.78599452844E+02 -0.39057681845E+02  0.13235910521E+03  0.15881533059E+03  0.00000000000E+00 0. -1.
         -4    1    5    5    0  503  0.37030019980E+03 -0.16560329347E+03  0.34836770775E+03  0.53470248605E+03  0.00000000000E+00 0.  1.
         -3    1    6    6    0  502 -0.22069191516E+03 -0.13806096952E+03  0.52222871390E+03  0.58351399499E+03  0.00000000000E+00 0.  1.
<mgrwt>
<rscale>  0 0.20173238E+04</rscale>
<asrwt>0</asrwt>
<pdfrwt beam="1">  1        1 0.24640194E+00 0.20173238E+04</pdfrwt>
<pdfrwt beam="2">  1       -1 0.97728309E-01 0.20173238E+04</pdfrwt>
<totfact> 0.51777666E+00</totfact>
</mgrwt>
</event>
<event>
12    1  0.2026951E-007  0.1697327E+04  0.7818608E-02  0.8762890E-01
          1   -1    0    0  501    0  0.00000000000E+00  0.00000000000E+00  0.13804328063E+04  0.13804328063E+04  0.00000000000E+00 0. -1.
         -1   -1    0    0    0  501 -0.00000000000E+00 -0.00000000000E+00 -0.52174200441E+03  0.52174200441E+03  0.00000000000E+00 0.  1.
         23    2    1    2    0    0 -0.30498973163E+03 -0.11421531367E+02 -0.28057243120E+03  0.42345515608E+03  0.86279732772E+02 0.  0.
        254    2    1    2    0    0  0.30498973163E+03  0.11421531367E+02  0.11392632331E+04  0.14787196546E+04  0.89193156404E+03 0.  0.
        -24    2    4    4    0    0  0.12365979135E+03 -0.45384033534E+02 -0.12648917349E+03  0.19626742776E+03  0.71902278768E+02 0.  0.
         24    2    4    4    0    0  0.18132994028E+03  0.56805564901E+02  0.12657524065E+04  0.12824522268E+04  0.80294084524E+02 0.  0.
         11    1    3    3    0    0 -0.63917288018E+02 -0.51667999555E+01 -0.11256025214E+03  0.12954507282E+03  0.00000000000E+00 0. -1.
        -11    1    3    3    0    0 -0.24107244361E+03 -0.62547314117E+01 -0.16801217906E+03  0.29391008327E+03  0.00000000000E+00 0.  1.
          2    1    6    6  502    0  0.15213617474E+03  0.77137228950E+02  0.10644543325E+04  0.10780345977E+04  0.00000000000E+00 0. -1.
          1    1    5    5  503    0  0.10630348577E+03 -0.62930883239E+02 -0.11596666117E+03  0.16943728532E+03  0.00000000000E+00 0. -1.
         -2    1    5    5    0  503  0.17356305573E+02  0.17546849706E+02 -0.10522512321E+02  0.26830142438E+02  0.00000000000E+00 0.  1.
         -1    1    6    6    0  502  0.29193765543E+02 -0.20331664050E+02  0.20129807403E+03  0.20441762917E+03  0.00000000000E+00 0.  1.
<mgrwt>
<rscale>  0 0.16973271E+04</rscale>
<asrwt>0</asrwt>
<pdfrwt beam="1">  1        1 0.21237428E+00 0.16973271E+04</pdfrwt>
<pdfrwt beam="2">  1       -1 0.80268001E-01 0.16973271E+04</pdfrwt>
<totfact> 0.11691177E+01</totfact>
</mgrwt>
</event>
<event>
12    1  0.1549527E-007  0.2399294E+04  0.7818608E-02  0.8439768E-01
          2   -1    0    0  501    0  0.00000000000E+00  0.00000000000E+00  0.10125564154E+04  0.10125564154E+04  0.00000000000E+00 0. -1.
         -2   -1    0    0    0  501 -0.00000000000E+00 -0.00000000000E+00 -0.14213067435E+04  0.14213067435E+04  0.00000000000E+00 0.  1.
         23    2    1    2    0    0 -0.34899052832E+02  0.85231071083E+03 -0.75965278980E+03  0.11458690785E+04  0.91060926346E+02 0.  0.
        254    2    1    2    0    0  0.34899052832E+02 -0.85231071083E+03  0.35090246172E+03  0.12879940804E+04  0.89896869904E+03 0.  0.
        -24    2    4    4    0    0  0.20826049923E+03 -0.62875901188E+03 -0.17022109476E+03  0.68970857921E+03  0.89511857139E+02 0.  0.
         24    2    4    4    0    0 -0.17336144640E+03 -0.22355169895E+03  0.52112355648E+03  0.59828550120E+03  0.79663207516E+02 0.  0.
         11    1    3    3    0    0 -0.17933333778E+01  0.61221794355E+03 -0.58816155426E+03  0.84896881000E+03  0.00000000000E+00 0. -1.
        -11    1    3    3    0    0 -0.33105719454E+02  0.24009276728E+03 -0.17149123554E+03  0.29690026849E+03  0.00000000000E+00 0.  1.
          2    1    6    6  502    0 -0.76058409738E+02 -0.60426091562E+02  0.11942097006E+03  0.15394012577E+03  0.00000000000E+00 0. -1.
          3    1    5    5  503    0  0.11459874388E+03 -0.21090130933E+03 -0.67461219978E+02  0.24932559150E+03  0.00000000000E+00 0. -1.
         -4    1    5    5    0  503  0.93661755353E+02 -0.41785770255E+03 -0.10275987478E+03  0.44038298771E+03  0.00000000000E+00 0.  1.
         -1    1    6    6    0  502 -0.97303036660E+02 -0.16312560739E+03  0.40170258642E+03  0.44434537543E+03  0.00000000000E+00 0.  1.
<mgrwt>
<rscale>  0 0.23992943E+04</rscale>
<asrwt>0</asrwt>
<pdfrwt beam="1">  1        2 0.15577791E+00 0.23992943E+04</pdfrwt>
<pdfrwt beam="2">  1       -2 0.21866257E+00 0.23992943E+04</pdfrwt>
<totfact> 0.22405557E+00</totfact>
</mgrwt>
</event>
<event>
12    1  0.1549527E-007  0.1246409E+04  0.7818608E-02  0.9073177E-01
          1   -1    0    0  501    0  0.00000000000E+00  0.00000000000E+00  0.71522814026E+03  0.71522814026E+03  0.00000000000E+00 0. -1.
         -1   -1    0    0    0  501 -0.00000000000E+00 -0.00000000000E+00 -0.54302134672E+03  0.54302134672E+03  0.00000000000E+00 0.  1.
         23    2    1    2    0    0 -0.94212216894E+02 -0.92141690039E+02 -0.22495183644E+03  0.27424032511E+03  0.85078753768E+02 0.  0.
        254    2    1    2    0    0  0.94212216894E+02  0.92141690039E+02  0.39715862998E+03  0.98400916187E+03  0.89060261645E+03 0.  0.
        -24    2    4    4    0    0 -0.15627452938E+03  0.34056951619E+03  0.47793132899E+03  0.61333516206E+03  0.85745798125E+02 0.  0.
         24    2    4    4    0    0  0.25048674627E+03 -0.24842782615E+03 -0.80772699010E+02  0.37067399981E+03  0.80093635000E+02 0.  0.
         13    1    3    3    0    0 -0.76066180319E+02 -0.80372776892E+02 -0.22697821967E+03  0.25251724547E+03  0.00000000000E+00 0.  1.
        -13    1    3    3    0    0 -0.18146036575E+02 -0.11768913146E+02  0.20263832326E+01  0.21723079640E+02  0.00000000000E+00 0. -1.
          4    1    6    6  502    0  0.10650887526E+03 -0.57482588926E+02 -0.10840879752E+02  0.12151507401E+03  0.00000000000E+00 0. -1.
          1    1    5    5  503    0 -0.91548950081E+02  0.12143529555E+03  0.23423472507E+03  0.27927342819E+03  0.00000000000E+00 0. -1.
         -2    1    5    5    0  503 -0.64725579299E+02  0.21913422064E+03  0.24369660392E+03  0.33406173387E+03  0.00000000000E+00 0.  1.
         -3    1    6    6    0  502  0.14397787101E+03 -0.19094523723E+03 -0.69931819258E+02  0.24915892580E+03  0.00000000000E+00 0.  1.
<mgrwt>
<rscale>  0 0.12464095E+04</rscale>
<asrwt>0</asrwt>
<pdfrwt beam="1">  1        1 0.11003510E+00 0.12464095E+04</pdfrwt>
<pdfrwt beam="2">  1       -1 0.83541745E-01 0.12464095E+04</pdfrwt>
<totfact> 0.36979739E+01</totfact>
</mgrwt>
</event>
<event>
12    1  0.1549527E-007  0.2031808E+04  0.7818608E-02  0.8591892E-01
         -1   -1    0    0    0  501 -0.00000000000E+00  0.00000000000E+00  0.38346253230E+03  0.38346253230E+03  0.00000000000E+00 0.  1.
          1   -1    0    0  501    0  0.00000000000E+00 -0.00000000000E+00 -0.26914247344E+04  0.26914247344E+04  0.00000000000E+00 0. -1.
         23    2    1    2    0    0  0.89526706050E+02 -0.57634156234E+03 -0.70133184744E+02  0.59430797614E+03  0.89992662628E+02 0.  0.
        254    2    1    2    0    0 -0.89526706050E+02  0.57634156234E+03 -0.22378290174E+04  0.24805792906E+04  0.89733509810E+03 0.  0.
        -24    2    4    4    0    0  0.37280171111E+03  0.22428925491E+03 -0.63401875647E+03  0.77289165209E+03  0.78070075173E+02 0.  0.
         24    2    4    4    0    0 -0.46232841716E+03  0.35205230743E+03 -0.16038102609E+04  0.17076876385E+04  0.79380886842E+02 0.  0.
         13    1    3    3    0    0 -0.18536089224E+02 -0.98030729721E+02 -0.99554399759E+01  0.10026326026E+03  0.00000000000E+00 0. -1.
        -13    1    3    3    0    0  0.10806279527E+03 -0.47831083262E+03 -0.60177744768E+02  0.49404471588E+03  0.00000000000E+00 0.  1.
          4    1    6    6  502    0 -0.11557758190E+03  0.99408847758E+02 -0.52540034488E+03  0.54707021382E+03  0.00000000000E+00 0. -1.
          3    1    5    5  503    0  0.89649692247E+02  0.28941851175E+02 -0.18120445224E+03  0.20422965402E+03  0.00000000000E+00 0. -1.
         -4    1    5    5    0  503  0.28315201887E+03  0.19534740374E+03 -0.45281430423E+03  0.56866199807E+03  0.00000000000E+00 0.  1.
         -3    1    6    6    0  502 -0.34675083527E+03  0.25264345967E+03 -0.10784099160E+04  0.11606174247E+04  0.00000000000E+00 0.  1.
<mgrwt>
<rscale>  0 0.20318076E+04</rscale>
<asrwt>0</asrwt>
<pdfrwt beam="1">  1        1 0.41406533E+00 0.20318076E+04</pdfrwt>
<pdfrwt beam="2">  1       -1 0.58994238E-01 0.20318076E+04</pdfrwt>
<totfact> 0.26833538E+00</totfact>
</mgrwt>
</event>
<event>
12    1  0.1549527E-007  0.1603129E+04  0.7818608E-02  0.8818628E-01
         -2   -1    0    0    0  501 -0.00000000000E+00  0.00000000000E+00  0.11626334545E+04  0.11626334545E+04  0.00000000000E+00 0.  1.
          2   -1    0    0  501    0  0.00000000000E+00 -0.00000000000E+00 -0.55262980786E+03  0.55262980786E+03  0.00000000000E+00 0. -1.
         23    2    1    2    0    0  0.86465459329E+02 -0.28108002820E+03  0.69658241442E+03  0.76165840900E+03  0.91729024908E+02 0.  0.
        254    2    1    2    0    0 -0.86465459329E+02  0.28108002820E+03 -0.86578767764E+02  0.95360485338E+03  0.90298619893E+03 0.  0.
        -24    2    4    4    0    0  0.28752249758E+03  0.42474720795E+03 -0.14920869188E+03  0.54051313378E+03  0.82533852300E+02 0.  0.
         24    2    4    4    0    0 -0.37398795691E+03 -0.14366717975E+03  0.62629924117E+02  0.41309171960E+03  0.78835340794E+02 0.  0.
         13    1    3    3    0    0  0.79241062914E+02 -0.26587493526E+03  0.56966989129E+03  0.63363428908E+03  0.00000000000E+00 0.  1.
        -13    1    3    3    0    0  0.72243964143E+01 -0.15205092942E+02  0.12691252313E+03  0.12802411993E+03  0.00000000000E+00 0. -1.
          4    1    6    6  502    0 -0.14243205033E+03 -0.92371310408E+02  0.94033365699E+01  0.17002285343E+03  0.00000000000E+00 0. -1.
          1    1    5    5  503    0  0.26522255731E+03  0.41856479603E+03 -0.14876112113E+03  0.51736772661E+03  0.00000000000E+00 0. -1.
         -2    1    5    5    0  503  0.22299940275E+02  0.61824119266E+01 -0.44757075235E+00  0.23145407170E+02  0.00000000000E+00 0.  1.
         -3    1    6    6    0  502 -0.23155590658E+03 -0.51295869341E+02  0.53226587548E+02  0.24306886617E+03  0.00000000000E+00 0.  1.
<mgrwt>
<rscale>  0 0.16031293E+04</rscale>
<asrwt>0</asrwt>
<pdfrwt beam="1">  1        2 0.85019971E-01 0.16031293E+04</pdfrwt>
<pdfrwt beam="2">  1       -2 0.17886669E+00 0.16031293E+04</pdfrwt>
<totfact> 0.96799788E+00</totfact>
</mgrwt>
</event>
<event>
12    1  0.1549527E-007  0.1510904E+04  0.7818608E-02  0.8877234E-01
          2   -1    0    0  501    0  0.00000000000E+00  0.00000000000E+00  0.10671291986E+04  0.10671291986E+04  0.00000000000E+00 0. -1.
         -2   -1    0    0    0  501 -0.00000000000E+00 -0.00000000000E+00 -0.53480675100E+03  0.53480675100E+03  0.00000000000E+00 0.  1.
         23    2    1    2    0    0 -0.18513958983E+03  0.41433295631E+03  0.33500985048E+03  0.57152136197E+03  0.91959778511E+02 0.  0.
        254    2    1    2    0    0  0.18513958983E+03 -0.41433295631E+03  0.19731259716E+03  0.10304145877E+04  0.90381054159E+03 0.  0.
        -24    2    4    4    0    0 -0.12728249185E+02 -0.57179007096E+03  0.39498475523E+03  0.69970050211E+03  0.80386206583E+02 0.  0.
         24    2    4    4    0    0  0.19786783902E+03  0.15745711465E+03 -0.19767215807E+03  0.33071408557E+03  0.79706333809E+02 0.  0.
         13    1    3    3    0    0 -0.24105527443E+02  0.51686231262E+02  0.85016857741E+01  0.57661266170E+02  0.00000000000E+00 0. -1.
        -13    1    3    3    0    0 -0.16103406239E+03  0.36264672505E+03  0.32650816471E+03  0.51386009580E+03  0.00000000000E+00 0.  1.
          4    1    6    6  502    0  0.11335511598E+02  0.30297469779E+02 -0.27681910944E+01  0.32466804279E+02  0.00000000000E+00 0. -1.
          1    1    5    5  503    0  0.76529592551E+01 -0.11646224113E+02 -0.10556625660E+00  0.13936049142E+02  0.00000000000E+00 0. -1.
         -2    1    5    5    0  503 -0.20381208440E+02 -0.56014384684E+03  0.39509032149E+03  0.68576445296E+03  0.00000000000E+00 0.  1.
         -3    1    6    6    0  502  0.18653232742E+03  0.12715964487E+03 -0.19490396698E+03  0.29824728129E+03  0.00000000000E+00 0.  1.
<mgrwt>
<rscale>  0 0.15109042E+04</rscale>
<asrwt>0</asrwt>
<pdfrwt beam="1">  1        2 0.16417372E+00 0.15109042E+04</pdfrwt>
<pdfrwt beam="2">  1       -2 0.82277962E-01 0.15109042E+04</pdfrwt>
<totfact> 0.28607972E+01</totfact>
</mgrwt>
</event>
<event>
12    1  0.1549527E-007  0.1416566E+04  0.7818608E-02  0.8941914E-01
         -2   -1    0    0    0  501 -0.00000000000E+00  0.00000000000E+00  0.25920453814E+03  0.25920453814E+03  0.00000000000E+00 0.  1.
          2   -1    0    0  501    0  0.00000000000E+00 -0.00000000000E+00 -0.19354009437E+04  0.19354009437E+04  0.00000000000E+00 0. -1.
         23    2    1    2    0    0  0.13822668909E+03  0.38508657553E+03 -0.41200017979E+03  0.59015718740E+03  0.10556073829E+03 0.  0.
        254    2    1    2    0    0 -0.13822668909E+03 -0.38508657553E+03 -0.12641962258E+04  0.16044482945E+04  0.89925744036E+03 0.  0.
        -24    2    4    4    0    0 -0.22748597347E+03 -0.29036198773E+03 -0.49297454165E+02  0.38056949377E+03  0.79642630287E+02 0.  0.
         24    2    4    4    0    0  0.89259284379E+02 -0.94724587802E+02 -0.12148987717E+04  0.12238788007E+04  0.70429582379E+02 0.  0.
         13    1    3    3    0    0  0.17059720914E+02  0.15950838148E+02 -0.65631965695E+02  0.69663607690E+02  0.00000000000E+00 0. -1.
        -13    1    3    3    0    0  0.12116696817E+03  0.36913573738E+03 -0.34636821409E+03  0.52049357972E+03  0.00000000000E+00 0.  1.
          4    1    6    6  502    0  0.73887790841E+02 -0.98896928132E+02 -0.11644455759E+04  0.11709711812E+04  0.00000000000E+00 0. -1.
          3    1    5    5  503    0 -0.81922866546E+02 -0.72704721017E+02  0.16025415573E+02  0.11069844834E+03  0.00000000000E+00 0. -1.
         -2    1    5    5    0  503 -0.14556310692E+03 -0.21765726671E+03 -0.65322869738E+02  0.26987104543E+03  0.00000000000E+00 0.  1.
         -3    1    6    6    0  502  0.15371493538E+02  0.41723403302E+01 -0.50453195752E+02  0.52907619480E+02  0.00000000000E+00 0.  1.
<mgrwt>
<rscale>  0 0.14165659E+04</rscale>
<asrwt>0</asrwt>
<pdfrwt beam="1">  1        2 0.29775398E+00 0.14165659E+04</pdfrwt>
<pdfrwt beam="2">  1       -2 0.39877622E-01 0.14165659E+04</pdfrwt>
<totfact> 0.41992507E+01</totfact>
</mgrwt>
</event>
<event>
12    1  0.2278796E-007  0.1757835E+04  0.7818608E-02  0.8729050E-01
          2   -1    0    0  501    0  0.00000000000E+00  0.00000000000E+00  0.20969572779E+04  0.20969572779E+04  0.00000000000E+00 0. -1.
         -2   -1    0    0    0  501 -0.00000000000E+00 -0.00000000000E+00 -0.36838884867E+03  0.36838884867E+03  0.00000000000E+00 0.  1.
         23    2    1    2    0    0  0.46473273508E+03 -0.14490654125E+03  0.12206367117E+04  0.13172633137E+04  0.90852819827E+02 0.  0.
        254    2    1    2    0    0 -0.46473273508E+03  0.14490654125E+03  0.50793171751E+03  0.11480828129E+04  0.90726241782E+03 0.  0.
        -24    2    4    4    0    0 -0.13214740090E+03  0.41378116160E+03 -0.44942465899E+02  0.44456537204E+03  0.83311220814E+02 0.  0.
         24    2    4    4    0    0 -0.33258533418E+03 -0.26887462035E+03  0.55287418341E+03  0.70351744083E+03  0.79751870772E+02 0.  0.
         11    1    3    3    0    0  0.41516067180E+03 -0.13968122336E+03  0.11517567160E+04  0.12322389218E+04  0.00000000000E+00 0. -1.
        -11    1    3    3    0    0  0.49572063281E+02 -0.52253178930E+01  0.68879995657E+02  0.85024391834E+02  0.00000000000E+00 0.  1.
          2    1    6    6  502    0 -0.96770305477E+01  0.31194740394E+01  0.37203584928E+01  0.10826684895E+02  0.00000000000E+00 0. -1.
          1    1    5    5  503    0 -0.45970477187E+00  0.49777665069E+01 -0.12954516436E+02  0.13885567470E+02  0.00000000000E+00 0. -1.
         -2    1    5    5    0  503 -0.13168769613E+03  0.40880339510E+03 -0.31987949463E+02  0.43067980457E+03  0.00000000000E+00 0.  1.
         -1    1    6    6    0  502 -0.32290830363E+03 -0.27199409439E+03  0.54915382492E+03  0.69269075593E+03  0.00000000000E+00 0.  1.
<mgrwt>
<rscale>  0 0.17578347E+04</rscale>
<asrwt>0</asrwt>
<pdfrwt beam="1">  1        2 0.32260881E+00 0.17578347E+04</pdfrwt>
<pdfrwt beam="2">  1       -2 0.56675209E-01 0.17578347E+04</pdfrwt>
<totfact> 0.16319957E+01</totfact>
</mgrwt>
</event>
<event>
12    1  0.1549527E-007  0.1795458E+04  0.7818608E-02  0.8708718E-01
         -2   -1    0    0    0  501 -0.00000000000E+00  0.00000000000E+00  0.41163467201E+03  0.41163467201E+03  0.00000000000E+00 0.  1.
          2   -1    0    0  501    0  0.00000000000E+00 -0.00000000000E+00 -0.19578470420E+04  0.19578470420E+04  0.00000000000E+00 0. -1.
         23    2    1    2    0    0  0.14188656142E+03  0.28010235011E+03 -0.13628024233E+04  0.14015478360E+04  0.92286340888E+02 0.  0.
        254    2    1    2    0    0 -0.14188656142E+03 -0.28010235011E+03 -0.18340994673E+03  0.96793387808E+03  0.89703269780E+03 0.  0.
        -24    2    4    4    0    0  0.13801994506E+02  0.16892189818E+03 -0.39806143335E+03  0.44033853552E+03  0.81975718407E+02 0.  0.
         24    2    4    4    0    0 -0.15568855593E+03 -0.44902424829E+03  0.21465148662E+03  0.52759534256E+03  0.80124171012E+02 0.  0.
         13    1    3    3    0    0 -0.11459152191E+02  0.94888312304E+01 -0.94384241002E+02  0.95549646972E+02  0.00000000000E+00 0.  1.
        -13    1    3    3    0    0  0.15334571362E+03  0.27061351888E+03 -0.12684181823E+04  0.13059981890E+04  0.00000000000E+00 0. -1.
          2    1    6    6  502    0 -0.59308954322E+02 -0.75719358061E+02  0.36427173779E+02  0.10284897781E+03  0.00000000000E+00 0. -1.
          3    1    5    5  503    0 -0.25759206500E+01  0.10296038655E+02  0.93480753975E+00  0.10654465933E+02  0.00000000000E+00 0. -1.
         -2    1    5    5    0  503  0.16377915156E+02  0.15862585953E+03 -0.39899624089E+03  0.42968406959E+03  0.00000000000E+00 0.  1.
         -3    1    6    6    0  502 -0.96379601608E+02 -0.37330489023E+03  0.17822431284E+03  0.42474636474E+03  0.00000000000E+00 0.  1.
<mgrwt>
<rscale>  0 0.17954584E+04</rscale>
<asrwt>0</asrwt>
<pdfrwt beam="1">  1        2 0.30120724E+00 0.17954584E+04</pdfrwt>
<pdfrwt beam="2">  1       -2 0.63328411E-01 0.17954584E+04</pdfrwt>
<totfact> 0.15375163E+01</totfact>
</mgrwt>
</event>
<event>
12    1  0.1549527E-007  0.2133455E+04  0.7818608E-02  0.8546648E-01
          2   -1    0    0  501    0  0.00000000000E+00  0.00000000000E+00  0.11782421042E+04  0.11782421042E+04  0.00000000000E+00 0. -1.
         -2   -1    0    0    0  501 -0.00000000000E+00 -0.00000000000E+00 -0.96576754363E+03  0.96576754363E+03  0.00000000000E+00 0.  1.
         23    2    1    2    0    0 -0.13883542463E+03  0.19560936689E+03  0.91968858023E+03  0.95513515568E+03  0.94434005839E+02 0.  0.
        254    2    1    2    0    0  0.13883542463E+03 -0.19560936689E+03 -0.70721401965E+03  0.11888744922E+04  0.92505815437E+03 0.  0.
        -24    2    4    4    0    0  0.12469469687E+03 -0.13367662027E+03  0.19625043435E+03  0.27971985808E+03  0.79440290696E+02 0.  0.
         24    2    4    4    0    0  0.14140727759E+02 -0.61932746624E+02 -0.90346445400E+03  0.90915463408E+03  0.79237009901E+02 0.  0.
         11    1    3    3    0    0 -0.77040797378E+02  0.17006385511E+03  0.59387129901E+03  0.62252720348E+03  0.00000000000E+00 0. -1.
        -11    1    3    3    0    0 -0.61794627247E+02  0.25545511785E+02  0.32581728122E+03  0.33260795221E+03  0.00000000000E+00 0.  1.
          4    1    6    6  502    0 -0.73421570095E+01 -0.74309246771E+02 -0.58901126174E+03  0.59372555771E+03  0.00000000000E+00 0. -1.
          3    1    5    5  503    0  0.65702996322E+02 -0.10915293608E+03  0.90876852733E+02  0.15649233062E+03  0.00000000000E+00 0. -1.
         -4    1    5    5    0  503  0.58991700544E+02 -0.24523684186E+02  0.10537358162E+03  0.12322752745E+03  0.00000000000E+00 0.  1.
         -3    1    6    6    0  502  0.21482884769E+02  0.12376500147E+02 -0.31445319227E+03  0.31542907637E+03  0.00000000000E+00 0.  1.
<mgrwt>
<rscale>  0 0.21334554E+04</rscale>
<asrwt>0</asrwt>
<pdfrwt beam="1">  1        2 0.18126802E+00 0.21334554E+04</pdfrwt>
<pdfrwt beam="2">  1       -2 0.14857962E+00 0.21334554E+04</pdfrwt>
<totfact> 0.55124552E+00</totfact>
</mgrwt>
</event>
<event>
12    1  0.1549527E-007  0.1560103E+04  0.7818608E-02  0.8845440E-01
          1   -1    0    0  501    0  0.00000000000E+00  0.00000000000E+00  0.36661624241E+03  0.36661624241E+03  0.00000000000E+00 0. -1.
         -1   -1    0    0    0  501 -0.00000000000E+00 -0.00000000000E+00 -0.16597201151E+04  0.16597201151E+04  0.00000000000E+00 0.  1.
         23    2    1    2    0    0  0.26484549838E+03  0.75645556937E+02  0.17007119229E+03  0.33599549299E+03  0.90018734522E+02 0.  0.
        254    2    1    2    0    0 -0.26484549838E+03 -0.75645556937E+02 -0.14631750650E+04  0.16903408646E+04  0.80031592463E+03 0.  0.
        -24    2    4    4    0    0  0.12632855906E+02 -0.59563314208E+02 -0.13878097589E+04  0.13913729461E+04  0.78710677417E+02 0.  0.
         24    2    4    4    0    0 -0.27747835428E+03 -0.16082242730E+02 -0.75365306127E+02  0.29896791849E+03  0.80305736338E+02 0.  0.
         13    1    3    3    0    0  0.41245206793E+02  0.30758031387E+02 -0.85931503255E-01  0.51451248405E+02  0.00000000000E+00 0.  1.
        -13    1    3    3    0    0  0.22360029158E+03  0.44887525550E+02  0.17015712379E+03  0.28454424458E+03  0.00000000000E+00 0. -1.
          2    1    6    6  502    0 -0.84351083182E+02 -0.34226563407E+02 -0.46475609713E+00  0.91031746522E+02  0.00000000000E+00 0. -1.
          1    1    5    5  503    0  0.15254881971E+02 -0.43164138674E+02 -0.13396151973E+04  0.13403972288E+04  0.00000000000E+00 0. -1.
         -2    1    5    5    0  503 -0.26220260656E+01 -0.16399175534E+02 -0.48194561647E+02  0.50975717270E+02  0.00000000000E+00 0.  1.
         -1    1    6    6    0  502 -0.19312727110E+03  0.18144320678E+02 -0.74900550030E+02  0.20793617196E+03  0.00000000000E+00 0.  1.
<mgrwt>
<rscale>  0 0.15601030E+04</rscale>
<asrwt>0</asrwt>
<pdfrwt beam="1">  1        1 0.56402499E-01 0.15601030E+04</pdfrwt>
<pdfrwt beam="2">  1       -1 0.25534156E+00 0.15601030E+04</pdfrwt>
<totfact> 0.41749034E+00</totfact>
</mgrwt>
</event>
<event>
12    1  0.1549527E-007  0.1348186E+04  0.7818608E-02  0.8992203E-01
         -2   -1    0    0    0  501 -0.00000000000E+00  0.00000000000E+00  0.55628082274E+03  0.55628082274E+03  0.00000000000E+00 0.  1.
          2   -1    0    0  501    0  0.00000000000E+00 -0.00000000000E+00 -0.81685592305E+03  0.81685592305E+03  0.00000000000E+00 0. -1.
         23    2    1    2    0    0  0.36423348239E+03 -0.34909801829E+02 -0.14017759627E+03  0.40612819026E+03  0.10679711827E+03 0.  0.
        254    2    1    2    0    0 -0.36423348239E+03  0.34909801829E+02 -0.12039750404E+03  0.96700855553E+03  0.88697534550E+03 0.  0.
        -24    2    4    4    0    0 -0.20604207575E+03  0.17194198586E+03 -0.47271012573E+03  0.54937099845E+03  0.79600549550E+02 0.  0.
         24    2    4    4    0    0 -0.15819140663E+03 -0.13703218403E+03  0.35231262170E+03  0.41763755707E+03  0.80589112661E+02 0.  0.
         13    1    3    3    0    0  0.18738919858E+03  0.20815326949E+02 -0.31340258971E+02  0.19112875611E+03  0.00000000000E+00 0.  1.
        -13    1    3    3    0    0  0.17684428381E+03 -0.55725128778E+02 -0.10883733730E+03  0.21499943415E+03  0.00000000000E+00 0. -1.
          4    1    6    6  502    0 -0.85464741635E+02 -0.47203783180E+02  0.22730937714E+03  0.24739032347E+03  0.00000000000E+00 0. -1.
          3    1    5    5  503    0 -0.11812346149E+03  0.47232773082E+02 -0.20707405163E+03  0.24303034762E+03  0.00000000000E+00 0. -1.
         -4    1    5    5    0  503 -0.87918614258E+02  0.12470921277E+03 -0.26563607411E+03  0.30634065083E+03  0.00000000000E+00 0.  1.
         -3    1    6    6    0  502 -0.72726665000E+02 -0.89828400848E+02  0.12500324455E+03  0.17024723360E+03  0.00000000000E+00 0.  1.
<mgrwt>
<rscale>  0 0.13481859E+04</rscale>
<asrwt>0</asrwt>
<pdfrwt beam="1">  1        2 0.12567014E+00 0.13481859E+04</pdfrwt>
<pdfrwt beam="2">  1       -2 0.85581665E-01 0.13481859E+04</pdfrwt>
<totfact> 0.38835007E+01</totfact>
</mgrwt>
</event>
<event>
12    1  0.1549527E-007  0.2084548E+04  0.7818608E-02  0.8568081E-01
         -2   -1    0    0    0  501 -0.00000000000E+00  0.00000000000E+00  0.12620037597E+04  0.12620037597E+04  0.00000000000E+00 0.  1.
          2   -1    0    0  501    0  0.00000000000E+00 -0.00000000000E+00 -0.86080204420E+03  0.86080204420E+03  0.00000000000E+00 0. -1.
         23    2    1    2    0    0  0.25836872848E+03  0.37550460639E+03 -0.56575129889E+03  0.73180531651E+03  0.87785988644E+02 0.  0.
        254    2    1    2    0    0 -0.25836872848E+03 -0.37550460639E+03  0.96695301442E+03  0.13910004874E+04  0.89001467101E+03 0.  0.
        -24    2    4    4    0    0  0.62583876647E+02 -0.41863746510E+03  0.96628477200E+03  0.10578220199E+04  0.78147912927E+02 0.  0.
         24    2    4    4    0    0 -0.32095260513E+03  0.43132858707E+02  0.66824241699E+00  0.33317846756E+03  0.78335346155E+02 0.  0.
         13    1    3    3    0    0  0.10976470776E+03  0.15348517040E+03 -0.16792553220E+03  0.25259646269E+03  0.00000000000E+00 0.  1.
        -13    1    3    3    0    0  0.14860402072E+03  0.22201943599E+03 -0.39782576669E+03  0.47920885381E+03  0.00000000000E+00 0. -1.
          2    1    6    6  502    0 -0.27299743533E+03  0.88460508363E+01 -0.97440108150E+01  0.27331446734E+03  0.00000000000E+00 0. -1.
          1    1    5    5  503    0  0.48775161908E+02 -0.38833793561E+03  0.92753764548E+03  0.10067330592E+04  0.00000000000E+00 0. -1.
         -2    1    5    5    0  503  0.13808714739E+02 -0.30299529487E+02  0.38747126515E+02  0.51088960677E+02  0.00000000000E+00 0.  1.
         -1    1    6    6    0  502 -0.47955169799E+02  0.34286807871E+02  0.10412253232E+02  0.59864000215E+02  0.00000000000E+00 0.  1.
<mgrwt>
<rscale>  0 0.20845483E+04</rscale>
<asrwt>0</asrwt>
<pdfrwt beam="1">  1        2 0.13243108E+00 0.20845483E+04</pdfrwt>
<pdfrwt beam="2">  1       -2 0.19415443E+00 0.20845483E+04</pdfrwt>
<totfact> 0.41829704E+00</totfact>
</mgrwt>
</event>
<event>
12    1  0.1549527E-007  0.1790624E+04  0.7818608E-02  0.8711301E-01
         -4   -1    0    0    0  501 -0.00000000000E+00  0.00000000000E+00  0.11067068701E+04  0.11067068701E+04  0.00000000000E+00 0.  1.
          4   -1    0    0  501    0  0.00000000000E+00 -0.00000000000E+00 -0.72429655098E+03  0.72429655098E+03  0.00000000000E+00 0. -1.
         23    2    1    2    0    0  0.47171086296E+03 -0.34567815168E+03  0.46672394361E+03  0.75390494738E+03  0.92395386080E+02 0.  0.
        254    2    1    2    0    0 -0.47171086296E+03  0.34567815168E+03 -0.84313624502E+02  0.10770984737E+04  0.90057082561E+03 0.  0.
        -24    2    4    4    0    0 -0.66051027333E+03  0.45342667625E+03 -0.18295788960E+03  0.82565473444E+03  0.79765777329E+02 0.  0.
         24    2    4    4    0    0  0.18879941037E+03 -0.10774852457E+03  0.98644265095E+02  0.25144373924E+03  0.78982916273E+02 0.  0.
         11    1    3    3    0    0  0.21967886352E+03 -0.10674863139E+03  0.20860113033E+03  0.32119854445E+03  0.00000000000E+00 0. -1.
        -11    1    3    3    0    0  0.25203199944E+03 -0.23892952028E+03  0.25812281328E+03  0.43270640294E+03  0.00000000000E+00 0.  1.
          2    1    6    6  502    0  0.45142142704E+02  0.90876840405E+01  0.17230562555E+02  0.49165957075E+02  0.00000000000E+00 0. -1.
          1    1    5    5  503    0 -0.20144548611E+03  0.98556042275E+02 -0.36413427199E+02  0.22719928482E+03  0.00000000000E+00 0. -1.
         -2    1    5    5    0  503 -0.45906478723E+03  0.35487063397E+03 -0.14654446240E+03  0.59845544962E+03  0.00000000000E+00 0.  1.
         -1    1    6    6    0  502  0.14365726767E+03 -0.11683620861E+03  0.81413702539E+02  0.20227778216E+03  0.00000000000E+00 0.  1.
<mgrwt>
<rscale>  0 0.17906244E+04</rscale>
<asrwt>0</asrwt>
<pdfrwt beam="1">  1        4 0.11143024E+00 0.17906244E+04</pdfrwt>
<pdfrwt beam="2">  1       -4 0.17026260E+00 0.17906244E+04</pdfrwt>
<totfact> 0.25295089E-01</totfact>
</mgrwt>
</event>
<event>
12    1  0.1549527E-007  0.1193784E+04  0.7818608E-02  0.9118315E-01
         -1   -1    0    0    0  501 -0.00000000000E+00  0.00000000000E+00  0.40790355201E+03  0.40790355201E+03  0.00000000000E+00 0.  1.
          1   -1    0    0  501    0  0.00000000000E+00 -0.00000000000E+00 -0.87344176001E+03  0.87344176001E+03  0.00000000000E+00 0. -1.
         23    2    1    2    0    0 -0.50647670320E+02  0.22438451351E+03 -0.17813638252E+03  0.30508798291E+03  0.91828699904E+02 0.  0.
        254    2    1    2    0    0  0.50647670320E+02 -0.22438451351E+03 -0.28740182548E+03  0.97625732911E+03  0.90419299209E+03 0.  0.
        -24    2    4    4    0    0 -0.27259657405E+03 -0.13908673462E+03  0.20316032704E+03  0.37754697590E+03  0.87255880002E+02 0.  0.
         24    2    4    4    0    0  0.32324424437E+03 -0.85297778890E+02 -0.49056215253E+03  0.59871035321E+03  0.77719424487E+02 0.  0.
         13    1    3    3    0    0 -0.52517560819E+01  0.45291919896E+02  0.38456773763E+01  0.45757274660E+02  0.00000000000E+00 0.  1.
        -13    1    3    3    0    0 -0.45395914238E+02  0.17909259362E+03 -0.18198205990E+03  0.25933070825E+03  0.00000000000E+00 0. -1.
          2    1    6    6  502    0  0.24492945271E+03 -0.35203821779E+02 -0.38892375471E+03  0.46096793039E+03  0.00000000000E+00 0. -1.
          3    1    5    5  503    0 -0.18272782846E+03 -0.48402302487E+02  0.10296415511E+03  0.21525301256E+03  0.00000000000E+00 0. -1.
         -4    1    5    5    0  503 -0.89868745595E+02 -0.90684432137E+02  0.10019617194E+03  0.16229396334E+03  0.00000000000E+00 0.  1.
         -1    1    6    6    0  502  0.78314791666E+02 -0.50093957111E+02 -0.10163839782E+03  0.13774242282E+03  0.00000000000E+00 0.  1.
<mgrwt>
<rscale>  0 0.11937839E+04</rscale>
<asrwt>0</asrwt>
<pdfrwt beam="1">  1        1 0.13437565E+00 0.11937839E+04</pdfrwt>
<pdfrwt beam="2">  1       -1 0.62754393E-01 0.11937839E+04</pdfrwt>
<totfact> 0.48818713E+01</totfact>
</mgrwt>
</event>
<event>
12    1  0.1549527E-007  0.1866840E+04  0.7818608E-02  0.8671541E-01
         -2   -1    0    0    0  501 -0.00000000000E+00  0.00000000000E+00  0.40491786050E+03  0.40491786050E+03  0.00000000000E+00 0.  1.
          2   -1    0    0  501    0  0.00000000000E+00 -0.00000000000E+00 -0.21517271624E+04  0.21517271624E+04  0.00000000000E+00 0. -1.
         23    2    1    2    0    0  0.45700818906E+02  0.25131969570E+03  0.23937611126E+03  0.36199926190E+03  0.92154157143E+02 0.  0.
        254    2    1    2    0    0 -0.45700818906E+02 -0.25131969570E+03 -0.19861854131E+04  0.21946457610E+04  0.89793505695E+03 0.  0.
        -24    2    4    4    0    0 -0.10588573733E+03 -0.13634070752E+03 -0.20290826229E+04  0.20379731786E+04  0.79735865379E+02 0.  0.
         24    2    4    4    0    0  0.60184918425E+02 -0.11497898818E+03  0.42897209731E+02  0.15667258241E+03  0.76575030834E+02 0.  0.
         11    1    3    3    0    0  0.11114882812E+02  0.13853690845E+03  0.18683974074E+03  0.23286284449E+03  0.00000000000E+00 0.  1.
        -11    1    3    3    0    0  0.34585936094E+02  0.11278278725E+03  0.52536370524E+02  0.12913641742E+03  0.00000000000E+00 0. -1.
          2    1    6    6  502    0  0.68691939429E+02 -0.11622727918E+03  0.25682123014E+02  0.13742974355E+03  0.00000000000E+00 0. -1.
          3    1    5    5  503    0 -0.81068314208E+02 -0.41752379983E+02 -0.10925873668E+04  0.10963861030E+04  0.00000000000E+00 0. -1.
         -4    1    5    5    0  503 -0.24817423123E+02 -0.94588327539E+02 -0.93649525610E+03  0.94158707558E+03  0.00000000000E+00 0.  1.
         -1    1    6    6    0  502 -0.85070210040E+01  0.12482910034E+01  0.17215086717E+02  0.19242838862E+02  0.00000000000E+00 0.  1.
<mgrwt>
<rscale>  0 0.18668399E+04</rscale>
<asrwt>0</asrwt>
<pdfrwt beam="1">  1        2 0.33103495E+00 0.18668399E+04</pdfrwt>
<pdfrwt beam="2">  1       -2 0.62295055E-01 0.18668399E+04</pdfrwt>
<totfact> 0.12344517E+01</totfact>
</mgrwt>
</event>
<event>
12    1  0.1549527E-007  0.1862725E+04  0.7818608E-02  0.8673636E-01
         -1   -1    0    0    0  501 -0.00000000000E+00  0.00000000000E+00  0.35660435275E+03  0.35660435275E+03  0.00000000000E+00 0.  1.
          1   -1    0    0  501    0  0.00000000000E+00 -0.00000000000E+00 -0.24324898465E+04  0.24324898465E+04  0.00000000000E+00 0. -1.
         23    2    1    2    0    0 -0.51091063867E+03  0.14161067739E+03 -0.16649057106E+04  0.17494579563E+04  0.87228727938E+02 0.  0.
        254    2    1    2    0    0  0.51091063867E+03 -0.14161067739E+03 -0.41097978320E+03  0.10396362430E+04  0.79426435834E+03 0.  0.
        -24    2    4    4    0    0  0.51020867524E+03 -0.38017340510E+03 -0.11687631405E+03  0.65228634539E+03  0.83502654839E+02 0.  0.
         24    2    4    4    0    0  0.70196343620E+00  0.23856272771E+03 -0.29410346915E+03  0.38734989763E+03  0.81427420562E+02 0.  0.
         13    1    3    3    0    0 -0.44639390637E+02 -0.74226996257E+01 -0.99636557439E+02  0.10943132661E+03  0.00000000000E+00 0.  1.
        -13    1    3    3    0    0 -0.46627124804E+03  0.14903337701E+03 -0.15652691531E+04  0.16400266297E+04  0.00000000000E+00 0. -1.
          4    1    6    6  502    0  0.14033432814E+02  0.59850032129E+02 -0.30567171311E+02  0.68653590907E+02  0.00000000000E+00 0. -1.
          3    1    5    5  503    0  0.41415523388E+01 -0.92405621118E+01  0.75321379859E+01  0.12620362378E+02  0.00000000000E+00 0. -1.
         -4    1    5    5    0  503  0.50606712290E+03 -0.37093284298E+03 -0.12440845204E+03  0.63966598301E+03  0.00000000000E+00 0.  1.
         -3    1    6    6    0  502 -0.13331469377E+02  0.17871269558E+03 -0.26353629784E+03  0.31869630672E+03  0.00000000000E+00 0.  1.
<mgrwt>
<rscale>  0 0.18627254E+04</rscale>
<asrwt>0</asrwt>
<pdfrwt beam="1">  1        1 0.37422922E+00 0.18627254E+04</pdfrwt>
<pdfrwt beam="2">  1       -1 0.54862206E-01 0.18627254E+04</pdfrwt>
<totfact> 0.47576895E+00</totfact>
</mgrwt>
</event>
<event>
12    1  0.1549527E-007  0.1530831E+04  0.7818608E-02  0.8864206E-01
          2   -1    0    0  501    0  0.00000000000E+00  0.00000000000E+00  0.49999168419E+03  0.49999168419E+03  0.00000000000E+00 0.  1.
         -2   -1    0    0    0  501 -0.00000000000E+00 -0.00000000000E+00 -0.11717405398E+04  0.11717405398E+04  0.00000000000E+00 0. -1.
         23    2    1    2    0    0 -0.16142167190E+03  0.18133451207E+03  0.24887764720E+03  0.35943554809E+03  0.91184804272E+02 0.  0.
        254    2    1    2    0    0  0.16142167190E+03 -0.18133451207E+03 -0.92062650279E+03  0.13122966759E+04  0.90312249806E+03 0.  0.
        -24    2    4    4    0    0  0.44213702799E+03 -0.36151148262E+03 -0.69039611014E+03  0.89946072312E+03  0.78785150587E+02 0.  0.
         24    2    4    4    0    0 -0.28071535609E+03  0.18017697055E+03 -0.23023039265E+03  0.41283595277E+03  0.78502473478E+02 0.  0.
         13    1    3    3    0    0 -0.72850297952E+02  0.37148634298E+02  0.12639570806E+03  0.15054255863E+03  0.00000000000E+00 0. -1.
        -13    1    3    3    0    0 -0.88571373948E+02  0.14418587777E+03  0.12248193913E+03  0.20889298946E+03  0.00000000000E+00 0.  1.
          4    1    6    6  502    0 -0.12826229269E+03  0.12798155522E+03 -0.13108133509E+03  0.22363544131E+03  0.00000000000E+00 0. -1.
          1    1    5    5  503    0  0.31257170791E+03 -0.29834561561E+03 -0.52973551581E+03  0.68361604403E+03  0.00000000000E+00 0. -1.
         -2    1    5    5    0  503  0.12956532008E+03 -0.63165867006E+02 -0.16066059433E+03  0.21584467909E+03  0.00000000000E+00 0.  1.
         -1    1    6    6    0  502 -0.15245306340E+03  0.52195415328E+02 -0.99149057558E+02  0.18920051146E+03  0.00000000000E+00 0.  1.
<mgrwt>
<rscale>  0 0.15308305E+04</rscale>
<asrwt>0</asrwt>
<pdfrwt beam="1">  1        2 0.76921798E-01 0.15308305E+04</pdfrwt>
<pdfrwt beam="2">  1       -2 0.18026777E+00 0.15308305E+04</pdfrwt>
<totfact> 0.10706515E+01</totfact>
</mgrwt>
</event>
<event>
12    1  0.1549527E-007  0.1830502E+04  0.7818608E-02  0.8690245E-01
          1   -1    0    0  501    0  0.00000000000E+00  0.00000000000E+00  0.16038585735E+04  0.16038585735E+04  0.00000000000E+00 0. -1.
         -1   -1    0    0    0  501 -0.00000000000E+00 -0.00000000000E+00 -0.52229304745E+03  0.52229304745E+03  0.00000000000E+00 0.  1.
         23    2    1    2    0    0  0.48387923902E+03 -0.12958457477E+03 -0.13995058865E+03  0.52656748402E+03  0.82194087337E+02 0.  0.
        254    2    1    2    0    0 -0.48387923902E+03  0.12958457477E+03  0.12215161147E+04  0.15995841370E+04  0.90312596725E+03 0.  0.
        -24    2    4    4    0    0 -0.74186127648E+03  0.75615850793E+02  0.97432014071E+03  0.12295224889E+04  0.79686282898E+02 0.  0.
         24    2    4    4    0    0  0.25798203746E+03  0.53968723980E+02  0.24719597403E+03  0.37006164807E+03  0.79827432491E+02 0.  0.
         11    1    3    3    0    0  0.17078644876E+02 -0.23172159238E+02 -0.59725065813E+01  0.29398978034E+02  0.00000000000E+00 0. -1.
        -11    1    3    3    0    0  0.46680059414E+03 -0.10641241553E+03 -0.13397808207E+03  0.49716850598E+03  0.00000000000E+00 0.  1.
          2    1    6    6  502    0  0.20501259837E+03  0.75038721717E+02  0.19935938306E+03  0.29564360108E+03  0.00000000000E+00 0. -1.
          3    1    5    5  503    0 -0.66775026478E+03  0.78128460147E+02  0.90964586584E+03  0.11311277884E+04  0.00000000000E+00 0. -1.
         -4    1    5    5    0  503 -0.74111011701E+02 -0.25126093539E+01  0.64674274879E+02  0.98394700529E+02  0.00000000000E+00 0.  1.
         -1    1    6    6    0  502  0.52969439093E+02 -0.21069997737E+02  0.47836590965E+02  0.74418046989E+02  0.00000000000E+00 0.  1.
<mgrwt>
<rscale>  0 0.18305018E+04</rscale>
<asrwt>0</asrwt>
<pdfrwt beam="1">  1        1 0.24674747E+00 0.18305018E+04</pdfrwt>
<pdfrwt beam="2">  1       -1 0.80352777E-01 0.18305018E+04</pdfrwt>
<totfact> 0.80656314E+00</totfact>
</mgrwt>
</event>
<event>
12    1  0.1549527E-007  0.1967949E+04  0.7818608E-02  0.8621754E-01
         -2   -1    0    0    0  501 -0.00000000000E+00  0.00000000000E+00  0.62341872862E+03  0.62341872862E+03  0.00000000000E+00 0.  1.
          2   -1    0    0  501    0  0.00000000000E+00 -0.00000000000E+00 -0.15530587341E+04  0.15530587341E+04  0.00000000000E+00 0. -1.
         23    2    1    2    0    0  0.64492444935E+02  0.61111750321E+03  0.14996943343E+03  0.63674218603E+03  0.72978779901E+02 0.  0.
        254    2    1    2    0    0 -0.64492444935E+02 -0.61111750321E+03 -0.10796094389E+04  0.15397352767E+04  0.90972759851E+03 0.  0.
        -24    2    4    4    0    0  0.46653478839E+02 -0.32733741980E+03 -0.11644528966E+04  0.12131133458E+04  0.79794158679E+02 0.  0.
         24    2    4    4    0    0 -0.11114592377E+03 -0.28378008341E+03  0.84843457708E+02  0.32662193091E+03  0.81233745008E+02 0.  0.
         13    1    3    3    0    0 -0.45000923899E+01  0.13314301062E+02 -0.56938130587E+01  0.15163803989E+02  0.00000000000E+00 0. -1.
        -13    1    3    3    0    0  0.68992537325E+02  0.59780320215E+03  0.15566324649E+03  0.62157838204E+03  0.00000000000E+00 0.  1.
          2    1    6    6  502    0 -0.16871036272E+02 -0.68680191257E+02 -0.13519512202E+02  0.72002623190E+02  0.00000000000E+00 0. -1.
          1    1    5    5  503    0  0.28959574994E+02 -0.30940329730E+02 -0.11942426568E+03  0.12672062271E+03  0.00000000000E+00 0. -1.
         -2    1    5    5    0  503  0.17693903846E+02 -0.29639709007E+03 -0.10450286309E+04  0.10863927230E+04  0.00000000000E+00 0.  1.
         -1    1    6    6    0  502 -0.94274887502E+02 -0.21509989215E+03  0.98362969910E+02  0.25461930772E+03  0.00000000000E+00 0.  1.
<mgrwt>
<rscale>  0 0.19679491E+04</rscale>
<asrwt>0</asrwt>
<pdfrwt beam="1">  1        2 0.23893211E+00 0.19679491E+04</pdfrwt>
<pdfrwt beam="2">  1       -2 0.95910575E-01 0.19679491E+04</pdfrwt>
<totfact> 0.10060071E+01</totfact>
</mgrwt>
</event>
<event>
12    1  0.1840377E-007  0.2091899E+04  0.7818608E-02  0.8564820E-01
         -2   -1    0    0    0  501 -0.00000000000E+00  0.00000000000E+00  0.81327974121E+03  0.81327974121E+03  0.00000000000E+00 0. -1.
          2   -1    0    0  501    0  0.00000000000E+00 -0.00000000000E+00 -0.13451832814E+04  0.13451832814E+04  0.00000000000E+00 0.  1.
         23    2    1    2    0    0  0.69141750239E+02  0.14031014436E+02  0.65996146492E+03  0.66982460117E+03  0.90213137418E+02 0.  0.
        254    2    1    2    0    0 -0.69141750239E+02 -0.14031014436E+02 -0.11918650051E+04  0.14886384214E+04  0.88911456427E+03 0.  0.
        -24    2    4    4    0    0  0.18645678419E+03  0.25644868404E+03 -0.11524520834E+03  0.34671578308E+03  0.79989476035E+02 0.  0.
         24    2    4    4    0    0 -0.25559853443E+03 -0.27047969848E+03 -0.10766197967E+04  0.11419226383E+04  0.79920254801E+02 0.  0.
         11    1    3    3    0    0 -0.18102078702E+01  0.11903869814E+02  0.90716607702E+01  0.15075609381E+02  0.00000000000E+00 0.  1.
        -11    1    3    3    0    0  0.70951958109E+02  0.21271446220E+01  0.65088980415E+03  0.65474899179E+03  0.00000000000E+00 0. -1.
          2    1    6    6  502    0 -0.21168307302E+03 -0.24957166558E+03 -0.86628767933E+03  0.92604000077E+03  0.00000000000E+00 0. -1.
          3    1    5    5  503    0  0.16005203604E+03  0.25414084817E+03 -0.10292198662E+03  0.31748568515E+03  0.00000000000E+00 0. -1.
         -4    1    5    5    0  503  0.26404748150E+02  0.23078358729E+01 -0.12323221723E+02  0.29230097929E+02  0.00000000000E+00 0.  1.
         -1    1    6    6    0  502 -0.43915461402E+02 -0.20908032896E+02 -0.21033211739E+03  0.21588263755E+03  0.00000000000E+00 0.  1.
<mgrwt>
<rscale>  0 0.20918990E+04</rscale>
<asrwt>0</asrwt>
<pdfrwt beam="1">  1        2 0.20695127E+00 0.20918990E+04</pdfrwt>
<pdfrwt beam="2">  1       -2 0.12511996E+00 0.20918990E+04</pdfrwt>
<totfact> 0.68652637E+00</totfact>
</mgrwt>
</event>
<event>
12    1  0.1549527E-007  0.1191877E+04  0.7818608E-02  0.9119996E-01
         -1   -1    0    0    0  501 -0.00000000000E+00  0.00000000000E+00  0.30734957927E+03  0.30734957927E+03  0.00000000000E+00 0.  1.
          1   -1    0    0  501    0  0.00000000000E+00 -0.00000000000E+00 -0.11555010190E+04  0.11555010190E+04  0.00000000000E+00 0. -1.
         23    2    1    2    0    0 -0.13403167332E+03  0.38901291992E+02  0.76435738735E+02  0.18316403681E+03  0.90712966291E+02 0.  0.
        254    2    1    2    0    0  0.13403167332E+03 -0.38901291992E+02 -0.92458717847E+03  0.12796865615E+04  0.87364663626E+03 0.  0.
        -24    2    4    4    0    0 -0.30134654287E+03  0.12925388991E+03 -0.14482677475E+03  0.36748866062E+03  0.80974156646E+02 0.  0.
         24    2    4    4    0    0  0.43537821619E+03 -0.16815518191E+03 -0.77976040372E+03  0.91219790085E+03  0.79046611393E+02 0.  0.
         11    1    3    3    0    0 -0.68477527872E+02  0.63050953797E+02  0.61958424412E+02  0.11181878623E+03  0.00000000000E+00 0. -1.
        -11    1    3    3    0    0 -0.65554145443E+02 -0.24149661805E+02  0.14477314323E+02  0.71345250578E+02  0.00000000000E+00 0.  1.
          2    1    6    6  502    0  0.35641511883E+03 -0.15805916093E+03 -0.59937384843E+03  0.71502688444E+03  0.00000000000E+00 0. -1.
          3    1    5    5  503    0 -0.28932651419E+03  0.11131100947E+03 -0.15128730275E+03  0.34494611263E+03  0.00000000000E+00 0. -1.
         -2    1    5    5    0  503 -0.12020028678E+02  0.17942880447E+02  0.64605279994E+01  0.22542547997E+02  0.00000000000E+00 0.  1.
         -1    1    6    6    0  502  0.78963097353E+02 -0.10096020971E+02 -0.18038655529E+03  0.19717101641E+03  0.00000000000E+00 0.  1.
<mgrwt>
<rscale>  0 0.11918771E+04</rscale>
<asrwt>0</asrwt>
<pdfrwt beam="1">  1        1 0.17776939E+00 0.11918771E+04</pdfrwt>
<pdfrwt beam="2">  1       -1 0.47284551E-01 0.11918771E+04</pdfrwt>
<totfact> 0.50903873E+01</totfact>
</mgrwt>
</event>
<event>
12    1  0.1549527E-007  0.1613553E+04  0.7818608E-02  0.8812265E-01
          1   -1    0    0  501    0  0.00000000000E+00  0.00000000000E+00  0.14370476444E+04  0.14370476444E+04  0.00000000000E+00 0. -1.
         -1   -1    0    0    0  501 -0.00000000000E+00 -0.00000000000E+00 -0.45293414474E+03  0.45293414474E+03  0.00000000000E+00 0.  1.
         23    2    1    2    0    0  0.12827294243E+02  0.13304020439E+02 -0.30244882604E+03  0.31642899755E+03  0.91161843313E+02 0.  0.
        254    2    1    2    0    0 -0.12827294243E+02 -0.13304020439E+02  0.12865623257E+04  0.15735527916E+04  0.90580584761E+03 0.  0.
        -24    2    4    4    0    0  0.36901080587E+02  0.36634298187E+03  0.21567327066E+03  0.43363704238E+03  0.77183254234E+02 0.  0.
         24    2    4    4    0    0 -0.49728374830E+02 -0.37964700231E+03  0.10708890550E+04  0.11399157492E+04  0.77458308025E+02 0.  0.
         13    1    3    3    0    0  0.19833878284E+02  0.46503883305E+02 -0.24088943992E+03  0.24613759598E+03  0.00000000000E+00 0.  1.
        -13    1    3    3    0    0 -0.70065840413E+01 -0.33199862866E+02 -0.61559386122E+02  0.70291401565E+02  0.00000000000E+00 0. -1.
          2    1    6    6  502    0  0.19785597755E+01  0.31703745734E+01  0.54391601777E+01  0.65992755026E+01  0.00000000000E+00 0. -1.
          1    1    5    5  503    0  0.20951318638E+00  0.18502315111E+02 -0.61010504862E+01  0.19483387213E+02  0.00000000000E+00 0. -1.
         -2    1    5    5    0  503  0.36691567401E+02  0.34784066676E+03  0.22177432115E+03  0.41415365517E+03  0.00000000000E+00 0.  1.
         -1    1    6    6    0  502 -0.51706934606E+02 -0.38281737688E+03  0.10654498948E+04  0.11333164737E+04  0.00000000000E+00 0.  1.
<mgrwt>
<rscale>  0 0.16135525E+04</rscale>
<asrwt>0</asrwt>
<pdfrwt beam="1">  1        1 0.22108425E+00 0.16135525E+04</pdfrwt>
<pdfrwt beam="2">  1       -1 0.69682177E-01 0.16135525E+04</pdfrwt>
<totfact> 0.14444916E+01</totfact>
</mgrwt>
</event>
<event>
12    1  0.1549527E-007  0.1823878E+04  0.7818608E-02  0.8693704E-01
          2   -1    0    0  501    0  0.00000000000E+00  0.00000000000E+00  0.21829369062E+04  0.21829369062E+04  0.00000000000E+00 0. -1.
         -2   -1    0    0    0  501 -0.00000000000E+00 -0.00000000000E+00 -0.38096945643E+03  0.38096945643E+03  0.00000000000E+00 0.  1.
         23    2    1    2    0    0  0.11004985982E+03  0.67741232807E+03  0.71910146096E+03  0.99773101754E+03  0.85801155834E+02 0.  0.
        254    2    1    2    0    0 -0.11004985982E+03 -0.67741232807E+03  0.10828659888E+04  0.15661753450E+04  0.89961548893E+03 0.  0.
        -24    2    4    4    0    0  0.12317517374E+03 -0.79827851025E+03  0.59472959699E+03  0.10062474678E+04  0.80062285707E+02 0.  0.
         24    2    4    4    0    0 -0.23322503356E+03  0.12086618218E+03  0.48813639178E+03  0.55992787722E+03  0.78990761746E+02 0.  0.
         11    1    3    3    0    0  0.11020707262E+03  0.58098983378E+03  0.65218442392E+03  0.88036316859E+03  0.00000000000E+00 0. -1.
        -11    1    3    3    0    0 -0.15721279288E+00  0.96422494291E+02  0.66917037044E+02  0.11736784895E+03  0.00000000000E+00 0.  1.
          4    1    6    6  502    0 -0.58710702657E+02  0.33156577237E+02  0.20621715348E+03  0.21696041023E+03  0.00000000000E+00 0. -1.
          3    1    5    5  503    0  0.10643084164E+03 -0.69215870748E+03  0.47961113122E+03  0.84878621430E+03  0.00000000000E+00 0. -1.
         -4    1    5    5    0  503  0.16744332098E+02 -0.10611980277E+03  0.11511846577E+03  0.15746125352E+03  0.00000000000E+00 0.  1.
         -3    1    6    6    0  502 -0.17451433091E+03  0.87709604946E+02  0.28191923830E+03  0.34296746699E+03  0.00000000000E+00 0.  1.
<mgrwt>
<rscale>  0 0.18238775E+04</rscale>
<asrwt>0</asrwt>
<pdfrwt beam="1">  1        2 0.33583644E+00 0.18238775E+04</pdfrwt>
<pdfrwt beam="2">  1       -2 0.58610687E-01 0.18238775E+04</pdfrwt>
<totfact> 0.13540023E+01</totfact>
</mgrwt>
</event>
<event>
12    1  0.1549527E-007  0.1693522E+04  0.7818608E-02  0.8765068E-01
         -3   -1    0    0    0  501 -0.00000000000E+00  0.00000000000E+00  0.10047618914E+04  0.10047618914E+04  0.00000000000E+00 0.  1.
          3   -1    0    0  501    0  0.00000000000E+00 -0.00000000000E+00 -0.71360574474E+03  0.71360574474E+03  0.00000000000E+00 0. -1.
         23    2    1    2    0    0 -0.26179671833E+03 -0.11853955858E+03  0.64339910008E+03  0.71094373706E+03  0.94283861793E+02 0.  0.
        254    2    1    2    0    0  0.26179671833E+03  0.11853955858E+03 -0.35224295345E+03  0.10074238990E+04  0.89902094827E+03 0.  0.
        -24    2    4    4    0    0 -0.17403277345E+03  0.51240655109E+02 -0.49835027677E+03  0.53661918359E+03  0.81817717381E+02 0.  0.
         24    2    4    4    0    0  0.43582949178E+03  0.67298903476E+02  0.14610732332E+03  0.47080471545E+03  0.76375662687E+02 0.  0.
         11    1    3    3    0    0 -0.20706044031E+03 -0.11806156474E+03  0.58068947524E+03  0.62770440947E+03  0.00000000000E+00 0.  1.
        -11    1    3    3    0    0 -0.54736278021E+02 -0.47799384635E+00  0.62709624843E+02  0.83239327590E+02  0.00000000000E+00 0. -1.
          4    1    6    6  502    0  0.22603283119E+02  0.20726198400E+02  0.18537376278E+02  0.35834592605E+02  0.00000000000E+00 0. -1.
          1    1    5    5  503    0 -0.13594540455E+02  0.50874155125E+01 -0.43208856692E+01  0.15144747596E+02  0.00000000000E+00 0. -1.
         -2    1    5    5    0  503 -0.16043823299E+03  0.46153239596E+02 -0.49402939110E+03  0.52147443600E+03  0.00000000000E+00 0.  1.
         -3    1    6    6    0  502  0.41322620866E+03  0.46572705076E+02  0.12756994704E+03  0.43497012284E+03  0.00000000000E+00 0.  1.
<mgrwt>
<rscale>  0 0.16935216E+04</rscale>
<asrwt>0</asrwt>
<pdfrwt beam="1">  1        3 0.10978550E+00 0.16935216E+04</pdfrwt>
<pdfrwt beam="2">  1       -3 0.15457875E+00 0.16935216E+04</pdfrwt>
<totfact> 0.52126262E-01</totfact>
</mgrwt>
</event>
<event>
12    1  0.1549527E-007  0.1466745E+04  0.7818608E-02  0.8906873E-01
          2   -1    0    0  501    0  0.00000000000E+00  0.00000000000E+00  0.15883038269E+04  0.15883038269E+04  0.00000000000E+00 0. -1.
         -2   -1    0    0    0  501 -0.00000000000E+00 -0.00000000000E+00 -0.33862226213E+03  0.33862226213E+03  0.00000000000E+00 0.  1.
         23    2    1    2    0    0 -0.36986887111E+03 -0.18963461916E+03  0.62145711785E+03  0.75263768951E+03  0.86546355968E+02 0.  0.
        254    2    1    2    0    0  0.36986887111E+03  0.18963461916E+03  0.62822444696E+03  0.11742883996E+04  0.90084572431E+03 0.  0.
        -24    2    4    4    0    0  0.19658957572E+03  0.17322739347E+03  0.84311987917E+03  0.88649645663E+03  0.79810060934E+02 0.  0.
         24    2    4    4    0    0  0.17327929539E+03  0.16407225697E+02 -0.21489543222E+03  0.28779194294E+03  0.79682145858E+02 0.  0.
         13    1    3    3    0    0 -0.27041201892E+02  0.54217892664E+01  0.64583960676E+02  0.70226137408E+02  0.00000000000E+00 0. -1.
        -13    1    3    3    0    0 -0.34282766922E+03 -0.19505640843E+03  0.55687315718E+03  0.68241155210E+03  0.00000000000E+00 0.  1.
          4    1    6    6  502    0  0.12088867601E+03  0.57426318063E+01 -0.19738263363E+03  0.23153175563E+03  0.00000000000E+00 0. -1.
          3    1    5    5  503    0  0.11119775425E+03  0.12683820078E+03  0.42541167562E+03  0.45763300086E+03  0.00000000000E+00 0. -1.
         -4    1    5    5    0  503  0.85391821469E+02  0.46389192687E+02  0.41770820355E+03  0.42886345576E+03  0.00000000000E+00 0.  1.
         -1    1    6    6    0  502  0.52390619379E+02  0.10664593891E+02 -0.17512798588E+02  0.56260187310E+02  0.00000000000E+00 0.  1.
<mgrwt>
<rscale>  0 0.14667447E+04</rscale>
<asrwt>0</asrwt>
<pdfrwt beam="1">  1        2 0.24435443E+00 0.14667447E+04</pdfrwt>
<pdfrwt beam="2">  1       -2 0.52095733E-01 0.14667447E+04</pdfrwt>
<totfact> 0.38138359E+01</totfact>
</mgrwt>
</event>
<event>
12    1  0.1549527E-007  0.1385179E+04  0.7818608E-02  0.8964617E-01
         -2   -1    0    0    0  501 -0.00000000000E+00  0.00000000000E+00  0.14953941114E+03  0.14953941114E+03  0.00000000000E+00 0.  1.
          2   -1    0    0  501    0  0.00000000000E+00 -0.00000000000E+00 -0.32077168840E+04  0.32077168840E+04  0.00000000000E+00 0. -1.
         23    2    1    2    0    0  0.45915988664E+02 -0.29734425786E+03 -0.13732130677E+04  0.14088077514E+04  0.92213152294E+02 0.  0.
        254    2    1    2    0    0 -0.45915988664E+02  0.29734425786E+03 -0.16849644052E+04  0.19484485438E+04  0.93103426103E+03 0.  0.
        -24    2    4    4    0    0 -0.46603590238E+03  0.20469395989E+03 -0.11319209606E+04  0.12436883780E+04  0.80166332842E+02 0.  0.
         24    2    4    4    0    0  0.42011991371E+03  0.92650297971E+02 -0.55304344463E+03  0.70476016582E+03  0.75795910639E+02 0.  0.
         11    1    3    3    0    0  0.36248073268E+02 -0.29944132036E+03 -0.13540887859E+04  0.13872762764E+04  0.00000000000E+00 0. -1.
        -11    1    3    3    0    0  0.96679153967E+01  0.20970624979E+01 -0.19124281832E+02  0.21531474981E+02  0.00000000000E+00 0.  1.
          2    1    6    6  502    0  0.24649696536E+03  0.44278110886E+02 -0.26211940587E+03  0.36252984425E+03  0.00000000000E+00 0. -1.
          1    1    5    5  503    0 -0.43183296895E+03  0.20907936893E+03 -0.10344767145E+04  0.11403227475E+04  0.00000000000E+00 0. -1.
         -2    1    5    5    0  503 -0.34202933427E+02 -0.43854090367E+01 -0.97444246065E+02  0.10336563045E+03  0.00000000000E+00 0.  1.
         -1    1    6    6    0  502  0.17362294835E+03  0.48372187085E+02 -0.29092403875E+03  0.34223032157E+03  0.00000000000E+00 0.  1.
<mgrwt>
<rscale>  0 0.13851788E+04</rscale>
<asrwt>0</asrwt>
<pdfrwt beam="1">  1        2 0.49349487E+00 0.13851788E+04</pdfrwt>
<pdfrwt beam="2">  1       -2 0.23006065E-01 0.13851788E+04</pdfrwt>
<totfact> 0.21079773E+01</totfact>
</mgrwt>
</event>
<event>
12    1  0.1549527E-007  0.1614585E+04  0.7818608E-02  0.8811638E-01
          2   -1    0    0  501    0  0.00000000000E+00  0.00000000000E+00  0.35296829207E+04  0.35296829207E+04  0.00000000000E+00 0. -1.
         -2   -1    0    0    0  501 -0.00000000000E+00 -0.00000000000E+00 -0.18464018737E+03  0.18464018737E+03  0.00000000000E+00 0.  1.
         23    2    1    2    0    0  0.54507880723E+02 -0.52650949196E+03  0.78565317795E+03  0.95195476911E+03  0.93720927317E+02 0.  0.
        254    2    1    2    0    0 -0.54507880723E+02  0.52650949196E+03  0.25593895553E+04  0.27623683389E+04  0.89443870093E+03 0.  0.
        -24    2    4    4    0    0 -0.29967067805E+03  0.40139282720E+03  0.23552952265E+04  0.24093089775E+04  0.80221122036E+02 0.  0.
         24    2    4    4    0    0  0.24516279733E+03  0.12511666476E+03  0.20409432889E+03  0.35305936140E+03  0.85073148501E+02 0.  0.
         11    1    3    3    0    0  0.64525553569E+02 -0.36613445429E+03  0.48551259817E+03  0.61150672005E+03  0.00000000000E+00 0.  1.
        -11    1    3    3    0    0 -0.10017672846E+02 -0.16037503766E+03  0.30014057978E+03  0.34044804906E+03  0.00000000000E+00 0. -1.
          2    1    6    6  502    0  0.14906726394E+03  0.51956460476E+02  0.15922940235E+03  0.22421981522E+03  0.00000000000E+00 0. -1.
          1    1    5    5  503    0 -0.13567007117E+03  0.21780539962E+03  0.10411395991E+04  0.10722953068E+04  0.00000000000E+00 0. -1.
         -2    1    5    5    0  503 -0.16400060688E+03  0.18358742759E+03  0.13141556274E+04  0.13370136707E+04  0.00000000000E+00 0.  1.
         -1    1    6    6    0  502  0.96095533383E+02  0.73160204281E+02  0.44864926538E+02  0.12883954618E+03  0.00000000000E+00 0.  1.
<mgrwt>
<rscale>  0 0.16145852E+04</rscale>
<asrwt>0</asrwt>
<pdfrwt beam="1">  1        2 0.54302809E+00 0.16145852E+04</pdfrwt>
<pdfrwt beam="2">  1       -2 0.28406185E-01 0.16145852E+04</pdfrwt>
<totfact> 0.85257736E+00</totfact>
</mgrwt>
</event>
<event>
12    1  0.1549527E-007  0.1518366E+04  0.7818608E-02  0.8872331E-01
         -1   -1    0    0    0  501 -0.00000000000E+00  0.00000000000E+00  0.64649760505E+03  0.64649760505E+03  0.00000000000E+00 0.  1.
          1   -1    0    0  501    0  0.00000000000E+00 -0.00000000000E+00 -0.89150987983E+03  0.89150987983E+03  0.00000000000E+00 0. -1.
         23    2    1    2    0    0 -0.96416990020E+02 -0.14558260482E+03  0.39427083825E+03  0.44093199488E+03  0.92092341825E+02 0.  0.
        254    2    1    2    0    0  0.96416990020E+02  0.14558260482E+03 -0.63928311303E+03  0.10970754900E+04  0.87430040682E+03 0.  0.
        -24    2    4    4    0    0 -0.10090302565E+03  0.19689336024E+03  0.14938571879E+03  0.27858210700E+03  0.79645975870E+02 0.  0.
         24    2    4    4    0    0  0.19732001567E+03 -0.51310755422E+02 -0.78866883182E+03  0.81849338300E+03  0.79780383074E+02 0.  0.
         13    1    3    3    0    0 -0.10118800984E+03 -0.14496326721E+03  0.39756639646E+03  0.43510045021E+03  0.00000000000E+00 0.  1.
        -13    1    3    3    0    0  0.47710198202E+01 -0.61933761161E+00 -0.32955582190E+01  0.58315446647E+01  0.00000000000E+00 0. -1.
          2    1    6    6  502    0  0.10904628827E+02 -0.19325817801E+00 -0.16956805759E+03  0.16991843465E+03  0.00000000000E+00 0. -1.
          3    1    5    5  503    0 -0.61957702366E+02  0.89655781457E+02  0.29109135676E+02  0.11280185198E+03  0.00000000000E+00 0. -1.
         -4    1    5    5    0  503 -0.38945323280E+02  0.10723757879E+03  0.12027658311E+03  0.16578025502E+03  0.00000000000E+00 0.  1.
         -1    1    6    6    0  502  0.18641538684E+03 -0.51117497244E+02 -0.61910077423E+03  0.64857494835E+03  0.00000000000E+00 0.  1.
<mgrwt>
<rscale>  0 0.15183662E+04</rscale>
<asrwt>0</asrwt>
<pdfrwt beam="1">  1        1 0.13715537E+00 0.15183662E+04</pdfrwt>
<pdfrwt beam="2">  1       -1 0.99461170E-01 0.15183662E+04</pdfrwt>
<totfact> 0.17241480E+01</totfact>
</mgrwt>
</event>
<event>
12    1  0.1549527E-007  0.2052432E+04  0.7818608E-02  0.8582492E-01
          1   -1    0    0  501    0  0.00000000000E+00  0.00000000000E+00  0.18499862924E+04  0.18499862924E+04  0.00000000000E+00 0. -1.
         -1   -1    0    0    0  501 -0.00000000000E+00 -0.00000000000E+00 -0.56925806505E+03  0.56925806505E+03  0.00000000000E+00 0.  1.
         23    2    1    2    0    0 -0.57839072228E+03 -0.57104238363E+03  0.63495704252E+03  0.10354137852E+04  0.91027628837E+02 0.  0.
        254    2    1    2    0    0  0.57839072228E+03  0.57104238363E+03  0.64577118486E+03  0.13838305723E+04  0.91506360329E+03 0.  0.
        -24    2    4    4    0    0 -0.60421418379E+02  0.26299762927E+02  0.52140406655E+03  0.53138849714E+03  0.78543675463E+02 0.  0.
         24    2    4    4    0    0  0.63881214066E+03  0.54474262070E+03  0.12436711831E+03  0.85244207514E+03  0.79779931587E+02 0.  0.
         11    1    3    3    0    0 -0.45821420863E+03 -0.49341973308E+03  0.54632589902E+03  0.86711895488E+03  0.00000000000E+00 0. -1.
        -11    1    3    3    0    0 -0.12017651365E+03 -0.77622650553E+02  0.88631143495E+02  0.16829483031E+03  0.00000000000E+00 0.  1.
          2    1    6    6  502    0  0.28501411698E+03  0.25976959704E+03  0.95213942846E+02  0.39721402963E+03  0.00000000000E+00 0. -1.
          3    1    5    5  503    0 -0.64521286398E+02 -0.48655812393E+01  0.42735078901E+03  0.43222143300E+03  0.00000000000E+00 0. -1.
         -4    1    5    5    0  503  0.40998680190E+01  0.31165344167E+02  0.94053277537E+02  0.99167064141E+02  0.00000000000E+00 0.  1.
         -1    1    6    6    0  502  0.35379802368E+03  0.28497302366E+03  0.29153175463E+02  0.45522804550E+03  0.00000000000E+00 0.  1.
<mgrwt>
<rscale>  0 0.20524323E+04</rscale>
<asrwt>0</asrwt>
<pdfrwt beam="1">  1        1 0.28461327E+00 0.20524323E+04</pdfrwt>
<pdfrwt beam="2">  1       -1 0.87578165E-01 0.20524323E+04</pdfrwt>
<totfact> 0.44621126E+00</totfact>
</mgrwt>
</event>
<event>
12    1  0.1549527E-007  0.2046890E+04  0.7818608E-02  0.8585007E-01
          1   -1    0    0  501    0  0.00000000000E+00  0.00000000000E+00  0.13344078995E+04  0.13344078995E+04  0.00000000000E+00 0. -1.
         -1   -1    0    0    0  501 -0.00000000000E+00 -0.00000000000E+00 -0.78494694631E+03  0.78494694631E+03  0.00000000000E+00 0.  1.
         23    2    1    2    0    0 -0.58154139778E+03  0.26006057056E+03 -0.30980638996E+03  0.71420563174E+03  0.91037286054E+02 0.  0.
        254    2    1    2    0    0  0.58154139778E+03 -0.26006057056E+03  0.85926734313E+03  0.14051492141E+04  0.91119813933E+03 0.  0.
        -24    2    4    4    0    0  0.48113910874E+03  0.22620386621E+03  0.68879853182E+03  0.87392584978E+03  0.81485841888E+02 0.  0.
         24    2    4    4    0    0  0.10040228904E+03 -0.48626443677E+03  0.17046881131E+03  0.53122336429E+03  0.81270689783E+02 0.  0.
         11    1    3    3    0    0 -0.44169764672E+02  0.19989189295E+02  0.12613501722E+01  0.48498729923E+02  0.00000000000E+00 0. -1.
        -11    1    3    3    0    0 -0.53737163311E+03  0.24007138127E+03 -0.31106774013E+03  0.66570690181E+03  0.00000000000E+00 0.  1.
          4    1    6    6  502    0  0.40831175159E+02 -0.34276009387E+03  0.14204505011E+03  0.37326728102E+03  0.00000000000E+00 0. -1.
          3    1    5    5  503    0  0.18883918633E+03  0.93139307326E+02  0.20992281597E+03  0.29732601219E+03  0.00000000000E+00 0. -1.
         -4    1    5    5    0  503  0.29229992241E+03  0.13306455888E+03  0.47887571585E+03  0.57659983758E+03  0.00000000000E+00 0.  1.
         -3    1    6    6    0  502  0.59571113884E+02 -0.14350434290E+03  0.28423761194E+02  0.15795608327E+03  0.00000000000E+00 0.  1.
<mgrwt>
<rscale>  0 0.20468897E+04</rscale>
<asrwt>0</asrwt>
<pdfrwt beam="1">  1        1 0.20529352E+00 0.20468897E+04</pdfrwt>
<pdfrwt beam="2">  1       -1 0.12076107E+00 0.20468897E+04</pdfrwt>
<totfact> 0.48144784E+00</totfact>
</mgrwt>
</event>
<event>
12    1  0.1549527E-007  0.2744441E+04  0.7818608E-02  0.8320728E-01
         -1   -1    0    0    0  501 -0.00000000000E+00  0.00000000000E+00  0.15453354542E+04  0.15453354542E+04  0.00000000000E+00 0.  1.
          1   -1    0    0  501    0  0.00000000000E+00 -0.00000000000E+00 -0.12184989130E+04  0.12184989130E+04  0.00000000000E+00 0. -1.
         23    2    1    2    0    0 -0.87521192852E+03 -0.83564219123E+02 -0.70763356067E+03  0.11322950900E+04  0.91476860598E+02 0.  0.
        254    2    1    2    0    0  0.87521192852E+03  0.83564219123E+02  0.10344701018E+04  0.16315392773E+04  0.90488293343E+03 0.  0.
        -24    2    4    4    0    0  0.37640350160E+02 -0.11599035603E+02  0.72495499727E+03  0.73008000753E+03  0.76848784921E+02 0.  0.
         24    2    4    4    0    0  0.83757157836E+03  0.95163254727E+02  0.30951510452E+03  0.90145926973E+03  0.79038099247E+02 0.  0.
         13    1    3    3    0    0 -0.13607889748E+02 -0.95873960896E+00 -0.30268833859E+02  0.33200845595E+02  0.00000000000E+00 0.  1.
        -13    1    3    3    0    0 -0.86160403877E+03 -0.82605479514E+02 -0.67736472681E+03  0.10990942444E+04  0.00000000000E+00 0. -1.
          4    1    6    6  502    0  0.45421485138E+03  0.89840242206E+02  0.18020042341E+03  0.49684463661E+03  0.00000000000E+00 0. -1.
          3    1    5    5  503    0 -0.60637989401E+01 -0.14126531733E+02  0.29651137475E+02  0.33399378886E+02  0.00000000000E+00 0. -1.
         -4    1    5    5    0  503  0.43704149100E+02  0.25274961291E+01  0.69530385979E+03  0.69668062864E+03  0.00000000000E+00 0.  1.
         -3    1    6    6    0  502  0.38335672698E+03  0.53230125204E+01  0.12931468110E+03  0.40461463312E+03  0.00000000000E+00 0.  1.
<mgrwt>
<rscale>  0 0.27444413E+04</rscale>
<asrwt>0</asrwt>
<pdfrwt beam="1">  1        1 0.18746137E+00 0.27444413E+04</pdfrwt>
<pdfrwt beam="2">  1       -1 0.23774392E+00 0.27444413E+04</pdfrwt>
<totfact> 0.75587634E-01</totfact>
</mgrwt>
</event>
<event>
12    1  0.1549527E-007  0.2018198E+04  0.7818608E-02  0.8598160E-01
         -2   -1    0    0    0  501 -0.00000000000E+00  0.00000000000E+00  0.75334606715E+03  0.75334606715E+03  0.00000000000E+00 0.  1.
          2   -1    0    0  501    0  0.00000000000E+00 -0.00000000000E+00 -0.13516768970E+04  0.13516768970E+04  0.00000000000E+00 0. -1.
         23    2    1    2    0    0  0.12184589429E+03  0.20077715125E+02 -0.10676874336E+04  0.10785038955E+04  0.89244944853E+02 0.  0.
        254    2    1    2    0    0 -0.12184589429E+03 -0.20077715125E+02  0.46935660374E+03  0.10265190686E+04  0.90454200578E+03 0.  0.
        -24    2    4    4    0    0  0.15090899807E+03 -0.40219060323E+03  0.22595259996E+03  0.49167473068E+03  0.78477107047E+02 0.  0.
         24    2    4    4    0    0 -0.27275489236E+03  0.38211288811E+03  0.24340400378E+03  0.53484433797E+03  0.80046650377E+02 0.  0.
         13    1    3    3    0    0  0.12235238948E+03  0.40465082498E+02 -0.98216885542E+03  0.99058729583E+03  0.00000000000E+00 0. -1.
        -13    1    3    3    0    0 -0.50649519499E+00 -0.20387367373E+02 -0.85518578144E+02  0.87916599647E+02  0.00000000000E+00 0.  1.
          2    1    6    6  502    0 -0.54742271718E+02  0.58794263573E+02  0.75619018657E+02  0.11032550804E+03  0.00000000000E+00 0. -1.
          1    1    5    5  503    0  0.86082092304E+02 -0.27133079568E+03  0.10988635847E+03  0.30513200271E+03  0.00000000000E+00 0. -1.
         -2    1    5    5    0  503  0.64826905765E+02 -0.13085980755E+03  0.11606624149E+03  0.18654272797E+03  0.00000000000E+00 0.  1.
         -1    1    6    6    0  502 -0.21801262064E+03  0.32331862454E+03  0.16778498513E+03  0.42451882993E+03  0.00000000000E+00 0.  1.
<mgrwt>
<rscale>  0 0.20181977E+04</rscale>
<asrwt>0</asrwt>
<pdfrwt beam="1">  1        2 0.20795029E+00 0.20181977E+04</pdfrwt>
<pdfrwt beam="2">  1       -2 0.11589940E+00 0.20181977E+04</pdfrwt>
<totfact> 0.82812274E+00</totfact>
</mgrwt>
</event>
<event>
12    1  0.1549527E-007  0.1400119E+04  0.7818608E-02  0.8953732E-01
          1   -1    0    0  501    0  0.00000000000E+00  0.00000000000E+00  0.20864286762E+04  0.20864286762E+04  0.00000000000E+00 0. -1.
         -1   -1    0    0    0  501 -0.00000000000E+00 -0.00000000000E+00 -0.23489111662E+03  0.23489111662E+03  0.00000000000E+00 0.  1.
         23    2    1    2    0    0 -0.36822406939E+03  0.12316888337E+03  0.79743454934E+03  0.89120538351E+03  0.87095556783E+02 0.  0.
        254    2    1    2    0    0  0.36822406939E+03 -0.12316888337E+03  0.10541030102E+04  0.14301144093E+04  0.88506187829E+03 0.  0.
        -24    2    4    4    0    0  0.45020551341E+03 -0.44332151395E+02  0.11655785261E+04  0.12525993634E+04  0.76036311671E+02 0.  0.
         24    2    4    4    0    0 -0.81981444018E+02 -0.78836731978E+02 -0.11147551595E+03  0.17751504585E+03  0.78413094397E+02 0.  0.
         13    1    3    3    0    0 -0.36368809702E+03  0.12512904657E+03  0.74391275651E+03  0.83745596870E+03  0.00000000000E+00 0.  1.
        -13    1    3    3    0    0 -0.45359723676E+01 -0.19601631964E+01  0.53521792830E+02  0.53749414813E+02  0.00000000000E+00 0. -1.
          4    1    6    6  502    0 -0.91181132369E+02 -0.49970470137E+02 -0.66973681108E+02  0.12367910392E+03  0.00000000000E+00 0. -1.
          1    1    5    5  503    0  0.45001120032E+03 -0.42852585381E+02  0.11310644585E+04  0.12180530505E+04  0.00000000000E+00 0. -1.
         -2    1    5    5    0  503  0.19431308490E+00 -0.14795660139E+01  0.34514067618E+02  0.34546312924E+02  0.00000000000E+00 0.  1.
         -3    1    6    6    0  502  0.91996883510E+01 -0.28866261841E+02 -0.44501834843E+02  0.53835941924E+02  0.00000000000E+00 0.  1.
<mgrwt>
<rscale>  0 0.14001194E+04</rscale>
<asrwt>0</asrwt>
<pdfrwt beam="1">  1        1 0.32098902E+00 0.14001194E+04</pdfrwt>
<pdfrwt beam="2">  1       -1 0.36137096E-01 0.14001194E+04</pdfrwt>
<totfact> 0.18618289E+01</totfact>
</mgrwt>
</event>
<event>
12    1  0.1549527E-007  0.1709387E+04  0.7818608E-02  0.8756029E-01
         -1   -1    0    0    0  501 -0.00000000000E+00  0.00000000000E+00  0.32736917300E+03  0.32736917300E+03  0.00000000000E+00 0.  1.
          1   -1    0    0  501    0  0.00000000000E+00 -0.00000000000E+00 -0.22314281738E+04  0.22314281738E+04  0.00000000000E+00 0. -1.
         23    2    1    2    0    0  0.47140583296E+03  0.23294227886E+03 -0.11864231954E+04  0.13008762434E+04  0.90517609518E+02 0.  0.
        254    2    1    2    0    0 -0.47140583296E+03 -0.23294227886E+03 -0.71763580548E+03  0.12579211034E+04  0.88931366146E+03 0.  0.
        -24    2    4    4    0    0 -0.44005011489E+03  0.24829353676E+03 -0.52336601167E+03  0.73193419433E+03  0.80758273000E+02 0.  0.
         24    2    4    4    0    0 -0.31355718071E+02 -0.48123581561E+03 -0.19426979382E+03  0.52598690908E+03  0.79689299447E+02 0.  0.
         13    1    3    3    0    0  0.16735578473E+03  0.56492762079E+02 -0.48774377643E+03  0.51874211541E+03  0.00000000000E+00 0.  1.
        -13    1    3    3    0    0  0.30405004823E+03  0.17644951678E+03 -0.69867941892E+03  0.78213412802E+03  0.00000000000E+00 0. -1.
          2    1    6    6  502    0 -0.31358918485E+02 -0.43009127435E+03 -0.14496598569E+03  0.45494727502E+03  0.00000000000E+00 0. -1.
          3    1    5    5  503    0 -0.22257298618E+03  0.16975526642E+03 -0.30320947400E+03  0.41266399137E+03  0.00000000000E+00 0. -1.
         -4    1    5    5    0  503 -0.21747712871E+03  0.78538270332E+02 -0.22015653767E+03  0.31927020296E+03  0.00000000000E+00 0.  1.
         -1    1    6    6    0  502  0.32004134407E-02 -0.51144541267E+02 -0.49303808129E+02  0.71039634062E+02  0.00000000000E+00 0.  1.
<mgrwt>
<rscale>  0 0.17093868E+04</rscale>
<asrwt>0</asrwt>
<pdfrwt beam="1">  1        1 0.34329663E+00 0.17093868E+04</pdfrwt>
<pdfrwt beam="2">  1       -1 0.50364489E-01 0.17093868E+04</pdfrwt>
<totfact> 0.78103913E+00</totfact>
</mgrwt>
</event>
<event>
12    1  0.1549527E-007  0.2982951E+04  0.7818608E-02  0.8248616E-01
          1   -1    0    0  501    0  0.00000000000E+00  0.00000000000E+00  0.14954864097E+04  0.14954864097E+04  0.00000000000E+00 0. -1.
         -1   -1    0    0    0  501 -0.00000000000E+00 -0.00000000000E+00 -0.14874755043E+04  0.14874755043E+04  0.00000000000E+00 0.  1.
         23    2    1    2    0    0  0.10531900922E+03  0.96505044984E+03  0.96598489502E+03  0.13725646393E+04  0.91610081850E+02 0.  0.
        254    2    1    2    0    0 -0.10531900922E+03 -0.96505044984E+03 -0.95797398956E+03  0.16103972747E+04  0.85630062090E+03 0.  0.
        -24    2    4    4    0    0  0.54064625452E+02  0.97439049807E+02 -0.34454462899E+03  0.37102071978E+03  0.80796169400E+02 0.  0.
         24    2    4    4    0    0 -0.15938363467E+03 -0.10624894996E+04 -0.61342936057E+03  0.12393765549E+04  0.73970160829E+02 0.  0.
         13    1    3    3    0    0  0.80665409700E+02  0.48184520037E+03  0.43420331171E+03  0.65361626460E+03  0.00000000000E+00 0. -1.
        -13    1    3    3    0    0  0.24653599521E+02  0.48320524946E+03  0.53178158331E+03  0.71894837466E+03  0.00000000000E+00 0.  1.
          2    1    6    6  502    0 -0.28986207259E+02 -0.68336542730E+02 -0.40253632064E+02  0.84441921922E+02  0.00000000000E+00 0. -1.
          3    1    5    5  503    0 -0.72753759628E+01 -0.99683056200E+01 -0.51185603227E+02  0.52652295202E+02  0.00000000000E+00 0. -1.
         -4    1    5    5    0  503  0.61340001415E+02  0.10740735543E+03 -0.29335902576E+03  0.31836842458E+03  0.00000000000E+00 0.  1.
         -1    1    6    6    0  502 -0.13039742741E+03 -0.99415295692E+03 -0.57317572850E+03  0.11549346330E+04  0.00000000000E+00 0.  1.
<mgrwt>
<rscale>  0 0.29829512E+04</rscale>
<asrwt>0</asrwt>
<pdfrwt beam="1">  1        1 0.23007483E+00 0.29829512E+04</pdfrwt>
<pdfrwt beam="2">  1       -1 0.22884238E+00 0.29829512E+04</pdfrwt>
<totfact> 0.53957358E-01</totfact>
</mgrwt>
</event>
<event>
12    1  0.1549527E-007  0.1411870E+04  0.7818608E-02  0.8945271E-01
          1   -1    0    0  501    0  0.00000000000E+00  0.00000000000E+00  0.19520371439E+04  0.19520371439E+04  0.00000000000E+00 0. -1.
         -1   -1    0    0    0  501 -0.00000000000E+00 -0.00000000000E+00 -0.25529458858E+03  0.25529458858E+03  0.00000000000E+00 0.  1.
         23    2    1    2    0    0 -0.72698237917E+02  0.15254035640E+03  0.11019104334E+04  0.11186266361E+04  0.92549195797E+02 0.  0.
        254    2    1    2    0    0  0.72698237917E+02 -0.15254035640E+03  0.59483212191E+03  0.10887050964E+04  0.89604684000E+03 0.  0.
        -24    2    4    4    0    0 -0.22272947339E+03 -0.11293959858E+03  0.71225860822E+03  0.75922643389E+03  0.82150360253E+02 0.  0.
         24    2    4    4    0    0  0.29542771131E+03 -0.39600757818E+02 -0.11742648632E+03  0.32947866248E+03  0.76951002011E+02 0.  0.
         11    1    3    3    0    0 -0.94713291235E+02  0.13232343479E+03  0.93960359565E+03  0.95359059134E+03  0.00000000000E+00 0. -1.
        -11    1    3    3    0    0  0.22015053318E+02  0.20216921609E+02  0.16230683777E+03  0.16503604479E+03  0.00000000000E+00 0.  1.
          4    1    6    6  502    0  0.58075818179E+02  0.45828735625E+01  0.55741843235E+01  0.58522430898E+02  0.00000000000E+00 0. -1.
          3    1    5    5  503    0 -0.13241373603E+03 -0.45901882322E+02  0.28765216526E+03  0.31997523102E+03  0.00000000000E+00 0. -1.
         -4    1    5    5    0  503 -0.90315737360E+02 -0.67037716262E+02  0.42460644296E+03  0.43925120287E+03  0.00000000000E+00 0.  1.
         -3    1    6    6    0  502  0.23735189313E+03 -0.44183631380E+02 -0.12300067064E+03  0.27095623158E+03  0.00000000000E+00 0.  1.
<mgrwt>
<rscale>  0 0.14118704E+04</rscale>
<asrwt>0</asrwt>
<pdfrwt beam="1">  1        1 0.30031340E+00 0.14118704E+04</pdfrwt>
<pdfrwt beam="2">  1       -1 0.39276092E-01 0.14118704E+04</pdfrwt>
<totfact> 0.19720497E+01</totfact>
</mgrwt>
</event>
<event>
12    1  0.1549527E-007  0.1678887E+04  0.7818608E-02  0.8773498E-01
          2   -1    0    0  501    0  0.00000000000E+00  0.00000000000E+00  0.37634957498E+04  0.37634957498E+04  0.00000000000E+00 0. -1.
         -2   -1    0    0    0  501 -0.00000000000E+00 -0.00000000000E+00 -0.18723687357E+03  0.18723687357E+03  0.00000000000E+00 0.  1.
         23    2    1    2    0    0 -0.58236049855E+02 -0.16236323412E+03 -0.53684019649E+02  0.20337151550E+03  0.93406327691E+02 0.  0.
        254    2    1    2    0    0  0.58236049855E+02  0.16236323412E+03  0.36299428959E+04  0.37473611079E+04  0.91459094036E+03 0.  0.
        -24    2    4    4    0    0  0.49521834092E+02  0.44322188177E+03  0.96143911474E+03  0.10628789069E+04  0.80301624079E+02 0.  0.
         24    2    4    4    0    0  0.87142157635E+01 -0.28085864764E+03  0.26685037812E+04  0.26844822010E+04  0.81084770171E+02 0.  0.
         13    1    3    3    0    0  0.20541829241E+02 -0.16867042347E+02 -0.22887343255E+02  0.35075551990E+02  0.00000000000E+00 0. -1.
        -13    1    3    3    0    0 -0.78777879097E+02 -0.14549619178E+03 -0.30796676394E+02  0.16829596351E+03  0.00000000000E+00 0.  1.
          4    1    6    6  502    0  0.22639809021E+02 -0.13548156271E+03  0.16271580536E+04  0.16329455429E+04  0.00000000000E+00 0. -1.
          3    1    5    5  503    0  0.55420397005E+02  0.43757509430E+03  0.95659669734E+03  0.10533853165E+04  0.00000000000E+00 0. -1.
         -4    1    5    5    0  503 -0.58985629136E+01  0.56467874607E+01  0.48424174015E+01  0.94935904358E+01  0.00000000000E+00 0.  1.
         -3    1    6    6    0  502 -0.13925593257E+02 -0.14537708493E+03  0.10413457276E+04  0.10515366581E+04  0.00000000000E+00 0.  1.
<mgrwt>
<rscale>  0 0.16788867E+04</rscale>
<asrwt>0</asrwt>
<pdfrwt beam="1">  1        2 0.57899929E+00 0.16788867E+04</pdfrwt>
<pdfrwt beam="2">  1       -2 0.28805676E-01 0.16788867E+04</pdfrwt>
<totfact> 0.55952583E+00</totfact>
</mgrwt>
</event>
<event>
12    1  0.1549527E-007  0.1355309E+04  0.7818608E-02  0.8986819E-01
         -2   -1    0    0    0  501 -0.00000000000E+00  0.00000000000E+00  0.31192228020E+03  0.31192228020E+03  0.00000000000E+00 0.  1.
          2   -1    0    0  501    0  0.00000000000E+00 -0.00000000000E+00 -0.14722117559E+04  0.14722117559E+04  0.00000000000E+00 0. -1.
         23    2    1    2    0    0 -0.45874745620E+02  0.17196114078E+03  0.98277212624E+02  0.22311528879E+03  0.91906992910E+02 0.  0.
        254    2    1    2    0    0  0.45874745620E+02 -0.17196114078E+03 -0.12585666883E+04  0.15610187473E+04  0.90615357102E+03 0.  0.
        -24    2    4    4    0    0  0.45082824546E+03 -0.64360387747E+01 -0.47355327849E+03  0.65887975994E+03  0.81131380990E+02 0.  0.
         24    2    4    4    0    0 -0.40495349984E+03 -0.16552510201E+03 -0.78501340982E+03  0.90213898737E+03  0.78884741869E+02 0.  0.
         13    1    3    3    0    0 -0.12749086074E+02  0.13235420200E+03  0.27956275690E+02  0.13587393913E+03  0.00000000000E+00 0.  1.
        -13    1    3    3    0    0 -0.33125659546E+02  0.39606938782E+02  0.70320936934E+02  0.87241349665E+02  0.00000000000E+00 0. -1.
          4    1    6    6  502    0 -0.38330149014E+03 -0.15534512373E+03 -0.69269335725E+03  0.80676900473E+03  0.00000000000E+00 0. -1.
          3    1    5    5  503    0  0.38182741631E+03  0.24224512923E+02 -0.39356239774E+03  0.54888101059E+03  0.00000000000E+00 0. -1.
         -4    1    5    5    0  503  0.69000829155E+02 -0.30660551698E+02 -0.79990880756E+02  0.10999874935E+03  0.00000000000E+00 0.  1.
         -3    1    6    6    0  502 -0.21652009699E+02 -0.10179978275E+02 -0.92320052568E+02  0.95369982635E+02  0.00000000000E+00 0.  1.
<mgrwt>
<rscale>  0 0.13553090E+04</rscale>
<asrwt>0</asrwt>
<pdfrwt beam="1">  1        2 0.22649412E+00 0.13553090E+04</pdfrwt>
<pdfrwt beam="2">  1       -2 0.47988043E-01 0.13553090E+04</pdfrwt>
<totfact> 0.52858970E+01</totfact>
</mgrwt>
</event>
<event>
12    1  0.1549527E-007  0.2996200E+04  0.7818608E-02  0.8244817E-01
          1   -1    0    0  501    0  0.00000000000E+00  0.00000000000E+00  0.18147496394E+04  0.18147496394E+04  0.00000000000E+00 0. -1.
         -1   -1    0    0    0  501 -0.00000000000E+00 -0.00000000000E+00 -0.12367012894E+04  0.12367012894E+04  0.00000000000E+00 0.  1.
         23    2    1    2    0    0 -0.84810457000E+03 -0.64843881872E+03  0.11262005592E+04  0.15545125097E+04  0.91799673033E+02 0.  0.
        254    2    1    2    0    0  0.84810457000E+03  0.64843881872E+03 -0.54815220921E+03  0.14969384191E+04  0.89476227161E+03 0.  0.
        -24    2    4    4    0    0  0.81822756097E+03  0.64520787358E+03 -0.11025956984E+03  0.10507847833E+04  0.78752438109E+02 0.  0.
         24    2    4    4    0    0  0.29877009034E+02  0.32309451456E+01 -0.43789263937E+03  0.44615363572E+03  0.80000177303E+02 0.  0.
         11    1    3    3    0    0 -0.71653831832E+03 -0.56613513303E+03  0.10023170600E+04  0.13559408686E+04  0.00000000000E+00 0. -1.
        -11    1    3    3    0    0 -0.13156625168E+03 -0.82303685695E+02  0.12388349924E+03  0.19857164109E+03  0.00000000000E+00 0.  1.
          2    1    6    6  502    0 -0.21426892299E+02  0.22045950828E+02 -0.14909383346E+03  0.15223043991E+03  0.00000000000E+00 0. -1.
          3    1    5    5  503    0  0.64540942115E+03  0.49407084106E+03 -0.11650350579E+03  0.82111654699E+03  0.00000000000E+00 0. -1.
         -4    1    5    5    0  503  0.17281813982E+03  0.15113703252E+03  0.62439359529E+01  0.22966823635E+03  0.00000000000E+00 0.  1.
         -1    1    6    6    0  502  0.51303901333E+02 -0.18815005683E+02 -0.28879880592E+03  0.29392319580E+03  0.00000000000E+00 0.  1.
<mgrwt>
<rscale>  0 0.29961997E+04</rscale>
<asrwt>0</asrwt>
<pdfrwt beam="1">  1        1 0.27919225E+00 0.29961997E+04</pdfrwt>
<pdfrwt beam="2">  1       -1 0.19026174E+00 0.29961997E+04</pdfrwt>
<totfact> 0.59636332E-01</totfact>
</mgrwt>
</event>
<event>
12    1  0.1549527E-007  0.1438330E+04  0.7818608E-02  0.8926531E-01
         -2   -1    0    0    0  501 -0.00000000000E+00  0.00000000000E+00  0.11862991514E+03  0.11862991514E+03  0.00000000000E+00 0.  1.
          2   -1    0    0  501    0  0.00000000000E+00 -0.00000000000E+00 -0.43597651939E+04  0.43597651939E+04  0.00000000000E+00 0. -1.
         23    2    1    2    0    0  0.47678673680E+02 -0.29461475974E+03 -0.33475946769E+03  0.45753239906E+03  0.90558723505E+02 0.  0.
        254    2    1    2    0    0 -0.47678673680E+02  0.29461475974E+03 -0.39063758111E+04  0.40208627100E+04  0.90470649529E+03 0.  0.
        -24    2    4    4    0    0  0.33184422692E+03  0.41591082965E+03 -0.24714042437E+04  0.25292380648E+04  0.78127099544E+02 0.  0.
         24    2    4    4    0    0 -0.37952290060E+03 -0.12129606991E+03 -0.14349715674E+04  0.14916246452E+04  0.83966149042E+02 0.  0.
         11    1    3    3    0    0  0.37234465177E+01 -0.54114456948E+02 -0.17490300193E+02  0.56992535525E+02  0.00000000000E+00 0.  1.
        -11    1    3    3    0    0  0.43955227162E+02 -0.24050030280E+03 -0.31726916750E+03  0.40053986354E+03  0.00000000000E+00 0. -1.
          4    1    6    6  502    0 -0.95164606005E+02 -0.25712679555E+02 -0.50272480860E+03  0.51229842603E+03  0.00000000000E+00 0. -1.
          1    1    5    5  503    0  0.34478956595E+02  0.83060285432E+02 -0.34812195507E+03  0.35955069889E+03  0.00000000000E+00 0. -1.
         -2    1    5    5    0  503  0.29736527032E+03  0.33285054422E+03 -0.21232822886E+04  0.21696873659E+04  0.00000000000E+00 0.  1.
         -3    1    6    6    0  502 -0.28435829459E+03 -0.95583390352E+02 -0.93224675879E+03  0.97932621914E+03  0.00000000000E+00 0.  1.
<mgrwt>
<rscale>  0 0.14383304E+04</rscale>
<asrwt>0</asrwt>
<pdfrwt beam="1">  1        2 0.67073322E+00 0.14383304E+04</pdfrwt>
<pdfrwt beam="2">  1       -2 0.18250753E-01 0.14383304E+04</pdfrwt>
<totfact> 0.42200110E+00</totfact>
</mgrwt>
</event>
<event>
12    1  0.1549527E-007  0.1449919E+04  0.7818608E-02  0.8918457E-01
         -1   -1    0    0    0  501 -0.00000000000E+00  0.00000000000E+00  0.48435948866E+03  0.48435948866E+03  0.00000000000E+00 0.  1.
          1   -1    0    0  501    0  0.00000000000E+00 -0.00000000000E+00 -0.10850741151E+04  0.10850741151E+04  0.00000000000E+00 0. -1.
         23    2    1    2    0    0 -0.43291885168E+02  0.24840869696E+02 -0.55871763956E+03  0.56833753836E+03  0.91383262252E+02 0.  0.
        254    2    1    2    0    0  0.43291885168E+02 -0.24840869696E+02 -0.41996986905E+02  0.10010960654E+04  0.99896863272E+03 0.  0.
        -24    2    4    4    0    0 -0.28585289888E+03 -0.39236725487E+03  0.45219556556E+02  0.49397761156E+03  0.79404848314E+02 0.  0.
         24    2    4    4    0    0  0.32914478405E+03  0.36752638518E+03 -0.87216543461E+02  0.50711845386E+03  0.78424920295E+02 0.  0.
         13    1    3    3    0    0 -0.77968442754E+01  0.53982914357E+02 -0.37606087043E+03  0.37999568957E+03  0.00000000000E+00 0. -1.
        -13    1    3    3    0    0 -0.35495040893E+02 -0.29142044661E+02 -0.18265676914E+03  0.18834184879E+03  0.00000000000E+00 0.  1.
          2    1    6    6  502    0  0.22919627587E+03  0.30494139003E+03 -0.61071467347E+02  0.38632875682E+03  0.00000000000E+00 0. -1.
          1    1    5    5  503    0 -0.22602024595E+03 -0.35061882448E+03  0.53412147204E+02  0.42056101713E+03  0.00000000000E+00 0. -1.
         -2    1    5    5    0  503 -0.59832652931E+02 -0.41748430395E+02 -0.81925906475E+01  0.73416594437E+02  0.00000000000E+00 0.  1.
         -1    1    6    6    0  502  0.99948508179E+02  0.62584995149E+02 -0.26145076114E+02  0.12078969704E+03  0.00000000000E+00 0.  1.
<mgrwt>
<rscale>  0 0.14499185E+04</rscale>
<asrwt>0</asrwt>
<pdfrwt beam="1">  1        1 0.16693448E+00 0.14499185E+04</pdfrwt>
<pdfrwt beam="2">  1       -1 0.74516845E-01 0.14499185E+04</pdfrwt>
<totfact> 0.22907046E+01</totfact>
</mgrwt>
</event>
<event>
12    1  0.1549527E-007  0.1793320E+04  0.7818608E-02  0.8709860E-01
          2   -1    0    0  501    0  0.00000000000E+00  0.00000000000E+00  0.13397586857E+04  0.13397586857E+04  0.00000000000E+00 0. -1.
         -2   -1    0    0    0  501 -0.00000000000E+00 -0.00000000000E+00 -0.60010730508E+03  0.60010730508E+03  0.00000000000E+00 0.  1.
         23    2    1    2    0    0 -0.16654125407E+03 -0.25749982875E+03 -0.36305711835E+03  0.48447771611E+03  0.94159625690E+02 0.  0.
        254    2    1    2    0    0  0.16654125407E+03  0.25749982875E+03  0.11027084990E+04  0.14553882747E+04  0.89896988004E+03 0.  0.
        -24    2    4    4    0    0 -0.11752378449E+03  0.34948844004E+03  0.76276933452E+02  0.38338804070E+03  0.72209483674E+02 0.  0.
         24    2    4    4    0    0  0.28406503856E+03 -0.91988611292E+02  0.10264315655E+04  0.10720002340E+04  0.80423206734E+02 0.  0.
         13    1    3    3    0    0 -0.16174596010E+03 -0.17735924298E+03 -0.26041086927E+03  0.35416363099E+03  0.00000000000E+00 0.  1.
        -13    1    3    3    0    0 -0.47952939678E+01 -0.80140585768E+02 -0.10264624908E+03  0.13031408512E+03  0.00000000000E+00 0. -1.
          2    1    6    6  502    0  0.28488268231E+03 -0.92605596106E+02  0.10276434391E+04  0.10704134608E+04  0.00000000000E+00 0. -1.
          1    1    5    5  503    0 -0.82816938252E+02  0.16190995410E+03  0.12674904250E+02  0.18230230853E+03  0.00000000000E+00 0. -1.
         -2    1    5    5    0  503 -0.34706846240E+02  0.18757848594E+03  0.63602029202E+02  0.20108573217E+03  0.00000000000E+00 0.  1.
         -1    1    6    6    0  502 -0.81764375036E+00  0.61698481396E+00 -0.12118735750E+01  0.15867731800E+01  0.00000000000E+00 0.  1.
<mgrwt>
<rscale>  0 0.17933198E+04</rscale>
<asrwt>0</asrwt>
<pdfrwt beam="1">  1        2 0.20611672E+00 0.17933198E+04</pdfrwt>
<pdfrwt beam="2">  1       -2 0.92324201E-01 0.17933198E+04</pdfrwt>
<totfact> 0.14751006E+01</totfact>
</mgrwt>
</event>
<event>
12    1  0.1549527E-007  0.2107345E+04  0.7818608E-02  0.8558015E-01
          3   -1    0    0  501    0  0.00000000000E+00  0.00000000000E+00  0.31183594635E+04  0.31183594635E+04  0.00000000000E+00 0. -1.
         -3   -1    0    0    0  501 -0.00000000000E+00 -0.00000000000E+00 -0.35602891538E+03  0.35602891538E+03  0.00000000000E+00 0.  1.
         23    2    1    2    0    0 -0.22071023322E+03  0.82891772206E+03  0.96279605174E+03  0.12928859790E+04  0.93596583403E+02 0.  0.
        254    2    1    2    0    0  0.22071023322E+03 -0.82891772206E+03  0.17995344963E+04  0.21815023998E+04  0.88589543404E+03 0.  0.
        -24    2    4    4    0    0  0.41568061581E+03 -0.77755257773E+03  0.92465356380E+03  0.12802178037E+04  0.81209767201E+02 0.  0.
         24    2    4    4    0    0 -0.19497038259E+03 -0.51365144335E+02  0.87488093253E+03  0.90128459618E+03  0.79028153576E+02 0.  0.
         11    1    3    3    0    0 -0.42104456962E+02  0.95653479261E+02  0.81018051713E+02  0.13223576708E+03  0.00000000000E+00 0. -1.
        -11    1    3    3    0    0 -0.17860577626E+03  0.73326424280E+03  0.88177800003E+03  0.11606502119E+04  0.00000000000E+00 0.  1.
          2    1    6    6  502    0 -0.33609146521E+02 -0.43535908439E+02  0.21902094936E+03  0.22582100503E+03  0.00000000000E+00 0. -1.
          3    1    5    5  503    0  0.26831705189E+03 -0.43984135417E+03  0.49928488345E+03  0.71745372814E+03  0.00000000000E+00 0. -1.
         -4    1    5    5    0  503  0.14736356392E+03 -0.33771122356E+03  0.42536868034E+03  0.56276407553E+03  0.00000000000E+00 0.  1.
         -1    1    6    6    0  502 -0.16136123607E+03 -0.78292358953E+01  0.65585998317E+03  0.67546359115E+03  0.00000000000E+00 0.  1.
<mgrwt>
<rscale>  0 0.21073454E+04</rscale>
<asrwt>0</asrwt>
<pdfrwt beam="1">  1        3 0.47974759E+00 0.21073454E+04</pdfrwt>
<pdfrwt beam="2">  1       -3 0.54773681E-01 0.21073454E+04</pdfrwt>
<totfact> 0.34226491E-02</totfact>
</mgrwt>
</event>
<event>
12    1  0.1549527E-007  0.2716286E+04  0.7818608E-02  0.8329740E-01
          2   -1    0    0  501    0  0.00000000000E+00  0.00000000000E+00  0.21195185931E+04  0.21195185931E+04  0.00000000000E+00 0. -1.
         -2   -1    0    0    0  501 -0.00000000000E+00 -0.00000000000E+00 -0.87026969339E+03  0.87026969339E+03  0.00000000000E+00 0.  1.
         23    2    1    2    0    0 -0.81050512139E+03  0.32392844958E+02 -0.41232188960E+03  0.91462075842E+03  0.92487528262E+02 0.  0.
        254    2    1    2    0    0  0.81050512139E+03 -0.32392844958E+02  0.16615707893E+04  0.20751675280E+04  0.94209072462E+03 0.  0.
        -24    2    4    4    0    0  0.68006756184E+03  0.27917775367E+03  0.15378485441E+04  0.17064652250E+04  0.81322277563E+02 0.  0.
         24    2    4    4    0    0  0.13043755955E+03 -0.31157059863E+03  0.12372224520E+03  0.36870230302E+03  0.80894990104E+02 0.  0.
         11    1    3    3    0    0 -0.27015335068E+03  0.52482829631E+02 -0.15395691980E+03  0.31534110650E+03  0.00000000000E+00 0. -1.
        -11    1    3    3    0    0 -0.54035177071E+03 -0.20089984673E+02 -0.25836496980E+03  0.59927965192E+03  0.00000000000E+00 0.  1.
          4    1    6    6  502    0  0.74632791389E+02 -0.23688956544E+03  0.11886942615E+03  0.27534825266E+03  0.00000000000E+00 0. -1.
          3    1    5    5  503    0  0.62588131802E+03  0.23182688653E+03  0.14003865992E+04  0.15513071124E+04  0.00000000000E+00 0. -1.
         -4    1    5    5    0  503  0.54186243820E+02  0.47350867140E+02  0.13746194484E+03  0.15515811264E+03  0.00000000000E+00 0.  1.
         -3    1    6    6    0  502  0.55804768159E+02 -0.74681033187E+02  0.48528190500E+01  0.93354050367E+02  0.00000000000E+00 0.  1.
<mgrwt>
<rscale>  0 0.27162863E+04</rscale>
<asrwt>0</asrwt>
<pdfrwt beam="1">  1        2 0.32607978E+00 0.27162863E+04</pdfrwt>
<pdfrwt beam="2">  1       -2 0.13388765E+00 0.27162863E+04</pdfrwt>
<totfact> 0.20228148E+00</totfact>
</mgrwt>
</event>
<event>
12    1  0.1549527E-007  0.3190431E+04  0.7818608E-02  0.8191349E-01
         -2   -1    0    0    0  501 -0.00000000000E+00  0.00000000000E+00  0.17349755431E+04  0.17349755431E+04  0.00000000000E+00 0.  1.
          2   -1    0    0  501    0  0.00000000000E+00 -0.00000000000E+00 -0.14667134091E+04  0.14667134091E+04  0.00000000000E+00 0. -1.
         23    2    1    2    0    0 -0.13595367207E+04  0.40957288841E+03 -0.24113331081E+03  0.14431520763E+04  0.91938000835E+02 0.  0.
        254    2    1    2    0    0  0.13595367207E+04 -0.40957288841E+03  0.50939544479E+03  0.17585368759E+04  0.90381313279E+03 0.  0.
        -24    2    4    4    0    0  0.49748368830E+03 -0.55711589957E+03  0.45605617659E+03  0.87852741701E+03  0.77168909189E+02 0.  0.
         24    2    4    4    0    0  0.86205303237E+03  0.14754301116E+03  0.53339268203E+02  0.88000945890E+03  0.81652920781E+02 0.  0.
         13    1    3    3    0    0 -0.94570026925E+03  0.32618765444E+03 -0.18389849980E+03  0.10171361971E+04  0.00000000000E+00 0. -1.
        -13    1    3    3    0    0 -0.41383645141E+03  0.83385233967E+02 -0.57234811014E+02  0.42601587923E+03  0.00000000000E+00 0.  1.
          4    1    6    6  502    0  0.83674088556E+02 -0.19717346685E+01 -0.12695981021E+02  0.84654762225E+02  0.00000000000E+00 0. -1.
          1    1    5    5  503    0  0.17427099940E+02 -0.38636214569E+01  0.60461730044E+01  0.18846421175E+02  0.00000000000E+00 0. -1.
         -2    1    5    5    0  503  0.48005658836E+03 -0.55325227812E+03  0.45001000359E+03  0.85968099583E+03  0.00000000000E+00 0.  1.
         -3    1    6    6    0  502  0.77837894381E+03  0.14951474583E+03  0.66035249224E+02  0.79535469668E+03  0.00000000000E+00 0.  1.
<mgrwt>
<rscale>  0 0.31904306E+04</rscale>
<asrwt>0</asrwt>
<pdfrwt beam="1">  1        2 0.22564822E+00 0.31904306E+04</pdfrwt>
<pdfrwt beam="2">  1       -2 0.26691931E+00 0.31904306E+04</pdfrwt>
<totfact> 0.56545597E-01</totfact>
</mgrwt>
</event>
<event>
12    1  0.1549527E-007  0.2558393E+04  0.7818608E-02  0.8382473E-01
          1   -1    0    0  501    0  0.00000000000E+00  0.00000000000E+00  0.98522915857E+03  0.98522915857E+03  0.00000000000E+00 0. -1.
         -1   -1    0    0    0  501 -0.00000000000E+00 -0.00000000000E+00 -0.16608761467E+04  0.16608761467E+04  0.00000000000E+00 0.  1.
         23    2    1    2    0    0 -0.43516148840E+03 -0.24969115197E+03  0.73703842217E+03  0.89618174732E+03  0.90580881558E+02 0.  0.
        254    2    1    2    0    0  0.43516148840E+03  0.24969115197E+03 -0.14126854103E+04  0.17499235579E+04  0.90268554758E+03 0.  0.
        -24    2    4    4    0    0  0.55113990525E+03  0.16963160290E+03 -0.14675084379E+04  0.15787801862E+04  0.80223346377E+02 0.  0.
         24    2    4    4    0    0 -0.11597841685E+03  0.80059549068E+02  0.54823027598E+02  0.17114337170E+03  0.80149639747E+02 0.  0.
         11    1    3    3    0    0 -0.62307814684E+02 -0.65123520673E+02  0.93442125098E+02  0.12982591212E+03  0.00000000000E+00 0.  1.
        -11    1    3    3    0    0 -0.37285367372E+03 -0.18456763129E+03  0.64359629708E+03  0.76635583519E+03  0.00000000000E+00 0. -1.
          2    1    6    6  502    0 -0.78648144735E+02  0.79624075692E+02  0.68692931077E+02  0.13131733656E+03  0.00000000000E+00 0. -1.
          1    1    5    5  503    0  0.13447510901E+03  0.15182703147E+02 -0.40799342719E+03  0.42985195829E+03  0.00000000000E+00 0. -1.
         -4    1    5    5    0  503  0.41666479624E+03  0.15444889975E+03 -0.10595150107E+04  0.11489282280E+04  0.00000000000E+00 0.  1.
         -1    1    6    6    0  502 -0.37330272113E+02  0.43547337618E+00 -0.13869903479E+02  0.39826035148E+02  0.00000000000E+00 0.  1.
<mgrwt>
<rscale>  0 0.25583929E+04</rscale>
<asrwt>0</asrwt>
<pdfrwt beam="1">  1        1 0.15157372E+00 0.25583929E+04</pdfrwt>
<pdfrwt beam="2">  1       -1 0.25551940E+00 0.25583929E+04</pdfrwt>
<totfact> 0.88143248E-01</totfact>
</mgrwt>
</event>
<event>
12    1  0.1549527E-007  0.1438872E+04  0.7818608E-02  0.8926152E-01
         -2   -1    0    0    0  501 -0.00000000000E+00  0.00000000000E+00  0.41799882063E+03  0.41799882063E+03  0.00000000000E+00 0.  1.
          2   -1    0    0  501    0  0.00000000000E+00 -0.00000000000E+00 -0.12382527629E+04  0.12382527629E+04  0.00000000000E+00 0. -1.
         23    2    1    2    0    0 -0.92682141262E+02  0.35866054493E+03 -0.51958912183E+03  0.64467592264E+03  0.91688733816E+02 0.  0.
        254    2    1    2    0    0  0.92682141262E+02 -0.35866054493E+03 -0.30066482041E+03  0.10115756609E+04  0.89199698297E+03 0.  0.
        -24    2    4    4    0    0  0.28739960175E+02 -0.44558751089E+03  0.19787053355E+03  0.49482224527E+03  0.79511578981E+02 0.  0.
         24    2    4    4    0    0  0.63942181087E+02  0.86926965963E+02 -0.49853535396E+03  0.51675341560E+03  0.82774956686E+02 0.  0.
         13    1    3    3    0    0  0.86629431506E+01  0.81229134368E+02 -0.74874213537E+02  0.11081230395E+03  0.00000000000E+00 0.  1.
        -13    1    3    3    0    0 -0.10134508441E+03  0.27743141056E+03 -0.44471490829E+03  0.53386361869E+03  0.00000000000E+00 0. -1.
          4    1    6    6  502    0  0.16692924012E+02  0.81628481741E+02 -0.24447787353E+03  0.25828529456E+03  0.00000000000E+00 0. -1.
          3    1    5    5  503    0 -0.39671749597E+01 -0.32418743561E+03  0.16985132773E+03  0.36600916029E+03  0.00000000000E+00 0. -1.
         -4    1    5    5    0  503  0.32707135134E+02 -0.12140007528E+03  0.28019205821E+02  0.12881308498E+03  0.00000000000E+00 0.  1.
         -3    1    6    6    0  502  0.47249257076E+02  0.52984842223E+01 -0.25405748043E+03  0.25846812104E+03  0.00000000000E+00 0.  1.
<mgrwt>
<rscale>  0 0.14388721E+04</rscale>
<asrwt>0</asrwt>
<pdfrwt beam="1">  1        2 0.19050042E+00 0.14388721E+04</pdfrwt>
<pdfrwt beam="2">  1       -2 0.64307512E-01 0.14388721E+04</pdfrwt>
<totfact> 0.38970777E+01</totfact>
</mgrwt>
</event>
<event>
12    1  0.1549527E-007  0.1543933E+04  0.7818608E-02  0.8855752E-01
          2   -1    0    0  501    0  0.00000000000E+00  0.00000000000E+00  0.62416767430E+03  0.62416767430E+03  0.00000000000E+00 0.  1.
         -2   -1    0    0    0  501 -0.00000000000E+00 -0.00000000000E+00 -0.95476340753E+03  0.95476340753E+03  0.00000000000E+00 0. -1.
         23    2    1    2    0    0 -0.27279028808E+02 -0.87702961034E+02 -0.62081847898E+03  0.63494929667E+03  0.96483525613E+02 0.  0.
        254    2    1    2    0    0  0.27279028808E+02  0.87702961034E+02  0.29022274575E+03  0.94398178516E+03  0.89355269222E+03 0.  0.
        -24    2    4    4    0    0 -0.23043080192E+03  0.17929238274E+03 -0.21007418974E+03  0.36824232153E+03  0.78912161196E+02 0.  0.
         24    2    4    4    0    0  0.25770983073E+03 -0.91589421707E+02  0.50029693550E+03  0.57573946363E+03  0.79849403788E+02 0.  0.
         13    1    3    3    0    0 -0.13652743210E+02 -0.42289435912E+02 -0.53550537296E+03  0.53734606936E+03  0.00000000000E+00 0. -1.
        -13    1    3    3    0    0 -0.13626285598E+02 -0.45413525123E+02 -0.85313106026E+02  0.97603227319E+02  0.00000000000E+00 0.  1.
          2    1    6    6  502    0  0.18008226020E+03 -0.70999116916E+02  0.27293736498E+03  0.33461216392E+03  0.00000000000E+00 0. -1.
          3    1    5    5  503    0 -0.90183759084E+02  0.10964324546E+03 -0.70640701042E+02  0.15857130989E+03  0.00000000000E+00 0. -1.
         -4    1    5    5    0  503 -0.14024704284E+03  0.69649137283E+02 -0.13943348870E+03  0.20967101164E+03  0.00000000000E+00 0.  1.
         -1    1    6    6    0  502  0.77627570536E+02 -0.20590304791E+02  0.22735957052E+03  0.24112729971E+03  0.00000000000E+00 0.  1.
<mgrwt>
<rscale>  0 0.15439332E+04</rscale>
<asrwt>0</asrwt>
<pdfrwt beam="1">  1        2 0.96025797E-01 0.15439332E+04</pdfrwt>
<pdfrwt beam="2">  1       -2 0.14688668E+00 0.15439332E+04</pdfrwt>
<totfact> 0.14406864E+01</totfact>
</mgrwt>
</event>
<event>
12    1  0.1549527E-007  0.1850272E+04  0.7818608E-02  0.8680013E-01
         -2   -1    0    0    0  501 -0.00000000000E+00  0.00000000000E+00  0.16363429023E+04  0.16363429023E+04  0.00000000000E+00 0.  1.
          2   -1    0    0  501    0  0.00000000000E+00 -0.00000000000E+00 -0.52304260904E+03  0.52304260904E+03  0.00000000000E+00 0. -1.
         23    2    1    2    0    0  0.20910918484E+03  0.71324050826E+02 -0.34830485579E+03  0.42271598195E+03  0.92513552606E+02 0.  0.
        254    2    1    2    0    0 -0.20910918484E+03 -0.71324050826E+02  0.14616051491E+04  0.17366695294E+04  0.91154685625E+03 0.  0.
        -24    2    4    4    0    0 -0.93691963219E+02  0.19459698107E+02  0.15449144444E+04  0.15499619317E+04  0.80402024368E+02 0.  0.
         24    2    4    4    0    0 -0.11541722163E+03 -0.90783748932E+02 -0.83309295330E+02  0.18670759765E+03  0.79727437031E+02 0.  0.
         11    1    3    3    0    0  0.21396608390E+03  0.60804472666E+02 -0.30256842284E+03  0.37553471138E+03  0.00000000000E+00 0. -1.
        -11    1    3    3    0    0 -0.48568990533E+01  0.10519578159E+02 -0.45736432952E+02  0.47181270566E+02  0.00000000000E+00 0.  1.
          4    1    6    6  502    0 -0.51552122030E+02  0.38164355533E+01 -0.15601249901E+02  0.53996161573E+02  0.00000000000E+00 0. -1.
          3    1    5    5  503    0 -0.30392058293E+02 -0.26411075448E+02  0.78633494776E+03  0.78736514539E+03  0.00000000000E+00 0. -1.
         -4    1    5    5    0  503 -0.63299904925E+02  0.45870773555E+02  0.75857949663E+03  0.76259678634E+03  0.00000000000E+00 0.  1.
         -3    1    6    6    0  502 -0.63865099597E+02 -0.94600184486E+02 -0.67708045429E+02  0.13271143608E+03  0.00000000000E+00 0.  1.
<mgrwt>
<rscale>  0 0.18502725E+04</rscale>
<asrwt>0</asrwt>
<pdfrwt beam="1">  1        2 0.80468094E-01 0.18502725E+04</pdfrwt>
<pdfrwt beam="2">  1       -2 0.25174506E+00 0.18502725E+04</pdfrwt>
<totfact> 0.34434147E+00</totfact>
</mgrwt>
</event>
<event>
12    1  0.1549527E-007  0.2252293E+04  0.7818608E-02  0.8496972E-01
         -2   -1    0    0    0  501 -0.00000000000E+00  0.00000000000E+00  0.56083458203E+03  0.56083458203E+03  0.00000000000E+00 0. -1.
          2   -1    0    0  501    0  0.00000000000E+00 -0.00000000000E+00 -0.22612840025E+04  0.22612840025E+04  0.00000000000E+00 0.  1.
         23    2    1    2    0    0 -0.28666557389E+02 -0.42618450555E+03 -0.17727199195E+04  0.18259340249E+04  0.95100715449E+02 0.  0.
        254    2    1    2    0    0  0.28666557389E+02  0.42618450555E+03  0.72270498956E+02  0.99618455968E+03  0.89705387110E+03 0.  0.
        -24    2    4    4    0    0  0.41254036845E+03  0.46016016625E+02 -0.76815003751E+02  0.42987128213E+03  0.81127954579E+02 0.  0.
         24    2    4    4    0    0 -0.38387381106E+03  0.38016848893E+03  0.14908550271E+03  0.56631327755E+03  0.81222277858E+02 0.  0.
         11    1    3    3    0    0 -0.23731570653E+02 -0.23326554875E+02 -0.10054594593E+03  0.10590940870E+03  0.00000000000E+00 0. -1.
        -11    1    3    3    0    0 -0.49349867360E+01 -0.40285795067E+03 -0.16721739735E+04  0.17200246162E+04  0.00000000000E+00 0.  1.
          4    1    6    6  502    0 -0.36658435974E+03  0.36940972664E+03  0.12587571754E+03  0.53543658374E+03  0.00000000000E+00 0. -1.
          3    1    5    5  503    0  0.26300364478E+03  0.63090796521E+02 -0.69164425712E+02  0.27916855760E+03  0.00000000000E+00 0. -1.
         -4    1    5    5    0  503  0.14953672368E+03 -0.17074779897E+02 -0.76505780388E+01  0.15070272453E+03  0.00000000000E+00 0.  1.
         -3    1    6    6    0  502 -0.17289451318E+02  0.10758762283E+02  0.23209785168E+02  0.30876693805E+02  0.00000000000E+00 0.  1.
<mgrwt>
<rscale>  0 0.22522933E+04</rscale>
<asrwt>0</asrwt>
<pdfrwt beam="1">  1        2 0.34788984E+00 0.22522933E+04</pdfrwt>
<pdfrwt beam="2">  1       -2 0.86282246E-01 0.22522933E+04</pdfrwt>
<totfact> 0.50530067E+00</totfact>
</mgrwt>
</event>
<event>
12    1  0.1549527E-007  0.1077168E+04  0.7818608E-02  0.9227736E-01
          1   -1    0    0  501    0  0.00000000000E+00  0.00000000000E+00  0.67977546627E+03  0.67977546627E+03  0.00000000000E+00 0. -1.
         -1   -1    0    0    0  501 -0.00000000000E+00 -0.00000000000E+00 -0.42671805187E+03  0.42671805187E+03  0.00000000000E+00 0.  1.
         23    2    1    2    0    0 -0.10058723983E+03 -0.37564163780E+02  0.13421232710E+03  0.19320249821E+03  0.88234898721E+02 0.  0.
        254    2    1    2    0    0  0.10058723983E+03  0.37564163780E+02  0.11884508730E+03  0.91329101992E+03  0.89913707135E+03 0.  0.
        -24    2    4    4    0    0 -0.10765382846E+03  0.18184747611E+03  0.44121209788E+03  0.49564293581E+03  0.79598700657E+02 0.  0.
         24    2    4    4    0    0  0.20824106829E+03 -0.14428331233E+03 -0.32236701058E+03  0.41764808412E+03  0.79545055897E+02 0.  0.
         13    1    3    3    0    0 -0.10517054945E+03 -0.19135636528E+02  0.73857148279E+02  0.12993034830E+03  0.00000000000E+00 0.  1.
        -13    1    3    3    0    0  0.45833096231E+01 -0.18428527252E+02  0.60355178821E+02  0.63272149910E+02  0.00000000000E+00 0. -1.
          4    1    6    6  502    0  0.48805662780E+02  0.54853834306E+00 -0.76826127785E+02  0.91019489804E+02  0.00000000000E+00 0. -1.
          1    1    5    5  503    0 -0.20853656226E+02  0.23471258019E+02  0.14783709709E+03  0.15113431843E+03  0.00000000000E+00 0. -1.
         -2    1    5    5    0  503 -0.86800172236E+02  0.15837621810E+03  0.29337500079E+03  0.34450861738E+03  0.00000000000E+00 0.  1.
         -3    1    6    6    0  502  0.15943540551E+03 -0.14483185068E+03 -0.24554088279E+03  0.32662859431E+03  0.00000000000E+00 0.  1.
<mgrwt>
<rscale>  0 0.10771675E+04</rscale>
<asrwt>0</asrwt>
<pdfrwt beam="1">  1        1 0.10458084E+00 0.10771675E+04</pdfrwt>
<pdfrwt beam="2">  1       -1 0.65648931E-01 0.10771675E+04</pdfrwt>
<totfact> 0.66870389E+01</totfact>
</mgrwt>
</event>
<event>
12    1  0.1549527E-007  0.1202232E+04  0.7818608E-02  0.9110905E-01
         -2   -1    0    0    0  501 -0.00000000000E+00  0.00000000000E+00  0.24254373703E+03  0.24254373703E+03  0.00000000000E+00 0.  1.
          2   -1    0    0  501    0  0.00000000000E+00 -0.00000000000E+00 -0.14897954281E+04  0.14897954281E+04  0.00000000000E+00 0. -1.
         23    2    1    2    0    0 -0.22170430834E+03 -0.51747197632E+02 -0.44505222980E+03  0.50811278102E+03  0.90975481267E+02 0.  0.
        254    2    1    2    0    0  0.22170430834E+03  0.51747197632E+02 -0.80219946123E+03  0.12242263841E+04  0.89631227317E+03 0.  0.
        -24    2    4    4    0    0  0.22231610683E+03  0.45549615830E+03 -0.42203121554E+03  0.66434634145E+03  0.79652450827E+02 0.  0.
         24    2    4    4    0    0 -0.61179849526E+00 -0.40374896067E+03 -0.38016824568E+03  0.55988004261E+03  0.76968626994E+02 0.  0.
         13    1    3    3    0    0 -0.80252261284E+02 -0.40397496291E+02 -0.96864298934E+02  0.13211765800E+03  0.00000000000E+00 0. -1.
        -13    1    3    3    0    0 -0.14145204705E+03 -0.11349701341E+02 -0.34818793086E+03  0.37599512302E+03  0.00000000000E+00 0.  1.
          2    1    6    6  502    0  0.31786293972E+02 -0.13723021833E+03 -0.15531450836E+03  0.20967855831E+03  0.00000000000E+00 0. -1.
          1    1    5    5  503    0 -0.50131778830E+01  0.15928944119E+01 -0.27450035580E+01  0.59333219723E+01  0.00000000000E+00 0. -1.
         -2    1    5    5    0  503  0.22732928471E+03  0.45390326389E+03 -0.41928621199E+03  0.65841301948E+03  0.00000000000E+00 0.  1.
         -1    1    6    6    0  502 -0.32398092467E+02 -0.26651874234E+03 -0.22485373732E+03  0.35020148430E+03  0.00000000000E+00 0.  1.
<mgrwt>
<rscale>  0 0.12022322E+04</rscale>
<asrwt>0</asrwt>
<pdfrwt beam="1">  1        2 0.22919930E+00 0.12022322E+04</pdfrwt>
<pdfrwt beam="2">  1       -2 0.37314420E-01 0.12022322E+04</pdfrwt>
<totfact> 0.85895112E+01</totfact>
</mgrwt>
</event>
<event>
12    1  0.1549527E-007  0.2613812E+04  0.7818608E-02  0.8363525E-01
          1   -1    0    0  501    0  0.00000000000E+00  0.00000000000E+00  0.86961158847E+03  0.86961158847E+03  0.00000000000E+00 0. -1.
         -1   -1    0    0    0  501 -0.00000000000E+00 -0.00000000000E+00 -0.19640997174E+04  0.19640997174E+04  0.00000000000E+00 0.  1.
         23    2    1    2    0    0 -0.25535631547E+03 -0.11173993487E+04 -0.48184291112E+03  0.12465255754E+04  0.88686339595E+02 0.  0.
        254    2    1    2    0    0  0.25535631547E+03  0.11173993487E+04 -0.61264521786E+03  0.15871857305E+04  0.91106324036E+03 0.  0.
        -24    2    4    4    0    0  0.16301957582E+02  0.11847173034E+04 -0.58800366889E+03  0.13252016196E+04  0.81179893664E+02 0.  0.
         24    2    4    4    0    0  0.23905435788E+03 -0.67317954772E+02 -0.24641548970E+02  0.26198411089E+03  0.79685477754E+02 0.  0.
         13    1    3    3    0    0 -0.14897177209E+03 -0.45923177579E+03 -0.19307325738E+03  0.51996509065E+03  0.00000000000E+00 0. -1.
        -13    1    3    3    0    0 -0.10638454337E+03 -0.65816757289E+03 -0.28876965373E+03  0.72656048474E+03  0.00000000000E+00 0.  1.
          2    1    6    6  502    0  0.13338554660E+03 -0.44098833964E+02  0.25429765803E+02  0.14276933910E+03  0.00000000000E+00 0. -1.
          3    1    5    5  503    0  0.32457227087E+02  0.30533333522E+03 -0.17647286277E+03  0.35415334036E+03  0.00000000000E+00 0. -1.
         -4    1    5    5    0  503 -0.16155269505E+02  0.87938396823E+03 -0.41153080611E+03  0.97104827928E+03  0.00000000000E+00 0.  1.
         -1    1    6    6    0  502  0.10566881128E+03 -0.23219120808E+02 -0.50071314773E+02  0.11921477179E+03  0.00000000000E+00 0.  1.
<mgrwt>
<rscale>  0 0.26138124E+04</rscale>
<asrwt>0</asrwt>
<pdfrwt beam="1">  1        1 0.13378640E+00 0.26138124E+04</pdfrwt>
<pdfrwt beam="2">  1       -1 0.30216918E+00 0.26138124E+04</pdfrwt>
<totfact> 0.54233690E-01</totfact>
</mgrwt>
</event>
<event>
12    1  0.1549527E-007  0.1745679E+04  0.7818608E-02  0.8735733E-01
          2   -1    0    0  501    0  0.00000000000E+00  0.00000000000E+00  0.61034584985E+03  0.61034584985E+03  0.00000000000E+00 0. -1.
         -2   -1    0    0    0  501 -0.00000000000E+00 -0.00000000000E+00 -0.12482243536E+04  0.12482243536E+04  0.00000000000E+00 0.  1.
         23    2    1    2    0    0 -0.53177852475E+03  0.25427773117E+03  0.19843035436E+02  0.59669393246E+03  0.90577806502E+02 0.  0.
        254    2    1    2    0    0  0.53177852475E+03 -0.25427773117E+03 -0.65772153919E+03  0.12618762710E+04  0.90127051222E+03 0.  0.
        -24    2    4    4    0    0  0.89484283914E+02 -0.39105801136E+03 -0.67765823105E+03  0.79164293606E+03  0.80895332254E+02 0.  0.
         24    2    4    4    0    0  0.44229424083E+03  0.13678028019E+03  0.19936691866E+02  0.47023333492E+03  0.79930451441E+02 0.  0.
         13    1    3    3    0    0 -0.61760316690E+01  0.68565346655E+01 -0.11712902054E+02  0.14911321515E+02  0.00000000000E+00 0.  1.
        -13    1    3    3    0    0 -0.52560249308E+03  0.24742119650E+03  0.31555937490E+02  0.58178261095E+03  0.00000000000E+00 0. -1.
          4    1    6    6  502    0  0.41717455242E+02 -0.77456905535E+01  0.12810755796E+02  0.44322198254E+02  0.00000000000E+00 0. -1.
          1    1    5    5  503    0  0.14937233041E+02 -0.15899212127E+03 -0.20521991232E+03  0.26003235947E+03  0.00000000000E+00 0. -1.
         -2    1    5    5    0  503  0.74547050873E+02 -0.23206589009E+03 -0.47243831873E+03  0.53161057659E+03  0.00000000000E+00 0.  1.
         -3    1    6    6    0  502  0.40057678559E+03  0.14452597074E+03  0.71259360697E+01  0.42591113667E+03  0.00000000000E+00 0.  1.
<mgrwt>
<rscale>  0 0.17456787E+04</rscale>
<asrwt>0</asrwt>
<pdfrwt beam="1">  1        2 0.93899363E-01 0.17456787E+04</pdfrwt>
<pdfrwt beam="2">  1       -2 0.19203451E+00 0.17456787E+04</pdfrwt>
<totfact> 0.69123090E+00</totfact>
</mgrwt>
</event>
<event>
12    1  0.1549527E-007  0.2521639E+04  0.7818608E-02  0.8395317E-01
          1   -1    0    0  501    0  0.00000000000E+00  0.00000000000E+00  0.37947770389E+04  0.37947770389E+04  0.00000000000E+00 0. -1.
         -1   -1    0    0    0  501 -0.00000000000E+00 -0.00000000000E+00 -0.41890898251E+03  0.41890898251E+03  0.00000000000E+00 0.  1.
         23    2    1    2    0    0 -0.43234060865E+03 -0.27495588036E+03 -0.14674109430E+03  0.54063500672E+03  0.90742072399E+02 0.  0.
        254    2    1    2    0    0  0.43234060865E+03  0.27495588036E+03  0.35226091507E+04  0.36730510147E+04  0.90554369853E+03 0.  0.
        -24    2    4    4    0    0  0.51758346775E+03  0.52218879303E+03  0.21559041732E+04  0.22792420929E+04  0.80299020102E+02 0.  0.
         24    2    4    4    0    0 -0.85242859099E+02 -0.24723291267E+03  0.13667049775E+04  0.13938089218E+04  0.80189504758E+02 0.  0.
         13    1    3    3    0    0  0.16504984238E+01 -0.28136107602E+01 -0.98850012433E+01  0.10409313144E+02  0.00000000000E+00 0. -1.
        -13    1    3    3    0    0 -0.43399110707E+03 -0.27214226960E+03 -0.13685609306E+03  0.53022569357E+03  0.00000000000E+00 0.  1.
          4    1    6    6  502    0  0.12354796372E+02 -0.36547979111E+02  0.13476912113E+03  0.14018242322E+03  0.00000000000E+00 0. -1.
          1    1    5    5  503    0  0.15888042444E+03  0.15833159760E+03  0.77663425288E+03  0.80837655014E+03  0.00000000000E+00 0. -1.
         -2    1    5    5    0  503  0.35870304330E+03  0.36385719543E+03  0.13792699203E+04  0.14708655428E+04  0.00000000000E+00 0.  1.
         -3    1    6    6    0  502 -0.97597655471E+02 -0.21068493356E+03  0.12319358564E+04  0.12536264985E+04  0.00000000000E+00 0.  1.
<mgrwt>
<rscale>  0 0.25216393E+04</rscale>
<asrwt>0</asrwt>
<pdfrwt beam="1">  1        1 0.58381183E+00 0.25216393E+04</pdfrwt>
<pdfrwt beam="2">  1       -1 0.64447539E-01 0.25216393E+04</pdfrwt>
<totfact> 0.31219478E-01</totfact>
</mgrwt>
</event>
<event>
12    1  0.1549527E-007  0.1850368E+04  0.7818608E-02  0.8679964E-01
          1   -1    0    0  501    0  0.00000000000E+00  0.00000000000E+00  0.79165219203E+03  0.79165219203E+03  0.00000000000E+00 0. -1.
         -1   -1    0    0    0  501 -0.00000000000E+00 -0.00000000000E+00 -0.10812391806E+04  0.10812391806E+04  0.00000000000E+00 0.  1.
         23    2    1    2    0    0  0.27075638242E+03  0.31205369290E+02  0.54295765736E+03  0.61348594189E+03  0.85318166463E+02 0.  0.
        254    2    1    2    0    0 -0.27075638242E+03 -0.31205369290E+02 -0.83254464595E+03  0.12594054308E+04  0.90481415652E+03 0.  0.
        -24    2    4    4    0    0 -0.40917181689E+03 -0.37195075828E+03 -0.40518554673E+03  0.69012947493E+03  0.79589085733E+02 0.  0.
         24    2    4    4    0    0  0.13841543447E+03  0.34074538899E+03 -0.42735909922E+03  0.56927595583E+03  0.78568833415E+02 0.  0.
         13    1    3    3    0    0  0.70087661372E+02 -0.28936561621E+02  0.13260914877E+03  0.15275729512E+03  0.00000000000E+00 0.  1.
        -13    1    3    3    0    0  0.20066872105E+03  0.60141930911E+02  0.41034850858E+03  0.46072864677E+03  0.00000000000E+00 0. -1.
          2    1    6    6  502    0  0.52044895048E+02  0.54323697363E+02 -0.10869008006E+03  0.13218649212E+03  0.00000000000E+00 0. -1.
          3    1    5    5  503    0 -0.22871471368E+02 -0.19899385341E+02 -0.49087130262E+02  0.57694333317E+02  0.00000000000E+00 0. -1.
         -4    1    5    5    0  503 -0.38630034552E+03 -0.35205137294E+03 -0.35609841647E+03  0.63243514162E+03  0.00000000000E+00 0.  1.
         -1    1    6    6    0  502  0.86370539420E+02  0.28642169163E+03 -0.31866901916E+03  0.43708946371E+03  0.00000000000E+00 0.  1.
<mgrwt>
<rscale>  0 0.18503679E+04</rscale>
<asrwt>0</asrwt>
<pdfrwt beam="1">  1        1 0.12179265E+00 0.18503679E+04</pdfrwt>
<pdfrwt beam="2">  1       -1 0.16634449E+00 0.18503679E+04</pdfrwt>
<totfact> 0.55323228E+00</totfact>
</mgrwt>
</event>
<event>
12    1  0.1549527E-007  0.1697560E+04  0.7818608E-02  0.8762757E-01
          1   -1    0    0  501    0  0.00000000000E+00  0.00000000000E+00  0.98695321349E+03  0.98695321349E+03  0.00000000000E+00 0. -1.
         -1   -1    0    0    0  501 -0.00000000000E+00 -0.00000000000E+00 -0.72995129348E+03  0.72995129348E+03  0.00000000000E+00 0.  1.
         23    2    1    2    0    0 -0.17088692985E+03 -0.29530930546E+03 -0.41178695788E+03  0.54240069713E+03  0.90664705830E+02 0.  0.
        254    2    1    2    0    0  0.17088692985E+03  0.29530930546E+03  0.66878887789E+03  0.11745038098E+04  0.90320025877E+03 0.  0.
        -24    2    4    4    0    0 -0.28258584183E+03 -0.14450504251E+03  0.26256168071E+03  0.41940593638E+03  0.78906514203E+02 0.  0.
         24    2    4    4    0    0  0.45347277168E+03  0.43981434798E+03  0.40622719719E+03  0.75509787346E+03  0.77961833128E+02 0.  0.
         11    1    3    3    0    0 -0.14009651668E+03 -0.24120773405E+03 -0.38301460350E+03  0.47382316474E+03  0.00000000000E+00 0.  1.
        -11    1    3    3    0    0 -0.30790413175E+02 -0.54101571407E+02 -0.28772354383E+02  0.68577532392E+02  0.00000000000E+00 0. -1.
          4    1    6    6  502    0  0.10296872752E+03  0.12211952612E+03  0.13920550687E+03  0.21188183181E+03  0.00000000000E+00 0. -1.
          1    1    5    5  503    0 -0.66969354681E+02 -0.98780452036E+01  0.27111611373E+02  0.72921256946E+02  0.00000000000E+00 0. -1.
         -2    1    5    5    0  503 -0.21561648715E+03 -0.13462699731E+03  0.23545006933E+03  0.34648467944E+03  0.00000000000E+00 0.  1.
         -3    1    6    6    0  502  0.35050404416E+03  0.31769482186E+03  0.26702169031E+03  0.54321604165E+03  0.00000000000E+00 0.  1.
<mgrwt>
<rscale>  0 0.16975603E+04</rscale>
<asrwt>0</asrwt>
<pdfrwt beam="1">  1        1 0.15183896E+00 0.16975603E+04</pdfrwt>
<pdfrwt beam="2">  1       -1 0.11230020E+00 0.16975603E+04</pdfrwt>
<totfact> 0.10715756E+01</totfact>
</mgrwt>
</event>
<event>
12    1  0.1549527E-007  0.1828897E+04  0.7818608E-02  0.8691082E-01
          1   -1    0    0  501    0  0.00000000000E+00  0.00000000000E+00  0.29998470579E+04  0.29998470579E+04  0.00000000000E+00 0. -1.
         -1   -1    0    0    0  501 -0.00000000000E+00 -0.00000000000E+00 -0.27875284122E+03  0.27875284122E+03  0.00000000000E+00 0.  1.
         23    2    1    2    0    0 -0.34313294124E+03 -0.60133839137E+03  0.13709096022E+04  0.15387310188E+04  0.94614662786E+02 0.  0.
        254    2    1    2    0    0  0.34313294124E+03  0.60133839137E+03  0.13501846145E+04  0.17398688803E+04  0.85135019312E+03 0.  0.
        -24    2    4    4    0    0  0.39365386813E+03  0.78828000365E+03  0.11385506084E+04  0.14418773303E+04  0.79774781265E+02 0.  0.
         24    2    4    4    0    0 -0.50520926888E+02 -0.18694161228E+03  0.21163400611E+03  0.29799155006E+03  0.80687551159E+02 0.  0.
         11    1    3    3    0    0 -0.31520448329E+03 -0.54021824637E+03  0.11670691061E+04  0.13240996633E+04  0.00000000000E+00 0.  1.
        -11    1    3    3    0    0 -0.27928457949E+02 -0.61120144998E+02  0.20384049616E+03  0.21463135550E+03  0.00000000000E+00 0. -1.
          2    1    6    6  502    0  0.38646097553E+01  0.66482190654E+01  0.14401786139E+02  0.16326220301E+02  0.00000000000E+00 0. -1.
          1    1    5    5  503    0  0.33884706893E+03  0.69575053471E+03  0.95557630747E+03  0.12296390617E+04  0.00000000000E+00 0. -1.
         -2    1    5    5    0  503  0.54806799195E+02  0.92529468937E+02  0.18297430089E+03  0.21223826857E+03  0.00000000000E+00 0.  1.
         -1    1    6    6    0  502 -0.54385536644E+02 -0.19358983135E+03  0.19723221997E+03  0.28166532976E+03  0.00000000000E+00 0.  1.
<mgrwt>
<rscale>  0 0.18288968E+04</rscale>
<asrwt>0</asrwt>
<pdfrwt beam="1">  1        1 0.46151491E+00 0.18288968E+04</pdfrwt>
<pdfrwt beam="2">  1       -1 0.42885055E-01 0.18288968E+04</pdfrwt>
<totfact> 0.30235910E+00</totfact>
</mgrwt>
</event>
<event>
12    1  0.1549527E-007  0.1388626E+04  0.7818608E-02  0.8962093E-01
          2   -1    0    0  501    0  0.00000000000E+00  0.00000000000E+00  0.64511260187E+03  0.64511260187E+03  0.00000000000E+00 0. -1.
         -2   -1    0    0    0  501 -0.00000000000E+00 -0.00000000000E+00 -0.74726595224E+03  0.74726595224E+03  0.00000000000E+00 0.  1.
         23    2    1    2    0    0  0.14243549171E+03 -0.13814243402E+02  0.34147651382E+03  0.38140581330E+03  0.91572279120E+02 0.  0.
        254    2    1    2    0    0 -0.14243549171E+03  0.13814243402E+02 -0.44362986420E+03  0.10109727408E+04  0.89709515863E+03 0.  0.
        -24    2    4    4    0    0 -0.51805059403E+03  0.10326452774E+02 -0.23912828089E+03  0.57599744515E+03  0.78151573897E+02 0.  0.
         24    2    4    4    0    0  0.37561510232E+03  0.34877906275E+01 -0.20450158331E+03  0.43497529566E+03  0.79270047881E+02 0.  0.
         11    1    3    3    0    0  0.15170153262E+03 -0.26036969182E+01  0.32877756064E+03  0.36209780256E+03  0.00000000000E+00 0. -1.
        -11    1    3    3    0    0 -0.92660409119E+01 -0.11210546483E+02  0.12698953181E+02  0.19308010735E+02  0.00000000000E+00 0.  1.
          2    1    6    6  502    0  0.92511133745E+02 -0.16110036791E+02 -0.86384132510E+02  0.12759334427E+03  0.00000000000E+00 0. -1.
          1    1    5    5  503    0 -0.18129396784E+03  0.39500568840E+02 -0.73403641796E+02  0.19953920002E+03  0.00000000000E+00 0. -1.
         -2    1    5    5    0  503 -0.33675662618E+03 -0.29174116066E+02 -0.16572463909E+03  0.37645824513E+03  0.00000000000E+00 0.  1.
         -3    1    6    6    0  502  0.28310396857E+03  0.19597827419E+02 -0.11811745080E+03  0.30738195139E+03  0.00000000000E+00 0.  1.
<mgrwt>
<rscale>  0 0.13886262E+04</rscale>
<asrwt>0</asrwt>
<pdfrwt beam="1">  1        2 0.99248093E-01 0.13886262E+04</pdfrwt>
<pdfrwt beam="2">  1       -2 0.11496399E+00 0.13886262E+04</pdfrwt>
<totfact> 0.26086165E+01</totfact>
</mgrwt>
</event>
<event>
12    1  0.1549527E-007  0.1847491E+04  0.7818608E-02  0.8681444E-01
         -2   -1    0    0    0  501 -0.00000000000E+00  0.00000000000E+00  0.47451537854E+03  0.47451537854E+03  0.00000000000E+00 0.  1.
          2   -1    0    0  501    0  0.00000000000E+00 -0.00000000000E+00 -0.17982670293E+04  0.17982670293E+04  0.00000000000E+00 0. -1.
         23    2    1    2    0    0  0.53812040848E+03 -0.15392796521E+03 -0.10204465681E+04  0.11673762194E+04  0.90491142284E+02 0.  0.
        254    2    1    2    0    0 -0.53812040848E+03  0.15392796521E+03 -0.30330508262E+03  0.11054061884E+04  0.90369324202E+03 0.  0.
        -24    2    4    4    0    0 -0.36626849764E+03 -0.24377049333E+03  0.15172032266E+03  0.47211024645E+03  0.79324414351E+02 0.  0.
         24    2    4    4    0    0 -0.17185191085E+03  0.39769845854E+03 -0.45502540528E+03  0.63329594193E+03  0.79488913884E+02 0.  0.
         13    1    3    3    0    0  0.37123414760E+03 -0.10750008393E+03 -0.61340290985E+03  0.72500633805E+03  0.00000000000E+00 0. -1.
        -13    1    3    3    0    0  0.16688626088E+03 -0.46427881278E+02 -0.40704365827E+03  0.44236988140E+03  0.00000000000E+00 0.  1.
          2    1    6    6  502    0 -0.37546514733E+02  0.18400070053E+03 -0.20536598430E+03  0.27828256515E+03  0.00000000000E+00 0. -1.
          1    1    5    5  503    0 -0.23426847145E+03 -0.11863647899E+03  0.64540995914E+02  0.27041056010E+03  0.00000000000E+00 0. -1.
         -4    1    5    5    0  503 -0.13200002619E+03 -0.12513401434E+03  0.87179326749E+02  0.20169968634E+03  0.00000000000E+00 0.  1.
         -1    1    6    6    0  502 -0.13430539611E+03  0.21369775801E+03 -0.24965942098E+03  0.35501337678E+03  0.00000000000E+00 0.  1.
<mgrwt>
<rscale>  0 0.18474906E+04</rscale>
<asrwt>0</asrwt>
<pdfrwt beam="1">  1        2 0.27665647E+00 0.18474906E+04</pdfrwt>
<pdfrwt beam="2">  1       -2 0.73002366E-01 0.18474906E+04</pdfrwt>
<totfact> 0.13785440E+01</totfact>
</mgrwt>
</event>
<event>
12    1  0.1549527E-007  0.1230333E+04  0.7818608E-02  0.9086713E-01
         -1   -1    0    0    0  501 -0.00000000000E+00  0.00000000000E+00  0.72174522742E+03  0.72174522742E+03  0.00000000000E+00 0.  1.
          1   -1    0    0  501    0  0.00000000000E+00 -0.00000000000E+00 -0.52432580763E+03  0.52432580763E+03  0.00000000000E+00 0. -1.
         23    2    1    2    0    0 -0.10260009539E+03  0.76775830070E+02 -0.22082511275E+03  0.27066732915E+03  0.89865260203E+02 0.  0.
        254    2    1    2    0    0  0.10260009539E+03 -0.76775830070E+02  0.41824453254E+03  0.97540370590E+03  0.87181568742E+03 0.  0.
        -24    2    4    4    0    0 -0.95799078891E+02 -0.28702778206E+03 -0.13951254855E+03  0.34214634260E+03  0.77704294358E+02 0.  0.
         24    2    4    4    0    0  0.19839917428E+03  0.21025195199E+03  0.55775708110E+03  0.63325736330E+03  0.79710795977E+02 0.  0.
         11    1    3    3    0    0 -0.67184601896E+02 -0.25579094761E+01 -0.12019929636E+03  0.13772503214E+03  0.00000000000E+00 0.  1.
        -11    1    3    3    0    0 -0.35415493491E+02  0.79333739546E+02 -0.10062581639E+03  0.13294229700E+03  0.00000000000E+00 0. -1.
          2    1    6    6  502    0 -0.28066667906E+00 -0.59110973590E+01  0.15988528039E+02  0.17048544649E+02  0.00000000000E+00 0. -1.
          1    1    5    5  503    0  0.42626243484E+01 -0.81626442925E+02 -0.19349386130E+02  0.83996695736E+02  0.00000000000E+00 0. -1.
         -2    1    5    5    0  503 -0.10006170324E+03 -0.20540133913E+03 -0.12016316242E+03  0.25814964686E+03  0.00000000000E+00 0.  1.
         -1    1    6    6    0  502  0.19867984096E+03  0.21616304935E+03  0.54176855306E+03  0.61620881865E+03  0.00000000000E+00 0.  1.
<mgrwt>
<rscale>  0 0.12303327E+04</rscale>
<asrwt>0</asrwt>
<pdfrwt beam="1">  1        1 0.80665509E-01 0.12303327E+04</pdfrwt>
<pdfrwt beam="2">  1       -1 0.11103773E+00 0.12303327E+04</pdfrwt>
<totfact> 0.30596057E+01</totfact>
</mgrwt>
</event>
<event>
12    1  0.1549527E-007  0.1713725E+04  0.7818608E-02  0.8753575E-01
          1   -1    0    0  501    0  0.00000000000E+00  0.00000000000E+00  0.89785269663E+03  0.89785269663E+03  0.00000000000E+00 0. -1.
         -1   -1    0    0    0  501 -0.00000000000E+00 -0.00000000000E+00 -0.81774369195E+03  0.81774369195E+03  0.00000000000E+00 0.  1.
         23    2    1    2    0    0 -0.18161555526E+03  0.33475958868E+03 -0.46703373952E+03  0.60928678691E+03  0.89786873896E+02 0.  0.
        254    2    1    2    0    0  0.18161555526E+03 -0.33475958868E+03  0.54714274420E+03  0.11063096017E+04  0.88289725341E+03 0.  0.
        -24    2    4    4    0    0  0.39473935239E+03 -0.17071728408E+03  0.67042726901E+03  0.79987700080E+03  0.73259442778E+02 0.  0.
         24    2    4    4    0    0 -0.21312379713E+03 -0.16404230461E+03 -0.12328452481E+03  0.30643260087E+03  0.79813747024E+02 0.  0.
         13    1    3    3    0    0 -0.39864834391E+02  0.86534698484E+02 -0.62477397135E+02  0.11393368341E+03  0.00000000000E+00 0. -1.
        -13    1    3    3    0    0 -0.14175072087E+03  0.24822489020E+03 -0.40455634239E+03  0.49535310350E+03  0.00000000000E+00 0.  1.
          2    1    6    6  502    0 -0.19906008507E+03 -0.11585183900E+03 -0.10259925376E+03  0.25213721054E+03  0.00000000000E+00 0. -1.
          3    1    5    5  503    0  0.34363725325E+03 -0.11943006130E+03  0.55378589366E+03  0.66259257269E+03  0.00000000000E+00 0. -1.
         -2    1    5    5    0  503  0.51102099142E+02 -0.51287222776E+02  0.11664137535E+03  0.13728442810E+03  0.00000000000E+00 0.  1.
         -1    1    6    6    0  502 -0.14063712061E+02 -0.48190465609E+02 -0.20685271043E+02  0.54295390326E+02  0.00000000000E+00 0.  1.
<mgrwt>
<rscale>  0 0.17137250E+04</rscale>
<asrwt>0</asrwt>
<pdfrwt beam="1">  1        1 0.13813118E+00 0.17137250E+04</pdfrwt>
<pdfrwt beam="2">  1       -1 0.12580672E+00 0.17137250E+04</pdfrwt>
<totfact> 0.95659856E+00</totfact>
</mgrwt>
</event>
<event>
12    1  0.1549527E-007  0.1421138E+04  0.7818608E-02  0.8938658E-01
          1   -1    0    0  501    0  0.00000000000E+00  0.00000000000E+00  0.80507957844E+03  0.80507957844E+03  0.00000000000E+00 0. -1.
         -1   -1    0    0    0  501 -0.00000000000E+00 -0.00000000000E+00 -0.62715324965E+03  0.62715324965E+03  0.00000000000E+00 0.  1.
         23    2    1    2    0    0  0.13250439757E+03  0.36438755426E+03  0.23536604544E+03  0.46202415192E+03  0.87939959796E+02 0.  0.
        254    2    1    2    0    0 -0.13250439757E+03 -0.36438755426E+03 -0.57439716656E+02  0.97020867617E+03  0.88750766149E+03 0.  0.
        -24    2    4    4    0    0 -0.20102959464E+03 -0.61589438572E+03  0.91390269419E+02  0.65942513902E+03  0.82161671998E+02 0.  0.
         24    2    4    4    0    0  0.68525197063E+02  0.25150683146E+03 -0.14882998607E+03  0.31078353715E+03  0.80527345083E+02 0.  0.
         13    1    3    3    0    0  0.14559221116E+03  0.32642522180E+03  0.21203358910E+03  0.41558243501E+03  0.00000000000E+00 0.  1.
        -13    1    3    3    0    0 -0.13087813591E+02  0.37962332460E+02  0.23332456337E+02  0.46441716906E+02  0.00000000000E+00 0. -1.
          4    1    6    6  502    0  0.35749498564E+02  0.25597267777E+02 -0.16746334453E+02  0.47049829786E+02  0.00000000000E+00 0. -1.
          3    1    5    5  503    0 -0.10782845670E+03 -0.23081282086E+03  0.10013166477E+02  0.25495450153E+03  0.00000000000E+00 0. -1.
         -4    1    5    5    0  503 -0.93201137934E+02 -0.38508156486E+03  0.81377102942E+02  0.40447063749E+03  0.00000000000E+00 0.  1.
         -3    1    6    6    0  502  0.32775698499E+02  0.22590956368E+03 -0.13208365162E+03  0.26373370737E+03  0.00000000000E+00 0.  1.
<mgrwt>
<rscale>  0 0.14211380E+04</rscale>
<asrwt>0</asrwt>
<pdfrwt beam="1">  1        1 0.12385840E+00 0.14211380E+04</pdfrwt>
<pdfrwt beam="2">  1       -1 0.96485115E-01 0.14211380E+04</pdfrwt>
<totfact> 0.22036199E+01</totfact>
</mgrwt>
</event>
<event>
12    1  0.1549527E-007  0.1273892E+04  0.7818608E-02  0.9050529E-01
         -2   -1    0    0    0  501 -0.00000000000E+00  0.00000000000E+00  0.23336467029E+03  0.23336467029E+03  0.00000000000E+00 0.  1.
          2   -1    0    0  501    0  0.00000000000E+00 -0.00000000000E+00 -0.17384821255E+04  0.17384821255E+04  0.00000000000E+00 0. -1.
         23    2    1    2    0    0  0.21175668800E+03 -0.21197622783E+03 -0.53080664795E+03  0.61645763029E+03  0.92138462947E+02 0.  0.
        254    2    1    2    0    0 -0.21175668800E+03  0.21197622783E+03 -0.97431080723E+03  0.13553891655E+04  0.89332156849E+03 0.  0.
        -24    2    4    4    0    0  0.15211961103E+03 -0.26816782531E+03 -0.45756055845E+03  0.55809967865E+03  0.84019212463E+02 0.  0.
         24    2    4    4    0    0 -0.36387629903E+03  0.48014405314E+03 -0.51675024878E+03  0.79728948683E+03  0.75468095497E+02 0.  0.
         11    1    3    3    0    0  0.15690831350E+03 -0.19014929909E+03 -0.36500561704E+03  0.44046120744E+03  0.00000000000E+00 0.  1.
        -11    1    3    3    0    0  0.54848374499E+02 -0.21826928734E+02 -0.16580103091E+03  0.17599642284E+03  0.00000000000E+00 0. -1.
          2    1    6    6  502    0 -0.55058143877E+01  0.35622854258E+02 -0.34559032433E+02  0.49936243954E+02  0.00000000000E+00 0. -1.
          3    1    5    5  503    0  0.17492290863E+02 -0.27719552350E+02 -0.13429784349E+02  0.35421927245E+02  0.00000000000E+00 0. -1.
         -4    1    5    5    0  503  0.13462732017E+03 -0.24044827296E+03 -0.44413077410E+03  0.52267775140E+03  0.00000000000E+00 0.  1.
         -1    1    6    6    0  502 -0.35837048464E+03  0.44452119888E+03 -0.48219121635E+03  0.74735324288E+03  0.00000000000E+00 0.  1.
<mgrwt>
<rscale>  0 0.12738922E+04</rscale>
<asrwt>0</asrwt>
<pdfrwt beam="1">  1        2 0.26745881E+00 0.12738922E+04</pdfrwt>
<pdfrwt beam="2">  1       -2 0.35902255E-01 0.12738922E+04</pdfrwt>
<totfact> 0.66868453E+01</totfact>
</mgrwt>
</event>
<event>
12    1  0.1549527E-007  0.3332044E+04  0.7818608E-02  0.8154789E-01
          2   -1    0    0  501    0  0.00000000000E+00  0.00000000000E+00  0.16602985224E+04  0.16602985224E+04  0.00000000000E+00 0. -1.
         -2   -1    0    0    0  501 -0.00000000000E+00 -0.00000000000E+00 -0.16717652152E+04  0.16717652152E+04  0.00000000000E+00 0.  1.
         23    2    1    2    0    0  0.40706360341E+03 -0.21251292540E+02 -0.14931529106E+04  0.15505906907E+04  0.93131524896E+02 0.  0.
        254    2    1    2    0    0 -0.40706360341E+03  0.21251292540E+02  0.14816862178E+04  0.17814730469E+04  0.90116578618E+03 0.  0.
        -24    2    4    4    0    0 -0.22489949976E+03  0.88586485476E+02  0.15422915701E+04  0.15630976012E+04  0.78635065212E+02 0.  0.
         24    2    4    4    0    0 -0.18216410365E+03 -0.67335192936E+02 -0.60605352296E+02  0.21837544565E+03  0.79353876195E+02 0.  0.
         13    1    3    3    0    0  0.37439194271E+03 -0.41015133083E+02 -0.14032445255E+04  0.14529097585E+04  0.00000000000E+00 0.  1.
        -13    1    3    3    0    0  0.32671660701E+02  0.19763840543E+02 -0.89908385082E+02  0.97680932192E+02  0.00000000000E+00 0. -1.
          4    1    6    6  502    0 -0.82099195675E+02 -0.42036572643E+02 -0.68456918689E+02  0.11486383716E+03  0.00000000000E+00 0. -1.
          3    1    5    5  503    0 -0.10499088558E+03  0.64429086562E+01  0.52072389060E+03  0.53124191040E+03  0.00000000000E+00 0. -1.
         -4    1    5    5    0  503 -0.11990861418E+03  0.82143576820E+02  0.10215676795E+04  0.10318556908E+04  0.00000000000E+00 0.  1.
         -3    1    6    6    0  502 -0.10006490798E+03 -0.25298620293E+02  0.78515663933E+01  0.10351160849E+03  0.00000000000E+00 0.  1.
<mgrwt>
<rscale>  0 0.33320440E+04</rscale>
<asrwt>0</asrwt>
<pdfrwt beam="1">  1        2 0.25543054E+00 0.33320440E+04</pdfrwt>
<pdfrwt beam="2">  1       -2 0.25719465E+00 0.33320440E+04</pdfrwt>
<totfact> 0.49898855E-01</totfact>
</mgrwt>
</event>
<event>
12    1  0.1549527E-007  0.1578562E+04  0.7818608E-02  0.8833828E-01
          1   -1    0    0  501    0  0.00000000000E+00  0.00000000000E+00  0.26152618719E+04  0.26152618719E+04  0.00000000000E+00 0. -1.
         -1   -1    0    0    0  501 -0.00000000000E+00 -0.00000000000E+00 -0.23820338704E+03  0.23820338704E+03  0.00000000000E+00 0.  1.
         23    2    1    2    0    0 -0.16722534381E+03  0.48538252501E+03  0.60786442367E+03  0.80084344332E+03  0.91052468122E+02 0.  0.
        254    2    1    2    0    0  0.16722534381E+03 -0.48538252501E+03  0.17691940612E+04  0.20526218157E+04  0.90534423323E+03 0.  0.
        -24    2    4    4    0    0 -0.24500866852E+03  0.13616767500E+03  0.48297836001E+03  0.56369244846E+03  0.76877804582E+02 0.  0.
         24    2    4    4    0    0  0.41223401233E+03 -0.62155020001E+03  0.12862157012E+04  0.14889293672E+04  0.79361819631E+02 0.  0.
         11    1    3    3    0    0 -0.16027942533E+03  0.47961681255E+03  0.60918000154E+03  0.79172094538E+03  0.00000000000E+00 0.  1.
        -11    1    3    3    0    0 -0.69459184728E+01  0.57657124626E+01 -0.13155778752E+01  0.91224979462E+01  0.00000000000E+00 0. -1.
          4    1    6    6  502    0  0.32402476009E+03 -0.43116240689E+03  0.89320136921E+03  0.10434087177E+04  0.00000000000E+00 0. -1.
          3    1    5    5  503    0 -0.16573203947E+03  0.72711220971E+02  0.24196646384E+03  0.30216187746E+03  0.00000000000E+00 0. -1.
         -4    1    5    5    0  503 -0.79276629051E+02  0.63456454033E+02  0.24101189617E+03  0.26153057100E+03  0.00000000000E+00 0.  1.
         -3    1    6    6    0  502  0.88209252238E+02 -0.19038779312E+03  0.39301433201E+03  0.44552064948E+03  0.00000000000E+00 0.  1.
<mgrwt>
<rscale>  0 0.15785617E+04</rscale>
<asrwt>0</asrwt>
<pdfrwt beam="1">  1        1 0.40234796E+00 0.15785617E+04</pdfrwt>
<pdfrwt beam="2">  1       -1 0.36646677E-01 0.15785617E+04</pdfrwt>
<totfact> 0.77507331E+00</totfact>
</mgrwt>
</event>
<event>
12    1  0.1549527E-007  0.1248855E+04  0.7818608E-02  0.9071137E-01
          1   -1    0    0  501    0  0.00000000000E+00  0.00000000000E+00  0.12542100537E+04  0.12542100537E+04  0.00000000000E+00 0. -1.
         -1   -1    0    0    0  501 -0.00000000000E+00 -0.00000000000E+00 -0.31088076868E+03  0.31088076868E+03  0.00000000000E+00 0.  1.
         23    2    1    2    0    0 -0.20349223141E+03  0.48662323362E+02  0.95490881536E+01  0.23071350015E+03  0.96749284797E+02 0.  0.
        254    2    1    2    0    0  0.20349223141E+03 -0.48662323362E+02  0.93378019684E+03  0.13343773222E+04  0.92996788765E+03 0.  0.
        -24    2    4    4    0    0 -0.25536694798E+03  0.20637462575E+03  0.11317799045E+03  0.35626596866E+03  0.79457023769E+02 0.  0.
         24    2    4    4    0    0  0.45885917938E+03 -0.25503694911E+03  0.82060220639E+03  0.97811135356E+03  0.87853553747E+02 0.  0.
         11    1    3    3    0    0 -0.84499591804E+02  0.62094132841E+02  0.30365674590E+02  0.10916930219E+03  0.00000000000E+00 0. -1.
        -11    1    3    3    0    0 -0.11899263960E+03 -0.13431809480E+02 -0.20816586437E+02  0.12154419796E+03  0.00000000000E+00 0.  1.
          2    1    6    6  502    0  0.42208102182E+03 -0.20277939338E+03  0.71561171979E+03  0.85520290274E+03  0.00000000000E+00 0. -1.
          3    1    5    5  503    0 -0.25633221374E+03  0.20961845209E+03  0.11697215376E+03  0.35118169658E+03  0.00000000000E+00 0. -1.
         -4    1    5    5    0  503  0.96526576871E+00 -0.32438263384E+01 -0.37941633056E+01  0.50842720725E+01  0.00000000000E+00 0.  1.
         -1    1    6    6    0  502  0.36778157568E+02 -0.52257555730E+02  0.10499048660E+03  0.12290845082E+03  0.00000000000E+00 0.  1.
<mgrwt>
<rscale>  0 0.12488551E+04</rscale>
<asrwt>0</asrwt>
<pdfrwt beam="1">  1        1 0.19295539E+00 0.12488551E+04</pdfrwt>
<pdfrwt beam="2">  1       -1 0.47827811E-01 0.12488551E+04</pdfrwt>
<totfact> 0.42016282E+01</totfact>
</mgrwt>
</event>
<event>
12    1  0.1549527E-007  0.1705685E+04  0.7818608E-02  0.8758128E-01
          2   -1    0    0  501    0  0.00000000000E+00  0.00000000000E+00  0.23144021053E+04  0.23144021053E+04  0.00000000000E+00 0. -1.
         -2   -1    0    0    0  501 -0.00000000000E+00 -0.00000000000E+00 -0.31426716347E+03  0.31426716347E+03  0.00000000000E+00 0.  1.
         23    2    1    2    0    0 -0.13887053396E+03  0.55655145960E+03  0.34351712048E+03  0.67480681755E+03  0.91245145392E+02 0.  0.
        254    2    1    2    0    0  0.13887053396E+03 -0.55655145960E+03  0.16566178214E+04  0.19538624512E+04  0.86264785396E+03 0.  0.
        -24    2    4    4    0    0 -0.33337623388E+03 -0.76577251887E+02  0.67223148102E+03  0.75848935458E+03  0.80044663218E+02 0.  0.
         24    2    4    4    0    0  0.47224676784E+03 -0.47997420771E+03  0.98438634033E+03  0.11953730967E+04  0.80672940805E+02 0.  0.
         13    1    3    3    0    0 -0.14325684098E+03  0.47325759810E+03  0.31670324776E+03  0.58719351477E+03  0.00000000000E+00 0. -1.
        -13    1    3    3    0    0  0.43863070222E+01  0.83293861500E+02  0.26813872724E+02  0.87613302776E+02  0.00000000000E+00 0.  1.
          2    1    6    6  502    0  0.44865546274E+03 -0.44785308195E+03  0.95327810128E+03  0.11448158130E+04  0.00000000000E+00 0. -1.
          3    1    5    5  503    0 -0.32018467837E+03 -0.88189609769E+02  0.65185518140E+03  0.73158103656E+03  0.00000000000E+00 0. -1.
         -4    1    5    5    0  503 -0.13191555510E+02  0.11612357882E+02  0.20376299618E+02  0.26908318017E+02  0.00000000000E+00 0.  1.
         -1    1    6    6    0  502  0.23591305106E+02 -0.32121125761E+02  0.31108239056E+02  0.50557283689E+02  0.00000000000E+00 0.  1.
<mgrwt>
<rscale>  0 0.17056853E+04</rscale>
<asrwt>0</asrwt>
<pdfrwt beam="1">  1        2 0.35606185E+00 0.17056853E+04</pdfrwt>
<pdfrwt beam="2">  1       -2 0.48348796E-01 0.17056853E+04</pdfrwt>
<totfact> 0.17161416E+01</totfact>
</mgrwt>
</event>
<event>
12    1  0.1549527E-007  0.1594464E+04  0.7818608E-02  0.8823956E-01
         -1   -1    0    0    0  501 -0.00000000000E+00  0.00000000000E+00  0.33512378851E+03  0.33512378851E+03  0.00000000000E+00 0.  1.
          1   -1    0    0  501    0  0.00000000000E+00 -0.00000000000E+00 -0.18965487178E+04  0.18965487178E+04  0.00000000000E+00 0. -1.
         23    2    1    2    0    0  0.47551033856E+03 -0.68806739996E+02 -0.18368533338E+03  0.52261734604E+03  0.92434512665E+02 0.  0.
        254    2    1    2    0    0 -0.47551033856E+03  0.68806739996E+02 -0.13777395959E+04  0.17090551602E+04  0.88986442626E+03 0.  0.
        -24    2    4    4    0    0 -0.45011089763E+03 -0.79914393994E+02 -0.14506753768E+04  0.15231554222E+04  0.80976915264E+02 0.  0.
         24    2    4    4    0    0 -0.25399440933E+02  0.14872113399E+03  0.72935780965E+02  0.18589973799E+03  0.80473456151E+02 0.  0.
         11    1    3    3    0    0  0.11848149130E+03 -0.28354425922E+02 -0.89487903164E+02  0.15116190679E+03  0.00000000000E+00 0. -1.
        -11    1    3    3    0    0  0.35702884726E+03 -0.40452314074E+02 -0.94197430217E+02  0.37145543925E+03  0.00000000000E+00 0.  1.
          4    1    6    6  502    0 -0.46439198424E+02  0.51528567632E+02  0.15559397054E+02  0.71090697486E+02  0.00000000000E+00 0. -1.
          3    1    5    5  503    0 -0.27204091317E+03 -0.82996143959E+02 -0.95513140093E+03  0.99657945563E+03  0.00000000000E+00 0. -1.
         -4    1    5    5    0  503 -0.17806998447E+03  0.30817499653E+01 -0.49554397591E+03  0.52657596661E+03  0.00000000000E+00 0.  1.
         -3    1    6    6    0  502  0.21039757492E+02  0.97192566359E+02  0.57376383912E+02  0.11480904050E+03  0.00000000000E+00 0.  1.
<mgrwt>
<rscale>  0 0.15944637E+04</rscale>
<asrwt>0</asrwt>
<pdfrwt beam="1">  1        1 0.29177672E+00 0.15944637E+04</pdfrwt>
<pdfrwt beam="2">  1       -1 0.51557507E-01 0.15944637E+04</pdfrwt>
<totfact> 0.12731645E+01</totfact>
</mgrwt>
</event>
<event>
12    1  0.1549527E-007  0.1724958E+04  0.7818608E-02  0.8747256E-01
          1   -1    0    0  501    0  0.00000000000E+00  0.00000000000E+00  0.10862363252E+04  0.10862363252E+04  0.00000000000E+00 0. -1.
         -1   -1    0    0    0  501 -0.00000000000E+00 -0.00000000000E+00 -0.68481436154E+03  0.68481436154E+03  0.00000000000E+00 0.  1.
         23    2    1    2    0    0 -0.50226006272E+03 -0.13924256906E+03  0.49123510235E+03  0.72196768124E+03  0.90949124970E+02 0.  0.
        254    2    1    2    0    0  0.50226006272E+03  0.13924256906E+03 -0.89813138733E+02  0.10490830054E+04  0.90601053459E+03 0.  0.
        -24    2    4    4    0    0  0.36184836886E+03 -0.10993721112E+03 -0.44293689556E+03  0.58810379387E+03  0.81563144106E+02 0.  0.
         24    2    4    4    0    0  0.14041169386E+03  0.24917978018E+03  0.35312375683E+03  0.46097921158E+03  0.77456047207E+02 0.  0.
         13    1    3    3    0    0 -0.21726896419E+02  0.11503763782E+02  0.14803113494E+02  0.28697156275E+02  0.00000000000E+00 0.  1.
        -13    1    3    3    0    0 -0.48053316630E+03 -0.15074633284E+03  0.47643198886E+03  0.69327052497E+03  0.00000000000E+00 0. -1.
          2    1    6    6  502    0  0.10833415095E+03  0.20255552442E+03  0.32445848918E+03  0.39754036265E+03  0.00000000000E+00 0. -1.
          3    1    5    5  503    0  0.25681389388E+03 -0.57845869360E+02 -0.25439943484E+03  0.36608549976E+03  0.00000000000E+00 0. -1.
         -4    1    5    5    0  503  0.10503447498E+03 -0.52091341762E+02 -0.18853746073E+03  0.22201829411E+03  0.00000000000E+00 0.  1.
         -1    1    6    6    0  502  0.32077542914E+02  0.46624255756E+02  0.28665267652E+02  0.63438848931E+02  0.00000000000E+00 0.  1.
<mgrwt>
<rscale>  0 0.17249582E+04</rscale>
<asrwt>0</asrwt>
<pdfrwt beam="1">  1        1 0.16711328E+00 0.17249582E+04</pdfrwt>
<pdfrwt beam="2">  1       -1 0.10535606E+00 0.17249582E+04</pdfrwt>
<totfact> 0.10418036E+01</totfact>
</mgrwt>
</event>
<event>
12    1  0.1549527E-007  0.2181282E+04  0.7818608E-02  0.8526260E-01
         -1   -1    0    0    0  501 -0.00000000000E+00  0.00000000000E+00  0.84860573222E+03  0.84860573222E+03  0.00000000000E+00 0.  1.
          1   -1    0    0  501    0  0.00000000000E+00 -0.00000000000E+00 -0.14017085339E+04  0.14017085339E+04  0.00000000000E+00 0. -1.
         23    2    1    2    0    0  0.36499284976E+03 -0.80080788163E+03 -0.42869494611E+03  0.98305089322E+03  0.89981432432E+02 0.  0.
        254    2    1    2    0    0 -0.36499284976E+03  0.80080788163E+03 -0.12440785553E+03  0.12672633729E+04  0.90330841799E+03 0.  0.
        -24    2    4    4    0    0 -0.34384613229E+03  0.66277080608E+02 -0.34265000402E+03  0.49622197897E+03  0.78768096697E+02 0.  0.
         24    2    4    4    0    0 -0.21146717478E+02  0.73453080103E+03  0.21824214849E+03  0.77104139389E+03  0.83021168386E+02 0.  0.
         11    1    3    3    0    0  0.29547809902E+03 -0.68849342825E+03 -0.39391123165E+03  0.84646120181E+03  0.00000000000E+00 0. -1.
        -11    1    3    3    0    0  0.69514750743E+02 -0.11231445338E+03 -0.34783714461E+02  0.13658969142E+03  0.00000000000E+00 0.  1.
          4    1    6    6  502    0 -0.14525868638E+02  0.30186090450E+03  0.13214704888E+03  0.32983912602E+03  0.00000000000E+00 0. -1.
          1    1    5    5  503    0 -0.30275234739E+03  0.47359914102E+02 -0.25944653968E+03  0.40151519556E+03  0.00000000000E+00 0. -1.
         -2    1    5    5    0  503 -0.41093784893E+02  0.18917166507E+02 -0.83203464339E+02  0.94706783408E+02  0.00000000000E+00 0.  1.
         -3    1    6    6    0  502 -0.66208488404E+01  0.43266989653E+03  0.86095099614E+02  0.44120226787E+03  0.00000000000E+00 0.  1.
<mgrwt>
<rscale>  0 0.21812821E+04</rscale>
<asrwt>0</asrwt>
<pdfrwt beam="1">  1        1 0.21564746E+00 0.21812821E+04</pdfrwt>
<pdfrwt beam="2">  1       -1 0.13055473E+00 0.21812821E+04</pdfrwt>
<totfact> 0.35104231E+00</totfact>
</mgrwt>
</event>
<event>
12    1  0.1549527E-007  0.1925109E+04  0.7818608E-02  0.8642458E-01
          1   -1    0    0  501    0  0.00000000000E+00  0.00000000000E+00  0.86856940339E+03  0.86856940339E+03  0.00000000000E+00 0. -1.
         -1   -1    0    0    0  501 -0.00000000000E+00 -0.00000000000E+00 -0.10667090543E+04  0.10667090543E+04  0.00000000000E+00 0.  1.
         23    2    1    2    0    0 -0.14858274497E+03 -0.18462657697E+03 -0.79243646732E+03  0.83209985568E+03  0.90943994069E+02 0.  0.
        254    2    1    2    0    0  0.14858274497E+03  0.18462657697E+03  0.59429681641E+03  0.11031786020E+04  0.89869378374E+03 0.  0.
        -24    2    4    4    0    0 -0.15347098419E+03 -0.28229513311E+03  0.78263484825E+02  0.34031606111E+03  0.80286756243E+02 0.  0.
         24    2    4    4    0    0  0.30205372916E+03  0.46692171009E+03  0.51603333158E+03  0.76286254090E+03  0.80103173258E+02 0.  0.
         11    1    3    3    0    0 -0.16776049786E+02 -0.81329233104E+02 -0.20276844300E+03  0.21911394634E+03  0.00000000000E+00 0. -1.
        -11    1    3    3    0    0 -0.13180669518E+03 -0.10329734387E+03 -0.58966802432E+03  0.61298590934E+03  0.00000000000E+00 0.  1.
          4    1    6    6  502    0  0.30423498877E+03  0.46191522399E+03  0.49885183369E+03  0.74483404496E+03  0.00000000000E+00 0. -1.
          1    1    5    5  503    0 -0.55968920469E+02 -0.18273189773E+03  0.56383263977E+02  0.19925495969E+03  0.00000000000E+00 0. -1.
         -2    1    5    5    0  503 -0.97502063716E+02 -0.99563235388E+02  0.21880220847E+02  0.14106110142E+03  0.00000000000E+00 0.  1.
         -3    1    6    6    0  502 -0.21812596101E+01  0.50064860925E+01  0.17181497889E+02  0.18028495949E+02  0.00000000000E+00 0.  1.
<mgrwt>
<rscale>  0 0.19251087E+04</rscale>
<asrwt>0</asrwt>
<pdfrwt beam="1">  1        1 0.13362606E+00 0.19251087E+04</pdfrwt>
<pdfrwt beam="2">  1       -1 0.16410908E+00 0.19251087E+04</pdfrwt>
<totfact> 0.49088546E+00</totfact>
</mgrwt>
</event>
<event>
12    1  0.1549527E-007  0.1386247E+04  0.7818608E-02  0.8963834E-01
         -2   -1    0    0    0  501 -0.00000000000E+00  0.00000000000E+00  0.29602615910E+03  0.29602615910E+03  0.00000000000E+00 0. -1.
          2   -1    0    0  501    0  0.00000000000E+00 -0.00000000000E+00 -0.16228973084E+04  0.16228973084E+04  0.00000000000E+00 0.  1.
         23    2    1    2    0    0 -0.15305740968E+03  0.22432183807E+02 -0.87789548824E+03  0.89689197240E+03  0.98918897896E+02 0.  0.
        254    2    1    2    0    0  0.15305740968E+03 -0.22432183807E+02 -0.44897566109E+03  0.10220314951E+04  0.90500798850E+03 0.  0.
        -24    2    4    4    0    0 -0.25496817655E+03 -0.23669123392E+03  0.22514310715E+02  0.35787798628E+03  0.80859431137E+02 0.  0.
         24    2    4    4    0    0  0.40802558623E+03  0.21425905012E+03 -0.47148997181E+03  0.66415350885E+03  0.80032932126E+02 0.  0.
         13    1    3    3    0    0 -0.17447988378E+01 -0.20154405859E+01 -0.26859989404E+03  0.26861312217E+03  0.00000000000E+00 0.  1.
        -13    1    3    3    0    0 -0.15131261084E+03  0.24447624393E+02 -0.60929559419E+03  0.62827885023E+03  0.00000000000E+00 0. -1.
          4    1    6    6  502    0  0.34818530711E+03  0.21246443113E+03 -0.41145668157E+03  0.57937098943E+03  0.00000000000E+00 0. -1.
          1    1    5    5  503    0 -0.17017780443E+03 -0.13134991870E+03 -0.20568016390E+02  0.21595446178E+03  0.00000000000E+00 0. -1.
         -2    1    5    5    0  503 -0.84790372119E+02 -0.10534131522E+03  0.43082327105E+02  0.14192352450E+03  0.00000000000E+00 0.  1.
         -1    1    6    6    0  502  0.59840279128E+02  0.17946189905E+01 -0.60033290234E+02  0.84782519423E+02  0.00000000000E+00 0.  1.
<mgrwt>
<rscale>  0 0.13862468E+04</rscale>
<asrwt>0</asrwt>
<pdfrwt beam="1">  1        2 0.24967651E+00 0.13862468E+04</pdfrwt>
<pdfrwt beam="2">  1       -2 0.45542486E-01 0.13862468E+04</pdfrwt>
<totfact> 0.48220600E+01</totfact>
</mgrwt>
</event>
<event>
12    1  0.1549527E-007  0.1114716E+04  0.7818608E-02  0.9190966E-01
          2   -1    0    0  501    0  0.00000000000E+00  0.00000000000E+00  0.15059714067E+04  0.15059714067E+04  0.00000000000E+00 0. -1.
         -2   -1    0    0    0  501 -0.00000000000E+00 -0.00000000000E+00 -0.20627744065E+03  0.20627744065E+03  0.00000000000E+00 0.  1.
         23    2    1    2    0    0  0.55326384108E+02 -0.64234661136E+02  0.46261558218E+03  0.47931769250E+03  0.92440104911E+02 0.  0.
        254    2    1    2    0    0 -0.55326384108E+02  0.64234661136E+02  0.83707838385E+03  0.12329311548E+04  0.90123909777E+03 0.  0.
        -24    2    4    4    0    0 -0.23507042229E+01 -0.44842851356E+02  0.10062555807E+04  0.10104019750E+04  0.79658334750E+02 0.  0.
         24    2    4    4    0    0 -0.52975679885E+02  0.10907751249E+03 -0.16917719687E+03  0.22252917979E+03  0.78701877529E+02 0.  0.
         11    1    3    3    0    0  0.49415715363E+02 -0.49883582091E+02  0.45767469918E+03  0.46302960484E+03  0.00000000000E+00 0. -1.
        -11    1    3    3    0    0  0.59106687448E+01 -0.14351079045E+02  0.49408829989E+01  0.16288087659E+02  0.00000000000E+00 0.  1.
          4    1    6    6  502    0 -0.26013512008E+02  0.41405483940E+02 -0.13195672979E+03  0.14072560337E+03  0.00000000000E+00 0. -1.
          1    1    5    5  503    0  0.13879633981E+01  0.52902421778E+01  0.70198473655E+03  0.70200604232E+03  0.00000000000E+00 0. -1.
         -2    1    5    5    0  503 -0.37386676210E+01 -0.50133093534E+02  0.30427084417E+03  0.30839593272E+03  0.00000000000E+00 0.  1.
         -3    1    6    6    0  502 -0.26962167877E+02  0.67672028552E+02 -0.37220467076E+02  0.81803576415E+02  0.00000000000E+00 0.  1.
<mgrwt>
<rscale>  0 0.11147160E+04</rscale>
<asrwt>0</asrwt>
<pdfrwt beam="1">  1        2 0.23168790E+00 0.11147160E+04</pdfrwt>
<pdfrwt beam="2">  1       -2 0.31734992E-01 0.11147160E+04</pdfrwt>
<totfact> 0.11521402E+02</totfact>
</mgrwt>
</event>
<event>
12    1  0.1549527E-007  0.2547173E+04  0.7818608E-02  0.8386370E-01
          2   -1    0    0  501    0  0.00000000000E+00  0.00000000000E+00  0.27904840004E+04  0.27904840004E+04  0.00000000000E+00 0. -1.
         -2   -1    0    0    0  501 -0.00000000000E+00 -0.00000000000E+00 -0.58126903754E+03  0.58126903754E+03  0.00000000000E+00 0.  1.
         23    2    1    2    0    0  0.51027454719E+03  0.40806460469E+03 -0.22211813747E+03  0.69594883611E+03  0.90063757277E+02 0.  0.
        254    2    1    2    0    0 -0.51027454719E+03 -0.40806460469E+03  0.24313331003E+04  0.26758042018E+04  0.90644947272E+03 0.  0.
        -24    2    4    4    0    0  0.11529201021E+03 -0.44544011133E+03  0.12799592645E+04  0.13624818013E+04  0.79698178950E+02 0.  0.
         24    2    4    4    0    0 -0.62556655740E+03  0.37375506634E+02  0.11513738358E+04  0.13133224005E+04  0.80147187188E+02 0.  0.
         13    1    3    3    0    0  0.94447278442E+02  0.11112187805E+03 -0.23407829619E+02  0.14770337394E+03  0.00000000000E+00 0. -1.
        -13    1    3    3    0    0  0.41582726875E+03  0.29694272664E+03 -0.19871030785E+03  0.54824546217E+03  0.00000000000E+00 0.  1.
          4    1    6    6  502    0 -0.24850587043E+02 -0.10230293238E+02  0.29884619705E+02  0.40190808291E+02  0.00000000000E+00 0. -1.
          1    1    5    5  503    0  0.28269209469E+02 -0.46502960041E+02  0.99669391260E+02  0.11355906415E+03  0.00000000000E+00 0. -1.
         -2    1    5    5    0  503  0.87022800738E+02 -0.39893715128E+03  0.11802898732E+04  0.12489227371E+04  0.00000000000E+00 0.  1.
         -3    1    6    6    0  502 -0.60071597036E+03  0.47605799872E+02  0.11214892161E+04  0.12731315922E+04  0.00000000000E+00 0.  1.
<mgrwt>
<rscale>  0 0.25471725E+04</rscale>
<asrwt>0</asrwt>
<pdfrwt beam="1">  1        2 0.42930522E+00 0.25471725E+04</pdfrwt>
<pdfrwt beam="2">  1       -2 0.89426007E-01 0.25471725E+04</pdfrwt>
<totfact> 0.22325280E+00</totfact>
</mgrwt>
</event>
<event>
12    1  0.1549527E-007  0.1700021E+04  0.7818608E-02  0.8761352E-01
         -1   -1    0    0    0  501 -0.00000000000E+00  0.00000000000E+00  0.68483566283E+03  0.68483566283E+03  0.00000000000E+00 0.  1.
          1   -1    0    0  501    0  0.00000000000E+00 -0.00000000000E+00 -0.10550238760E+04  0.10550238760E+04  0.00000000000E+00 0. -1.
         23    2    1    2    0    0 -0.45728442079E+03 -0.35733933086E+03  0.25351818524E+02  0.58785458565E+03  0.90165737900E+02 0.  0.
        254    2    1    2    0    0  0.45728442079E+03  0.35733933086E+03 -0.39554003174E+03  0.11520049532E+04  0.91316102449E+03 0.  0.
        -24    2    4    4    0    0  0.23405604822E+03  0.15393409905E+03  0.28229739018E+03  0.40577464164E+03  0.80518958892E+02 0.  0.
         24    2    4    4    0    0  0.22322837257E+03  0.20340523181E+03 -0.67783742192E+03  0.74623031158E+03  0.78686165964E+02 0.  0.
         11    1    3    3    0    0 -0.28636628155E+03 -0.23515682095E+03  0.58568103004E+02  0.37514610532E+03  0.00000000000E+00 0.  1.
        -11    1    3    3    0    0 -0.17091813925E+03 -0.12218250991E+03 -0.33216284480E+02  0.21270848033E+03  0.00000000000E+00 0. -1.
          4    1    6    6  502    0  0.47376526916E+02  0.89048610634E+01 -0.79722040034E+02  0.93163488129E+02  0.00000000000E+00 0. -1.
          1    1    5    5  503    0  0.62300524086E+02  0.45544344015E+01  0.77839523356E+02  0.99805258231E+02  0.00000000000E+00 0. -1.
         -2    1    5    5    0  503  0.17175552413E+03  0.14937966465E+03  0.20445786682E+03  0.30596938341E+03  0.00000000000E+00 0.  1.
         -3    1    6    6    0  502  0.17585184565E+03  0.19450037075E+03 -0.59811538189E+03  0.65306682345E+03  0.00000000000E+00 0.  1.
<mgrwt>
<rscale>  0 0.17000211E+04</rscale>
<asrwt>0</asrwt>
<pdfrwt beam="1">  1        1 0.16231137E+00 0.17000211E+04</pdfrwt>
<pdfrwt beam="2">  1       -1 0.10535933E+00 0.17000211E+04</pdfrwt>
<totfact> 0.11026823E+01</totfact>
</mgrwt>
</event>
<event>
12    1  0.1549527E-007  0.2769251E+04  0.7818608E-02  0.8312879E-01
          2   -1    0    0  501    0  0.00000000000E+00  0.00000000000E+00  0.12179091167E+04  0.12179091167E+04  0.00000000000E+00 0. -1.
         -2   -1    0    0    0  501 -0.00000000000E+00 -0.00000000000E+00 -0.15741627180E+04  0.15741627180E+04  0.00000000000E+00 0.  1.
         23    2    1    2    0    0  0.11614694812E+04  0.37329909580E+03 -0.33794402903E+03  0.12691659847E+04  0.90623172252E+02 0.  0.
        254    2    1    2    0    0 -0.11614694812E+04 -0.37329909580E+03 -0.18309572304E+02  0.15229058500E+04  0.91134154778E+03 0.  0.
        -24    2    4    4    0    0  0.32721773703E+02 -0.30082590020E+03 -0.74890061042E+02  0.32207568029E+03  0.80977070112E+02 0.  0.
         24    2    4    4    0    0 -0.11941912549E+04 -0.72473195599E+02  0.56580488738E+02  0.12008301697E+04  0.86293842844E+02 0.  0.
         13    1    3    3    0    0  0.27779485021E+03  0.80841438983E+02 -0.11974713187E+03  0.31312089143E+03  0.00000000000E+00 0.  1.
        -13    1    3    3    0    0  0.88367463098E+03  0.29245765682E+03 -0.21819689717E+03  0.95604509329E+03  0.00000000000E+00 0. -1.
          2    1    6    6  502    0 -0.63260600363E+03 -0.80725808374E+02  0.38371784237E+02  0.63888919680E+03  0.00000000000E+00 0. -1.
          3    1    5    5  503    0  0.57044525550E+02 -0.16098799136E+03 -0.31701356035E+02  0.17371294492E+03  0.00000000000E+00 0. -1.
         -4    1    5    5    0  503 -0.24322751848E+02 -0.13983790884E+03 -0.43188705007E+02  0.14836273537E+03  0.00000000000E+00 0.  1.
         -1    1    6    6    0  502 -0.56158525127E+03  0.82526127755E+01  0.18208704501E+02  0.56194097286E+03  0.00000000000E+00 0.  1.
<mgrwt>
<rscale>  0 0.27692505E+04</rscale>
<asrwt>0</asrwt>
<pdfrwt beam="1">  1        2 0.18737063E+00 0.27692505E+04</pdfrwt>
<pdfrwt beam="2">  1       -2 0.24217888E+00 0.27692505E+04</pdfrwt>
<totfact> 0.11576481E+00</totfact>
</mgrwt>
</event>
<event>
12    1  0.1549527E-007  0.1382034E+04  0.7818608E-02  0.8966927E-01
          1   -1    0    0  501    0  0.00000000000E+00  0.00000000000E+00  0.12367808482E+04  0.12367808482E+04  0.00000000000E+00 0. -1.
         -1   -1    0    0    0  501 -0.00000000000E+00 -0.00000000000E+00 -0.38608651178E+03  0.38608651178E+03  0.00000000000E+00 0.  1.
         23    2    1    2    0    0  0.68192763721E+02 -0.37286793766E+03  0.14211923920E+03  0.41537895909E+03  0.93064759924E+02 0.  0.
        254    2    1    2    0    0 -0.68192763721E+02  0.37286793766E+03  0.70857509722E+03  0.12074884009E+04  0.90125957301E+03 0.  0.
        -24    2    4    4    0    0 -0.58075748468E+02 -0.27697536891E+03  0.91449189484E+02  0.30787551593E+03  0.79600449189E+02 0.  0.
         24    2    4    4    0    0 -0.10117015253E+02  0.64984330657E+03  0.61712590773E+03  0.89961288496E+03  0.77847798282E+02 0.  0.
         13    1    3    3    0    0 -0.85907872318E+01 -0.11845104049E+03  0.77731745197E+02  0.14193898277E+03  0.00000000000E+00 0. -1.
        -13    1    3    3    0    0  0.76783550953E+02 -0.25441689717E+03  0.64387494006E+02  0.27343997632E+03  0.00000000000E+00 0.  1.
          4    1    6    6  502    0 -0.24231450716E+02  0.10692730067E+03  0.12998487770E+03  0.17004904958E+03  0.00000000000E+00 0. -1.
          3    1    5    5  503    0 -0.22638936495E+02 -0.24149408156E+03  0.64668457729E+02  0.25102574031E+03  0.00000000000E+00 0. -1.
         -4    1    5    5    0  503 -0.35436811973E+02 -0.35481287349E+02  0.26780731756E+02  0.56849775620E+02  0.00000000000E+00 0.  1.
         -3    1    6    6    0  502  0.14114435462E+02  0.54291600590E+03  0.48714103003E+03  0.72956383538E+03  0.00000000000E+00 0.  1.
<mgrwt>
<rscale>  0 0.13820339E+04</rscale>
<asrwt>0</asrwt>
<pdfrwt beam="1">  1        1 0.19027398E+00 0.13820339E+04</pdfrwt>
<pdfrwt beam="2">  1       -1 0.59397925E-01 0.13820339E+04</pdfrwt>
<totfact> 0.28183300E+01</totfact>
</mgrwt>
</event>
<event>
12    1  0.1549527E-007  0.3966799E+04  0.7818608E-02  0.8011278E-01
         -2   -1    0    0    0  501 -0.00000000000E+00  0.00000000000E+00  0.13822320350E+04  0.13822320350E+04  0.00000000000E+00 0.  1.
          2   -1    0    0  501    0  0.00000000000E+00 -0.00000000000E+00 -0.28460293266E+04  0.28460293266E+04  0.00000000000E+00 0. -1.
         23    2    1    2    0    0  0.13954182088E+04 -0.66275405601E+03  0.43951377331E+03  0.16084521140E+04  0.86665621501E+02 0.  0.
        254    2    1    2    0    0 -0.13954182088E+04  0.66275405601E+03 -0.19033110649E+04  0.26198092476E+04  0.92432276160E+03 0.  0.
        -24    2    4    4    0    0 -0.10115032839E+04  0.26810488127E+03 -0.17534972065E+04  0.20435610492E+04  0.79813456856E+02 0.  0.
         24    2    4    4    0    0 -0.38391492495E+03  0.39464917474E+03 -0.14981385837E+03  0.57624819836E+03  0.80493187509E+02 0.  0.
         11    1    3    3    0    0  0.12470850506E+03 -0.46624763667E+02  0.60703779129E+02  0.14632507858E+03  0.00000000000E+00 0. -1.
        -11    1    3    3    0    0  0.12707097037E+04 -0.61612929234E+03  0.37880999419E+03  0.14621270354E+04  0.00000000000E+00 0.  1.
          4    1    6    6  502    0 -0.15683138894E+03  0.19118924776E+03 -0.31854739094E+02  0.24932736998E+03  0.00000000000E+00 0. -1.
          1    1    5    5  503    0 -0.31801232573E+03  0.10606506581E+03 -0.50264905183E+03  0.60418350426E+03  0.00000000000E+00 0. -1.
         -2    1    5    5    0  503 -0.69349095812E+03  0.16203981546E+03 -0.12508481547E+04  0.14393775449E+04  0.00000000000E+00 0.  1.
         -3    1    6    6    0  502 -0.22708353601E+03  0.20345992697E+03 -0.11795911928E+03  0.32692082838E+03  0.00000000000E+00 0.  1.
<mgrwt>
<rscale>  0 0.39667987E+04</rscale>
<asrwt>0</asrwt>
<pdfrwt beam="1">  1        2 0.43785066E+00 0.39667987E+04</pdfrwt>
<pdfrwt beam="2">  1       -2 0.21265109E+00 0.39667987E+04</pdfrwt>
<totfact> 0.18875221E-01</totfact>
</mgrwt>
</event>
<event>
12    1  0.1549527E-007  0.1101300E+04  0.7818608E-02  0.9203926E-01
          2   -1    0    0  501    0  0.00000000000E+00  0.00000000000E+00  0.18667633060E+04  0.18667633060E+04  0.00000000000E+00 0. -1.
         -2   -1    0    0    0  501 -0.00000000000E+00 -0.00000000000E+00 -0.16242844796E+03  0.16242844796E+03  0.00000000000E+00 0.  1.
         23    2    1    2    0    0  0.73710609323E+02 -0.23410624148E+02  0.59777456482E+02  0.13495245305E+03  0.93045736233E+02 0.  0.
        254    2    1    2    0    0 -0.73710609323E+02  0.23410624148E+02  0.16445574016E+04  0.18942393009E+04  0.93679889562E+03 0.  0.
        -24    2    4    4    0    0  0.10598391278E+03  0.41254746479E+03  0.46184757552E+03  0.63358086814E+03  0.81814014606E+02 0.  0.
         24    2    4    4    0    0 -0.17969452211E+03 -0.38913684064E+03  0.11827098260E+04  0.12606584328E+04  0.82094759180E+02 0.  0.
         13    1    3    3    0    0  0.23080278250E+02 -0.55417686791E+02  0.21007993539E+02  0.63601533361E+02  0.00000000000E+00 0. -1.
        -13    1    3    3    0    0  0.50630331073E+02  0.32007062643E+02  0.38769462943E+02  0.71350919689E+02  0.00000000000E+00 0.  1.
          4    1    6    6  502    0 -0.57325327002E+02 -0.21370084155E+03  0.55342729099E+03  0.59601678601E+03  0.00000000000E+00 0. -1.
          1    1    5    5  503    0  0.28829570593E+02  0.25989218070E+03  0.25592736464E+03  0.36588783213E+03  0.00000000000E+00 0. -1.
         -2    1    5    5    0  503  0.77154342190E+02  0.15265528409E+03  0.20592021088E+03  0.26769303601E+03  0.00000000000E+00 0.  1.
         -3    1    6    6    0  502 -0.12236919510E+03 -0.17543599909E+03  0.62928253504E+03  0.66464164675E+03  0.00000000000E+00 0.  1.
<mgrwt>
<rscale>  0 0.11013001E+04</rscale>
<asrwt>0</asrwt>
<pdfrwt beam="1">  1        2 0.28719434E+00 0.11013001E+04</pdfrwt>
<pdfrwt beam="2">  1       -2 0.24988993E-01 0.11013001E+04</pdfrwt>
<totfact> 0.11305104E+02</totfact>
</mgrwt>
</event>
<event>
12    1  0.1549527E-007  0.2791977E+04  0.7818608E-02  0.8305764E-01
          1   -1    0    0  501    0  0.00000000000E+00  0.00000000000E+00  0.11645521491E+04  0.11645521491E+04  0.00000000000E+00 0. -1.
         -1   -1    0    0    0  501 -0.00000000000E+00 -0.00000000000E+00 -0.16734190599E+04  0.16734190599E+04  0.00000000000E+00 0.  1.
         23    2    1    2    0    0 -0.34279555110E+03 -0.10154591445E+04  0.42703718751E+03  0.11574918170E+04  0.93597451985E+02 0.  0.
        254    2    1    2    0    0  0.34279555110E+03  0.10154591445E+04 -0.93590409828E+03  0.16804793920E+04  0.89410762320E+03 0.  0.
        -24    2    4    4    0    0  0.56263141846E+03  0.10020873309E+04 -0.85181751367E+03  0.14326458745E+04  0.78409141924E+02 0.  0.
         24    2    4    4    0    0 -0.21983586736E+03  0.13371813631E+02 -0.84086584607E+02  0.24783351748E+03  0.76447921496E+02 0.  0.
         13    1    3    3    0    0 -0.24394727379E+03 -0.74843284264E+03  0.35650229515E+03  0.86415037972E+03  0.00000000000E+00 0. -1.
        -13    1    3    3    0    0 -0.98848277315E+02 -0.26702630185E+03  0.70534892367E+02  0.29334143732E+03  0.00000000000E+00 0.  1.
          4    1    6    6  502    0 -0.17460656688E+03 -0.10048981460E+01 -0.95502506598E+02  0.19902058131E+03  0.00000000000E+00 0. -1.
          1    1    5    5  503    0  0.28394685748E+03  0.47700779585E+03 -0.36591180337E+03  0.66487119280E+03  0.00000000000E+00 0. -1.
         -2    1    5    5    0  503  0.27868456098E+03  0.52507953500E+03 -0.48590571031E+03  0.76777468173E+03  0.00000000000E+00 0.  1.
         -3    1    6    6    0  502 -0.45229300476E+02  0.14376711777E+02  0.11415921991E+02  0.48812936175E+02  0.00000000000E+00 0.  1.
<mgrwt>
<rscale>  0 0.27919769E+04</rscale>
<asrwt>0</asrwt>
<pdfrwt beam="1">  1        1 0.17916187E+00 0.27919769E+04</pdfrwt>
<pdfrwt beam="2">  1       -1 0.25744909E+00 0.27919769E+04</pdfrwt>
<totfact> 0.61277368E-01</totfact>
</mgrwt>
</event>
<event>
12    1  0.1549527E-007  0.1419951E+04  0.7818608E-02  0.8939503E-01
         -1   -1    0    0    0  501 -0.00000000000E+00  0.00000000000E+00  0.28766419677E+03  0.28766419677E+03  0.00000000000E+00 0.  1.
          1   -1    0    0  501    0  0.00000000000E+00 -0.00000000000E+00 -0.17522686570E+04  0.17522686570E+04  0.00000000000E+00 0. -1.
         23    2    1    2    0    0  0.10678459534E+02 -0.21215604441E+03  0.92871869162E+02  0.24893614260E+03  0.90663125540E+02 0.  0.
        254    2    1    2    0    0 -0.10678459534E+02  0.21215604441E+03 -0.15574763294E+04  0.17909967112E+04  0.85837782250E+03 0.  0.
        -24    2    4    4    0    0  0.12348362622E+03  0.51668910025E+03 -0.10311626104E+04  0.11630767726E+04  0.85061257193E+02 0.  0.
         24    2    4    4    0    0 -0.13416208575E+03 -0.30453305585E+03 -0.52631371896E+03  0.62791993861E+03  0.80854629923E+02 0.  0.
         13    1    3    3    0    0 -0.70740310895E+01 -0.55488579324E+02 -0.14978692656E+02  0.57908424128E+02  0.00000000000E+00 0. -1.
        -13    1    3    3    0    0  0.17752490624E+02 -0.15666746508E+03  0.10785056182E+03  0.19102771847E+03  0.00000000000E+00 0.  1.
          2    1    6    6  502    0 -0.95287114464E+02 -0.17981002733E+03 -0.25057592718E+03  0.32279959014E+03  0.00000000000E+00 0. -1.
          1    1    5    5  503    0  0.11988516199E+02  0.50958443960E+01 -0.40655929202E+02  0.42691881313E+02  0.00000000000E+00 0. -1.
         -2    1    5    5    0  503  0.11149511002E+03  0.51159325586E+03 -0.99050668123E+03  0.11203848913E+04  0.00000000000E+00 0.  1.
         -1    1    6    6    0  502 -0.38874971287E+02 -0.12472302852E+03 -0.27573779178E+03  0.30512034847E+03  0.00000000000E+00 0.  1.
<mgrwt>
<rscale>  0 0.14199506E+04</rscale>
<asrwt>0</asrwt>
<pdfrwt beam="1">  1        1 0.26957979E+00 0.14199506E+04</pdfrwt>
<pdfrwt beam="2">  1       -1 0.44256030E-01 0.14199506E+04</pdfrwt>
<totfact> 0.21599531E+01</totfact>
</mgrwt>
</event>
<event>
12    1  0.1549527E-007  0.1996817E+04  0.7818608E-02  0.8608110E-01
         -1   -1    0    0    0  501 -0.00000000000E+00  0.00000000000E+00  0.98893374663E+03  0.98893374663E+03  0.00000000000E+00 0.  1.
          1   -1    0    0  501    0  0.00000000000E+00 -0.00000000000E+00 -0.10079739459E+04  0.10079739459E+04  0.00000000000E+00 0. -1.
         23    2    1    2    0    0  0.37572156951E+03  0.69253947039E+03  0.91429808087E+02  0.79836520853E+03  0.90829403551E+02 0.  0.
        254    2    1    2    0    0 -0.37572156951E+03 -0.69253947039E+03 -0.11047000732E+03  0.11985424840E+04  0.89639435938E+03 0.  0.
        -24    2    4    4    0    0  0.48509691054E+02 -0.30620840034E+03  0.33826145505E+03  0.46575212718E+03  0.79921570570E+02 0.  0.
         24    2    4    4    0    0 -0.42423126056E+03 -0.38633107005E+03 -0.44873146237E+03  0.73279035679E+03  0.79987021146E+02 0.  0.
         13    1    3    3    0    0  0.15943884310E+03  0.29334265008E+03 -0.63520785019E+01  0.33393263384E+03  0.00000000000E+00 0. -1.
        -13    1    3    3    0    0  0.21628272641E+03  0.39919682031E+03  0.97781886589E+02  0.46443257469E+03  0.00000000000E+00 0.  1.
          2    1    6    6  502    0 -0.37146006025E+03 -0.35863491895E+03 -0.37584564293E+03  0.63864037513E+03  0.00000000000E+00 0. -1.
          1    1    5    5  503    0  0.44836313784E+02 -0.24405466788E+03  0.31079300283E+03  0.39769997052E+03  0.00000000000E+00 0. -1.
         -2    1    5    5    0  503  0.36733772700E+01 -0.62153732456E+02  0.27468452221E+02  0.68052156661E+02  0.00000000000E+00 0.  1.
         -1    1    6    6    0  502 -0.52771200318E+02 -0.27696151105E+02 -0.72885819444E+02  0.94149981652E+02  0.00000000000E+00 0.  1.
<mgrwt>
<rscale>  0 0.19968169E+04</rscale>
<asrwt>0</asrwt>
<pdfrwt beam="1">  1        1 0.15507292E+00 0.19968169E+04</pdfrwt>
<pdfrwt beam="2">  1       -1 0.15214365E+00 0.19968169E+04</pdfrwt>
<totfact> 0.46470873E+00</totfact>
</mgrwt>
</event>
<event>
12    1  0.1549527E-007  0.1400602E+04  0.7818608E-02  0.8953383E-01
         -2   -1    0    0    0  501 -0.00000000000E+00  0.00000000000E+00  0.52910331755E+03  0.52910331755E+03  0.00000000000E+00 0.  1.
          2   -1    0    0  501    0  0.00000000000E+00 -0.00000000000E+00 -0.92689127217E+03  0.92689127217E+03  0.00000000000E+00 0. -1.
         23    2    1    2    0    0 -0.39064591556E+03  0.62108335684E+02 -0.34017101304E+02  0.40797894995E+03  0.93957350545E+02 0.  0.
        254    2    1    2    0    0  0.39064591556E+03 -0.62108335684E+02 -0.36377085332E+03  0.10480156398E+04  0.89974767061E+03 0.  0.
        -24    2    4    4    0    0 -0.44247697335E+02 -0.30860794587E+03 -0.43061789045E+03  0.53760794951E+03  0.79961345840E+02 0.  0.
         24    2    4    4    0    0  0.43489361289E+03  0.24649961019E+03  0.66847037125E+02  0.51040769026E+03  0.78440879291E+02 0.  0.
         11    1    3    3    0    0 -0.12048061750E+02  0.22743008513E+02  0.81182354494E+00  0.25749937584E+02  0.00000000000E+00 0. -1.
        -11    1    3    3    0    0 -0.37859785381E+03  0.39365327172E+02 -0.34828924849E+02  0.38222901237E+03  0.00000000000E+00 0.  1.
          4    1    6    6  502    0  0.36999876641E+03  0.21027372817E+03  0.27871858380E+02  0.42648677400E+03  0.00000000000E+00 0. -1.
          3    1    5    5  503    0 -0.13700145978E+02 -0.65671391141E+01 -0.40707118944E+02  0.43449865923E+02  0.00000000000E+00 0. -1.
         -4    1    5    5    0  503 -0.30547551358E+02 -0.30204080676E+03 -0.38991077150E+03  0.49415808359E+03  0.00000000000E+00 0.  1.
         -3    1    6    6    0  502  0.64894846478E+02  0.36225882016E+02  0.38975178745E+02  0.83920916257E+02  0.00000000000E+00 0.  1.
<mgrwt>
<rscale>  0 0.14006017E+04</rscale>
<asrwt>0</asrwt>
<pdfrwt beam="1">  1        2 0.14259866E+00 0.14006017E+04</pdfrwt>
<pdfrwt beam="2">  1       -2 0.81400510E-01 0.14006017E+04</pdfrwt>
<totfact> 0.36397105E+01</totfact>
</mgrwt>
</event>
<event>
12    1  0.1549527E-007  0.1449992E+04  0.7818608E-02  0.8918406E-01
          2   -1    0    0  501    0  0.00000000000E+00  0.00000000000E+00  0.37159507707E+04  0.37159507707E+04  0.00000000000E+00 0. -1.
         -2   -1    0    0    0  501 -0.00000000000E+00 -0.00000000000E+00 -0.14144939173E+03  0.14144939173E+03  0.00000000000E+00 0.  1.
         23    2    1    2    0    0 -0.17040994829E+03 -0.30766891846E+03  0.39577067264E+03  0.53686021141E+03  0.88796100199E+02 0.  0.
        254    2    1    2    0    0  0.17040994829E+03  0.30766891846E+03  0.31787307064E+04  0.33205399510E+04  0.89328436073E+03 0.  0.
        -24    2    4    4    0    0 -0.32313311716E+02  0.22054268826E+03  0.30371480724E+04  0.30463754594E+04  0.80323085571E+02 0.  0.
         24    2    4    4    0    0  0.20272326001E+03  0.87126230197E+02  0.14158263393E+03  0.27416449169E+03  0.80204900951E+02 0.  0.
         11    1    3    3    0    0 -0.88109057248E+02 -0.10418519791E+03  0.20379204720E+03  0.24525284898E+03  0.00000000000E+00 0. -1.
        -11    1    3    3    0    0 -0.82300891044E+02 -0.20348372055E+03  0.19197862544E+03  0.29160736243E+03  0.00000000000E+00 0.  1.
          4    1    6    6  502    0  0.99411973571E+02  0.18975326346E+01  0.75331197001E+02  0.12474425983E+03  0.00000000000E+00 0. -1.
          3    1    5    5  503    0 -0.29784507500E+02  0.22754346414E+03  0.29425610270E+04  0.29514959839E+04  0.00000000000E+00 0. -1.
         -4    1    5    5    0  503 -0.25288042163E+01 -0.70007758729E+01  0.94587045380E+02  0.94879475480E+02  0.00000000000E+00 0.  1.
         -1    1    6    6    0  502  0.10331128644E+03  0.85228697562E+02  0.66251436926E+02  0.14942023186E+03  0.00000000000E+00 0.  1.
<mgrwt>
<rscale>  0 0.14499917E+04</rscale>
<asrwt>0</asrwt>
<pdfrwt beam="1">  1        2 0.57168466E+00 0.14499917E+04</pdfrwt>
<pdfrwt beam="2">  1       -2 0.21761448E-01 0.14499917E+04</pdfrwt>
<totfact> 0.10343069E+01</totfact>
</mgrwt>
</event>
<event>
12    1  0.1549527E-007  0.1666146E+04  0.7818608E-02  0.8780911E-01
         -1   -1    0    0    0  501 -0.00000000000E+00  0.00000000000E+00  0.89753757991E+03  0.89753757991E+03  0.00000000000E+00 0.  1.
          1   -1    0    0  501    0  0.00000000000E+00 -0.00000000000E+00 -0.77323895418E+03  0.77323895418E+03  0.00000000000E+00 0. -1.
         23    2    1    2    0    0 -0.72526300394E+02 -0.24105348414E+03 -0.48758280525E+03  0.55619419758E+03  0.90819309538E+02 0.  0.
        254    2    1    2    0    0  0.72526300394E+02  0.24105348414E+03  0.61188143098E+03  0.11145823365E+04  0.89695487780E+03 0.  0.
        -24    2    4    4    0    0  0.31702268916E+03 -0.22779203574E+03  0.25350886068E+03  0.47087118448E+03  0.71136017199E+02 0.  0.
         24    2    4    4    0    0 -0.24449638876E+03  0.46884551988E+03  0.35837257030E+03  0.64371115203E+03  0.79614963870E+02 0.  0.
         11    1    3    3    0    0  0.21275641147E+02 -0.31453094890E+02 -0.70276299063E+02  0.79879335841E+02  0.00000000000E+00 0.  1.
        -11    1    3    3    0    0 -0.93801941541E+02 -0.20960038925E+03 -0.41730650619E+03  0.47631486174E+03  0.00000000000E+00 0. -1.
          4    1    6    6  502    0 -0.29937276068E+02  0.91170457075E+02  0.34813309736E+02  0.10207967122E+03  0.00000000000E+00 0. -1.
          3    1    5    5  503    0  0.55281743922E+02 -0.13139903953E+02  0.22805725219E+02  0.61227684831E+02  0.00000000000E+00 0. -1.
         -4    1    5    5    0  503  0.26174094524E+03 -0.21465213179E+03  0.23070313546E+03  0.40964349965E+03  0.00000000000E+00 0.  1.
         -3    1    6    6    0  502 -0.21455911270E+03  0.37767506280E+03  0.32355926056E+03  0.54163148081E+03  0.00000000000E+00 0.  1.
<mgrwt>
<rscale>  0 0.16661465E+04</rscale>
<asrwt>0</asrwt>
<pdfrwt beam="1">  1        1 0.11895984E+00 0.16661465E+04</pdfrwt>
<pdfrwt beam="2">  1       -1 0.13808270E+00 0.16661465E+04</pdfrwt>
<totfact> 0.96816708E+00</totfact>
</mgrwt>
</event>
<event>
12    1  0.1549527E-007  0.2062380E+04  0.7818608E-02  0.8577999E-01
          2   -1    0    0  501    0  0.00000000000E+00  0.00000000000E+00  0.15020641835E+04  0.15020641835E+04  0.00000000000E+00 0. -1.
         -2   -1    0    0    0  501 -0.00000000000E+00 -0.00000000000E+00 -0.70792781074E+03  0.70792781074E+03  0.00000000000E+00 0.  1.
         23    2    1    2    0    0  0.61969529467E+02  0.27262016193E+03 -0.46177127687E+03  0.54676471378E+03  0.86930804764E+02 0.  0.
        254    2    1    2    0    0 -0.61969529467E+02 -0.27262016193E+03  0.12559076496E+04  0.16632272804E+04  0.10539729535E+04 0.  0.
        -24    2    4    4    0    0  0.16065186862E+02  0.29431820494E+03  0.28659860426E+02  0.30672768915E+03  0.79869842296E+02 0.  0.
         24    2    4    4    0    0 -0.78034716329E+02 -0.56693836687E+03  0.12272477892E+04  0.13564995913E+04  0.80283723727E+02 0.  0.
         11    1    3    3    0    0  0.46111751434E+02  0.23319226142E+03 -0.43728459530E+03  0.49771753204E+03  0.00000000000E+00 0.  1.
        -11    1    3    3    0    0  0.15857778033E+02  0.39427900510E+02 -0.24486681570E+02  0.49047181745E+02  0.00000000000E+00 0. -1.
          2    1    6    6  502    0  0.68505574816E+01 -0.45302695738E+01  0.10139754584E+02  0.13048682050E+02  0.00000000000E+00 0. -1.
          3    1    5    5  503    0  0.32879368671E+02  0.15214838091E+03  0.46505471786E+02  0.16245904593E+03  0.00000000000E+00 0. -1.
         -2    1    5    5    0  503 -0.16814181809E+02  0.14216982402E+03 -0.17845611360E+02  0.14426864322E+03  0.00000000000E+00 0.  1.
         -1    1    6    6    0  502 -0.84885273811E+02 -0.56240809730E+03  0.12171080346E+04  0.13434509092E+04  0.00000000000E+00 0.  1.
<mgrwt>
<rscale>  0 0.20623802E+04</rscale>
<asrwt>0</asrwt>
<pdfrwt beam="1">  1        2 0.23108680E+00 0.20623802E+04</pdfrwt>
<pdfrwt beam="2">  1       -2 0.10891197E+00 0.20623802E+04</pdfrwt>
<totfact> 0.78771027E+00</totfact>
</mgrwt>
</event>
<event>
12    1  0.1549527E-007  0.1304474E+04  0.7818608E-02  0.9026025E-01
         -1   -1    0    0    0  501 -0.00000000000E+00  0.00000000000E+00  0.20211657345E+04  0.20211657345E+04  0.00000000000E+00 0.  1.
          1   -1    0    0  501    0  0.00000000000E+00 -0.00000000000E+00 -0.21047915228E+03  0.21047915228E+03  0.00000000000E+00 0. -1.
         23    2    1    2    0    0  0.19242451769E+03  0.93902631697E+02  0.89002688105E+03  0.92020074218E+03  0.93683817545E+02 0.  0.
        254    2    1    2    0    0 -0.19242451769E+03 -0.93902631697E+02  0.92065970118E+03  0.13114441446E+04  0.90908006239E+03 0.  0.
        -24    2    4    4    0    0 -0.19818361987E+03 -0.41341498461E+03  0.85838115559E+03  0.97643697724E+03  0.80139038856E+02 0.  0.
         24    2    4    4    0    0  0.57591021801E+01  0.31951235292E+03  0.62278545586E+02  0.33500716738E+03  0.78929551076E+02 0.  0.
         13    1    3    3    0    0  0.19012474288E+02  0.19229377176E+02  0.33204955741E+02  0.42823033649E+02  0.00000000000E+00 0. -1.
        -13    1    3    3    0    0  0.17341204341E+03  0.74673254521E+02  0.85682192531E+03  0.87737770854E+03  0.00000000000E+00 0.  1.
          4    1    6    6  502    0  0.33312082341E+02  0.14854358282E+03  0.39877458345E+01  0.15228523548E+03  0.00000000000E+00 0. -1.
          3    1    5    5  503    0 -0.94782073103E+02 -0.20828910333E+03  0.51191388310E+03  0.56073506726E+03  0.00000000000E+00 0. -1.
         -4    1    5    5    0  503 -0.10340154677E+03 -0.20512588129E+03  0.34646727249E+03  0.41570190998E+03  0.00000000000E+00 0.  1.
         -3    1    6    6    0  502 -0.27552980161E+02  0.17096877009E+03  0.58290799752E+02  0.18272193190E+03  0.00000000000E+00 0.  1.
<mgrwt>
<rscale>  0 0.13044742E+04</rscale>
<asrwt>0</asrwt>
<pdfrwt beam="1">  1        1 0.32381409E-01 0.13044742E+04</pdfrwt>
<pdfrwt beam="2">  1       -1 0.31094856E+00 0.13044742E+04</pdfrwt>
<totfact> 0.38536317E+00</totfact>
</mgrwt>
</event>
<event>
12    1  0.1549527E-007  0.1343208E+04  0.7818608E-02  0.8995985E-01
         -2   -1    0    0    0  501 -0.00000000000E+00  0.00000000000E+00  0.14438727231E+03  0.14438727231E+03  0.00000000000E+00 0.  1.
          2   -1    0    0  501    0  0.00000000000E+00 -0.00000000000E+00 -0.31239042682E+04  0.31239042682E+04  0.00000000000E+00 0. -1.
         23    2    1    2    0    0  0.32556195948E+02  0.33972115588E+03 -0.49972257283E+03  0.61090992502E+03  0.83773009081E+02 0.  0.
        254    2    1    2    0    0 -0.32556195948E+02 -0.33972115588E+03 -0.24797944231E+04  0.26573816155E+04  0.89209097075E+03 0.  0.
        -24    2    4    4    0    0  0.35447648246E+03 -0.27419178006E+03 -0.18927828927E+04  0.19467441916E+04  0.79694163444E+02 0.  0.
         24    2    4    4    0    0 -0.38703267841E+03 -0.65529375817E+02 -0.58701153035E+03  0.71063742390E+03  0.79590314968E+02 0.  0.
         11    1    3    3    0    0  0.38192396491E+02  0.58070801840E+02 -0.90897772157E+02  0.11442588064E+03  0.00000000000E+00 0. -1.
        -11    1    3    3    0    0 -0.56362005438E+01  0.28165035404E+03 -0.40882480067E+03  0.49648404439E+03  0.00000000000E+00 0.  1.
          2    1    6    6  502    0 -0.16025180927E+03 -0.13920604710E+02 -0.30737971216E+03  0.34692465040E+03  0.00000000000E+00 0. -1.
          3    1    5    5  503    0  0.20087299976E+03 -0.17221105442E+03 -0.95310780724E+03  0.98915170804E+03  0.00000000000E+00 0. -1.
         -4    1    5    5    0  503  0.15360348270E+03 -0.10198072564E+03 -0.93967508548E+03  0.95759248356E+03  0.00000000000E+00 0.  1.
         -1    1    6    6    0  502 -0.22678086915E+03 -0.51608771107E+02 -0.27963181819E+03  0.36371277351E+03  0.00000000000E+00 0.  1.
<mgrwt>
<rscale>  0 0.13432081E+04</rscale>
<asrwt>0</asrwt>
<pdfrwt beam="1">  1        2 0.48060065E+00 0.13432081E+04</pdfrwt>
<pdfrwt beam="2">  1       -2 0.22213427E-01 0.13432081E+04</pdfrwt>
<totfact> 0.25505944E+01</totfact>
</mgrwt>
</event>
<event>
12    1  0.1549527E-007  0.1273544E+04  0.7818608E-02  0.9050812E-01
          2   -1    0    0  501    0  0.00000000000E+00  0.00000000000E+00  0.13916623107E+04  0.13916623107E+04  0.00000000000E+00 0. -1.
         -2   -1    0    0    0  501 -0.00000000000E+00 -0.00000000000E+00 -0.29136291516E+03  0.29136291516E+03  0.00000000000E+00 0.  1.
         23    2    1    2    0    0 -0.57913106302E+02 -0.27344841525E+03  0.95417688162E+02  0.30895795799E+03  0.90678117036E+02 0.  0.
        254    2    1    2    0    0  0.57913106302E+02  0.27344841525E+03  0.10048817074E+04  0.13740672679E+04  0.89450860651E+03 0.  0.
        -24    2    4    4    0    0  0.15870586178E+03 -0.29784803806E+03  0.44074821402E+03  0.56096284700E+03  0.80742326050E+02 0.  0.
         24    2    4    4    0    0 -0.10079275547E+03  0.57129645330E+03  0.56413349339E+03  0.81310442090E+03  0.79708116282E+02 0.  0.
         13    1    3    3    0    0  0.21398679121E+01  0.62311990205E+01 -0.18086634317E+01  0.68321401716E+01  0.00000000000E+00 0. -1.
        -13    1    3    3    0    0 -0.60052974214E+02 -0.27967961427E+03  0.97226351593E+02  0.30212581782E+03  0.00000000000E+00 0.  1.
          2    1    6    6  502    0 -0.19159716457E+02  0.40820430446E+02  0.21794774909E+02  0.50084074214E+02  0.00000000000E+00 0. -1.
          1    1    5    5  503    0 -0.44530247775E+01 -0.12481128900E+02  0.42807926037E+02  0.44812124920E+02  0.00000000000E+00 0. -1.
         -2    1    5    5    0  503  0.16315888655E+03 -0.28536690916E+03  0.39794028798E+03  0.51615072208E+03  0.00000000000E+00 0.  1.
         -1    1    6    6    0  502 -0.81633039017E+02  0.53047602286E+03  0.54233871848E+03  0.76302034668E+03  0.00000000000E+00 0.  1.
<mgrwt>
<rscale>  0 0.12735443E+04</rscale>
<asrwt>0</asrwt>
<pdfrwt beam="1">  1        2 0.21410189E+00 0.12735443E+04</pdfrwt>
<pdfrwt beam="2">  1       -2 0.44825065E-01 0.12735443E+04</pdfrwt>
<totfact> 0.67780145E+01</totfact>
</mgrwt>
</event>
<event>
12    1  0.1549527E-007  0.1062285E+04  0.7818608E-02  0.9242752E-01
          2   -1    0    0  501    0  0.00000000000E+00  0.00000000000E+00  0.24799233373E+03  0.24799233373E+03  0.00000000000E+00 0. -1.
         -2   -1    0    0    0  501 -0.00000000000E+00 -0.00000000000E+00 -0.11375851985E+04  0.11375851985E+04  0.00000000000E+00 0.  1.
         23    2    1    2    0    0 -0.39038897529E+02  0.13943818288E+02  0.61688043087E+02  0.11840787180E+03  0.92176699092E+02 0.  0.
        254    2    1    2    0    0  0.39038897529E+02 -0.13943818288E+02 -0.95128090786E+03  0.12671696604E+04  0.83610114045E+03 0.  0.
        -24    2    4    4    0    0  0.37833726943E+03  0.11761620892E+03 -0.72572292698E+03  0.83049163492E+03  0.77909735454E+02 0.  0.
         24    2    4    4    0    0 -0.33929837190E+03 -0.13156002721E+03 -0.22555798087E+03  0.43667802551E+03  0.85906165617E+02 0.  0.
         11    1    3    3    0    0  0.26268362989E+02 -0.14308165020E+02  0.18457637368E+02  0.35148753286E+02  0.00000000000E+00 0.  1.
        -11    1    3    3    0    0 -0.65307260517E+02  0.28251983308E+02  0.43230405719E+02  0.83259118514E+02  0.00000000000E+00 0. -1.
          2    1    6    6  502    0  0.72886372333E-01 -0.57198846192E+01  0.49458069272E+01  0.75619705528E+01  0.00000000000E+00 0. -1.
          3    1    5    5  503    0  0.10695989600E+03  0.10791216549E+02 -0.14343892980E+03  0.17925288363E+03  0.00000000000E+00 0. -1.
         -4    1    5    5    0  503  0.27137737343E+03  0.10682499237E+03 -0.58228399718E+03  0.65123875129E+03  0.00000000000E+00 0.  1.
         -1    1    6    6    0  502 -0.33937125827E+03 -0.12584014259E+03 -0.23050378780E+03  0.42911605496E+03  0.00000000000E+00 0.  1.
<mgrwt>
<rscale>  0 0.10622851E+04</rscale>
<asrwt>0</asrwt>
<pdfrwt beam="1">  1        2 0.38152666E-01 0.10622851E+04</pdfrwt>
<pdfrwt beam="2">  1       -2 0.17501311E+00 0.10622851E+04</pdfrwt>
<totfact> 0.26524138E+01</totfact>
</mgrwt>
</event>
<event>
12    1  0.1549527E-007  0.1191468E+04  0.7818608E-02  0.9120358E-01
         -2   -1    0    0    0  501 -0.00000000000E+00  0.00000000000E+00  0.11629487797E+03  0.11629487797E+03  0.00000000000E+00 0.  1.
          2   -1    0    0  501    0  0.00000000000E+00 -0.00000000000E+00 -0.30517146028E+04  0.30517146028E+04  0.00000000000E+00 0. -1.
         23    2    1    2    0    0 -0.13567193462E+03  0.11909667462E+03 -0.10864449971E+04  0.11053226354E+04  0.93725689822E+02 0.  0.
        254    2    1    2    0    0  0.13567193462E+03 -0.11909667462E+03 -0.18489747277E+04  0.20626868454E+04  0.89631388833E+03 0.  0.
        -24    2    4    4    0    0  0.17876308937E+03  0.35306984265E+03 -0.11063034944E+04  0.11779311482E+04  0.83664881023E+02 0.  0.
         24    2    4    4    0    0 -0.43091154747E+02 -0.47216651727E+03 -0.74267123338E+03  0.88475569717E+03  0.80212312891E+02 0.  0.
         11    1    3    3    0    0  0.34309947063E+01  0.32875955560E+02 -0.98089820487E+02  0.10350948296E+03  0.00000000000E+00 0.  1.
        -11    1    3    3    0    0 -0.13910292933E+03  0.86220719058E+02 -0.98835517661E+03  0.10018131525E+04  0.00000000000E+00 0. -1.
          2    1    6    6  502    0 -0.35521241774E+02 -0.35814648333E+03 -0.62160247086E+03  0.71827591768E+03  0.00000000000E+00 0. -1.
          1    1    5    5  503    0  0.13089860406E+03  0.31677229979E+03 -0.89989383352E+03  0.96295796692E+03  0.00000000000E+00 0. -1.
         -2    1    5    5    0  503  0.47864485304E+02  0.36297542859E+02 -0.20640966085E+03  0.21497318127E+03  0.00000000000E+00 0.  1.
         -1    1    6    6    0  502 -0.75699129732E+01 -0.11402003393E+03 -0.12106876252E+03  0.16647977949E+03  0.00000000000E+00 0.  1.
<mgrwt>
<rscale>  0 0.11914676E+04</rscale>
<asrwt>0</asrwt>
<pdfrwt beam="1">  1        2 0.46949448E+00 0.11914676E+04</pdfrwt>
<pdfrwt beam="2">  1       -2 0.17891522E-01 0.11914676E+04</pdfrwt>
<totfact> 0.42066670E+01</totfact>
</mgrwt>
</event>
<event>
12    1  0.1549527E-007  0.1921193E+04  0.7818608E-02  0.8644379E-01
         -3   -1    0    0    0  501 -0.00000000000E+00  0.00000000000E+00  0.11708828936E+04  0.11708828936E+04  0.00000000000E+00 0.  1.
          3   -1    0    0  501    0  0.00000000000E+00 -0.00000000000E+00 -0.78807683845E+03  0.78807683845E+03  0.00000000000E+00 0. -1.
         23    2    1    2    0    0 -0.52872779289E+03  0.16016184743E+03  0.64560997718E+03  0.85448652691E+03  0.90166987751E+02 0.  0.
        254    2    1    2    0    0  0.52872779289E+03 -0.16016184743E+03 -0.26280392206E+03  0.11044732051E+04  0.91955982026E+03 0.  0.
        -24    2    4    4    0    0  0.49378861213E+03  0.31222866931E+03 -0.10419033960E+03  0.59877999899E+03  0.79799278882E+02 0.  0.
         24    2    4    4    0    0  0.34939180759E+02 -0.47239051674E+03 -0.15861358245E+03  0.50569320613E+03  0.78700721299E+02 0.  0.
         13    1    3    3    0    0 -0.32922775796E+03  0.56236437213E+02  0.40828832110E+03  0.52749673613E+03  0.00000000000E+00 0.  1.
        -13    1    3    3    0    0 -0.19950003492E+03  0.10392541022E+03  0.23732165608E+03  0.32698979077E+03  0.00000000000E+00 0. -1.
          2    1    6    6  502    0  0.51104311961E+02 -0.34675540965E+03 -0.91067433538E+02  0.36213842971E+03  0.00000000000E+00 0. -1.
          1    1    5    5  503    0  0.43436868913E+03  0.30244116680E+03 -0.89632399602E+02  0.53682472422E+03  0.00000000000E+00 0. -1.
         -2    1    5    5    0  503  0.59419922996E+02  0.97875025105E+01 -0.14557940001E+02  0.61955274765E+02  0.00000000000E+00 0.  1.
         -1    1    6    6    0  502 -0.16165131202E+02 -0.12563510709E+03 -0.67546148915E+02  0.14355477642E+03  0.00000000000E+00 0.  1.
<mgrwt>
<rscale>  0 0.19211931E+04</rscale>
<asrwt>0</asrwt>
<pdfrwt beam="1">  1        3 0.12124259E+00 0.19211931E+04</pdfrwt>
<pdfrwt beam="2">  1       -3 0.18013583E+00 0.19211931E+04</pdfrwt>
<totfact> 0.26629906E-01</totfact>
</mgrwt>
</event>
<event>
12    1  0.1549527E-007  0.2154100E+04  0.7818608E-02  0.8537779E-01
         -2   -1    0    0    0  501 -0.00000000000E+00  0.00000000000E+00  0.86914197286E+03  0.86914197286E+03  0.00000000000E+00 0.  1.
          2   -1    0    0  501    0  0.00000000000E+00 -0.00000000000E+00 -0.13346916469E+04  0.13346916469E+04  0.00000000000E+00 0. -1.
         23    2    1    2    0    0 -0.86489940492E+03  0.69960650937E+02 -0.10710079461E+02  0.87251623052E+03  0.90688441390E+02 0.  0.
        254    2    1    2    0    0  0.86489940492E+03 -0.69960650937E+02 -0.45483959456E+03  0.13313173892E+04  0.90143300403E+03 0.  0.
        -24    2    4    4    0    0  0.41410171698E+03 -0.17223726182E+01  0.24856974274E+03  0.48927760594E+03  0.78246150657E+02 0.  0.
         24    2    4    4    0    0  0.45079768794E+03 -0.68238278319E+02 -0.70340933729E+03  0.84203978328E+03  0.79820315463E+02 0.  0.
         11    1    3    3    0    0 -0.65445619008E+03  0.61298556333E+02 -0.46130007284E+02  0.65893732275E+03  0.00000000000E+00 0. -1.
        -11    1    3    3    0    0 -0.21044321484E+03  0.86620946047E+01  0.35419927823E+02  0.21357890777E+03  0.00000000000E+00 0.  1.
          4    1    6    6  502    0  0.10889742329E+03  0.17356937476E+02 -0.17668069180E+03  0.20826900617E+03  0.00000000000E+00 0. -1.
          3    1    5    5  503    0  0.74487748241E+02 -0.12887084014E+02  0.15329859748E+02  0.77133042026E+02  0.00000000000E+00 0. -1.
         -4    1    5    5    0  503  0.33961396874E+03  0.11164711395E+02  0.23323988299E+03  0.41214456391E+03  0.00000000000E+00 0.  1.
         -3    1    6    6    0  502  0.34190026465E+03 -0.85595215795E+02 -0.52672864549E+03  0.63377077711E+03  0.00000000000E+00 0.  1.
<mgrwt>
<rscale>  0 0.21540998E+04</rscale>
<asrwt>0</asrwt>
<pdfrwt beam="1">  1        2 0.20533718E+00 0.21540998E+04</pdfrwt>
<pdfrwt beam="2">  1       -2 0.13371415E+00 0.21540998E+04</pdfrwt>
<totfact> 0.58543785E+00</totfact>
</mgrwt>
</event>
<event>
12    1  0.1549527E-007  0.1501442E+04  0.7818608E-02  0.8883494E-01
          1   -1    0    0  501    0  0.00000000000E+00  0.00000000000E+00  0.14465798067E+04  0.14465798067E+04  0.00000000000E+00 0. -1.
         -1   -1    0    0    0  501 -0.00000000000E+00 -0.00000000000E+00 -0.38959643171E+03  0.38959643171E+03  0.00000000000E+00 0.  1.
         23    2    1    2    0    0 -0.33709420356E+03 -0.30357083564E+03  0.50750312103E+03  0.68647577381E+03  0.88892158500E+02 0.  0.
        254    2    1    2    0    0  0.33709420356E+03  0.30357083564E+03  0.54948025392E+03  0.11497004646E+04  0.90227205124E+03 0.  0.
        -24    2    4    4    0    0  0.16631754515E+03  0.49600652601E+03 -0.96621544727E+01  0.52901024682E+03  0.77938978335E+02 0.  0.
         24    2    4    4    0    0  0.17077665841E+03 -0.19243569037E+03  0.55914240839E+03  0.62069021775E+03  0.80124600242E+02 0.  0.
         11    1    3    3    0    0 -0.25540027973E+03 -0.23048497412E+03  0.43691010021E+03  0.55609627030E+03  0.00000000000E+00 0. -1.
        -11    1    3    3    0    0 -0.81693923831E+02 -0.73085861524E+02  0.70593020823E+02  0.13037950351E+03  0.00000000000E+00 0.  1.
          2    1    6    6  502    0  0.13853428674E+03 -0.10005169554E+03  0.33303143709E+03  0.37431541308E+03  0.00000000000E+00 0. -1.
          3    1    5    5  503    0  0.17216184287E+03  0.45345993321E+03 -0.17487552005E+02  0.48535700844E+03  0.00000000000E+00 0. -1.
         -2    1    5    5    0  503 -0.58442977170E+01  0.42546592803E+02  0.78253975321E+01  0.43653238385E+02  0.00000000000E+00 0.  1.
         -1    1    6    6    0  502  0.32242371673E+02 -0.92383994824E+02  0.22611097130E+03  0.24637480467E+03  0.00000000000E+00 0.  1.
<mgrwt>
<rscale>  0 0.15014424E+04</rscale>
<asrwt>0</asrwt>
<pdfrwt beam="1">  1        1 0.22255074E+00 0.15014424E+04</pdfrwt>
<pdfrwt beam="2">  1       -1 0.59937913E-01 0.15014424E+04</pdfrwt>
<totfact> 0.19453183E+01</totfact>
</mgrwt>
</event>
<event>
12    1  0.1549527E-007  0.1358012E+04  0.7818608E-02  0.8984785E-01
          1   -1    0    0  501    0  0.00000000000E+00  0.00000000000E+00  0.40859475966E+03  0.40859475966E+03  0.00000000000E+00 0. -1.
         -1   -1    0    0    0  501 -0.00000000000E+00 -0.00000000000E+00 -0.11283770116E+04  0.11283770116E+04  0.00000000000E+00 0.  1.
         23    2    1    2    0    0  0.19500014559E+03  0.30332764564E+03 -0.30854443887E+03  0.48367264093E+03  0.93310425139E+02 0.  0.
        254    2    1    2    0    0 -0.19500014559E+03 -0.30332764564E+03 -0.41123781309E+03  0.10532991303E+04  0.90016098654E+03 0.  0.
        -24    2    4    4    0    0  0.26069257928E+03 -0.22603059247E+03 -0.46144457542E+03  0.58152714932E+03  0.78691038766E+02 0.  0.
         24    2    4    4    0    0 -0.45569272487E+03 -0.77297053165E+02  0.50206762330E+02  0.47177198103E+03  0.80108608642E+02 0.  0.
         11    1    3    3    0    0  0.28657815319E+02  0.57057122495E+02 -0.10696374080E+03  0.12457137493E+03  0.00000000000E+00 0. -1.
        -11    1    3    3    0    0  0.16634233027E+03  0.24627052314E+03 -0.20158069807E+03  0.35910126600E+03  0.00000000000E+00 0.  1.
          4    1    6    6  502    0 -0.35413060822E+03 -0.29087780336E+02  0.53342868928E+02  0.35930495169E+03  0.00000000000E+00 0. -1.
          1    1    5    5  503    0  0.18776266391E+03 -0.11411187849E+03 -0.30311883090E+03  0.37437596666E+03  0.00000000000E+00 0. -1.
         -2    1    5    5    0  503  0.72929915371E+02 -0.11191871398E+03 -0.15832574452E+03  0.20715118265E+03  0.00000000000E+00 0.  1.
         -3    1    6    6    0  502 -0.10156211665E+03 -0.48209272830E+02 -0.31361065975E+01  0.11246702934E+03  0.00000000000E+00 0.  1.
<mgrwt>
<rscale>  0 0.13580117E+04</rscale>
<asrwt>0</asrwt>
<pdfrwt beam="1">  1        1 0.62860733E-01 0.13580117E+04</pdfrwt>
<pdfrwt beam="2">  1       -1 0.17359646E+00 0.13580117E+04</pdfrwt>
<totfact> 0.13209623E+01</totfact>
</mgrwt>
</event>
<event>
12    1  0.1549527E-007  0.1373716E+04  0.7818608E-02  0.8973067E-01
          1   -1    0    0  501    0  0.00000000000E+00  0.00000000000E+00  0.83660009408E+03  0.83660009408E+03  0.00000000000E+00 0. -1.
         -1   -1    0    0    0  501 -0.00000000000E+00 -0.00000000000E+00 -0.56391785270E+03  0.56391785270E+03  0.00000000000E+00 0.  1.
         23    2    1    2    0    0 -0.17328600132E+03  0.26158976020E+03  0.30390240319E+03  0.44655799209E+03  0.92736879073E+02 0.  0.
        254    2    1    2    0    0  0.17328600132E+03 -0.26158976020E+03 -0.31220161813E+02  0.95395995469E+03  0.90033752324E+03 0.  0.
        -24    2    4    4    0    0  0.50944422190E+03 -0.31499929992E+03 -0.10399778103E+02  0.60396045375E+03  0.76825126972E+02 0.  0.
         24    2    4    4    0    0 -0.33615822058E+03  0.53409539726E+02 -0.20820383710E+02  0.34999950094E+03  0.78811382957E+02 0.  0.
         13    1    3    3    0    0 -0.54491123894E+02  0.53666213921E+02  0.28534297292E+02  0.81630577738E+02  0.00000000000E+00 0.  1.
        -13    1    3    3    0    0 -0.11879487743E+03  0.20792354627E+03  0.27536810590E+03  0.36492741435E+03  0.00000000000E+00 0. -1.
          2    1    6    6  502    0 -0.18008266709E+03  0.53857557099E+01  0.21136124370E+02  0.18139875717E+03  0.00000000000E+00 0. -1.
          1    1    5    5  503    0  0.49338822795E+03 -0.28571423394E+03 -0.14384923710E+02  0.57032577794E+03  0.00000000000E+00 0. -1.
         -2    1    5    5    0  503  0.16055993945E+02 -0.29285065980E+02  0.39851456071E+01  0.33634675806E+02  0.00000000000E+00 0.  1.
         -1    1    6    6    0  502 -0.15607555349E+03  0.48023784016E+02 -0.41956508080E+02  0.16860074376E+03  0.00000000000E+00 0.  1.
<mgrwt>
<rscale>  0 0.13737157E+04</rscale>
<asrwt>0</asrwt>
<pdfrwt beam="1">  1        1 0.12870771E+00 0.13737157E+04</pdfrwt>
<pdfrwt beam="2">  1       -1 0.86756592E-01 0.13737157E+04</pdfrwt>
<totfact> 0.26312971E+01</totfact>
</mgrwt>
</event>
<event>
12    1  0.1549527E-007  0.1558179E+04  0.7818608E-02  0.8846660E-01
         -1   -1    0    0    0  501 -0.00000000000E+00  0.00000000000E+00  0.55458766815E+03  0.55458766815E+03  0.00000000000E+00 0.  1.
          1   -1    0    0  501    0  0.00000000000E+00 -0.00000000000E+00 -0.10944721836E+04  0.10944721836E+04  0.00000000000E+00 0. -1.
         23    2    1    2    0    0  0.46772424526E+03  0.16258178933E+03 -0.33583192657E+03  0.60468383495E+03  0.87525136488E+02 0.  0.
        254    2    1    2    0    0 -0.46772424526E+03 -0.16258178933E+03 -0.20405258888E+03  0.10443760168E+04  0.89659634039E+03 0.  0.
        -24    2    4    4    0    0 -0.49935969561E+03  0.22280904325E+03  0.79367609068E+02  0.55836068806E+03  0.80395679334E+02 0.  0.
         24    2    4    4    0    0  0.31635450343E+02 -0.38539083257E+03 -0.28342019795E+03  0.48601532873E+03  0.79730769543E+02 0.  0.
         13    1    3    3    0    0  0.33374244962E+03  0.99218544744E+02 -0.18949848730E+03  0.39640638111E+03  0.00000000000E+00 0. -1.
        -13    1    3    3    0    0  0.13398179565E+03  0.63363244582E+02 -0.14633343927E+03  0.20827745384E+03  0.00000000000E+00 0.  1.
          2    1    6    6  502    0 -0.80175619635E+00 -0.21929934214E+03 -0.11653623398E+03  0.24834157547E+03  0.00000000000E+00 0. -1.
          1    1    5    5  503    0 -0.23011952499E+03  0.14562034308E+03  0.48025406048E+02  0.27652616463E+03  0.00000000000E+00 0. -1.
         -2    1    5    5    0  503 -0.26924017062E+03  0.77188700170E+02  0.31342203019E+02  0.28183452343E+03  0.00000000000E+00 0.  1.
         -1    1    6    6    0  502  0.32437206539E+02 -0.16609149043E+03 -0.16688396397E+03  0.23767375327E+03  0.00000000000E+00 0.  1.
<mgrwt>
<rscale>  0 0.15581794E+04</rscale>
<asrwt>0</asrwt>
<pdfrwt beam="1">  1        1 0.16838033E+00 0.15581794E+04</pdfrwt>
<pdfrwt beam="2">  1       -1 0.85321181E-01 0.15581794E+04</pdfrwt>
<totfact> 0.16739234E+01</totfact>
</mgrwt>
</event>
<event>
12    1  0.1549527E-007  0.1839479E+04  0.7818608E-02  0.8685582E-01
          2   -1    0    0  501    0  0.00000000000E+00  0.00000000000E+00  0.12233464348E+04  0.12233464348E+04  0.00000000000E+00 0. -1.
         -2   -1    0    0    0  501 -0.00000000000E+00 -0.00000000000E+00 -0.69148089336E+03  0.69148089336E+03  0.00000000000E+00 0.  1.
         23    2    1    2    0    0  0.28960953554E+03 -0.35147692506E+03 -0.34483464885E+03  0.57837181608E+03  0.90516908148E+02 0.  0.
        254    2    1    2    0    0 -0.28960953554E+03  0.35147692506E+03  0.87670019026E+03  0.13364555121E+04  0.90005577615E+03 0.  0.
        -24    2    4    4    0    0 -0.62769909127E+02  0.14866229363E+03 -0.16779609454E+03  0.24559348319E+03  0.78231007932E+02 0.  0.
         24    2    4    4    0    0 -0.22683962641E+03  0.20281463143E+03  0.10444962848E+04  0.10908620289E+04  0.80109214490E+02 0.  0.
         11    1    3    3    0    0  0.14352618447E+02  0.19724488883E+01 -0.28369275899E+01  0.14762668087E+02  0.00000000000E+00 0. -1.
        -11    1    3    3    0    0  0.27525691709E+03 -0.35344937395E+03 -0.34199772126E+03  0.56360914799E+03  0.00000000000E+00 0.  1.
          4    1    6    6  502    0  0.47456317105E+01 -0.23089455532E+01  0.16389489255E+02  0.17218234751E+02  0.00000000000E+00 0. -1.
          1    1    5    5  503    0 -0.45997405030E+02  0.12158623375E+03 -0.81069207235E+02  0.15320310006E+03  0.00000000000E+00 0. -1.
         -2    1    5    5    0  503 -0.16772504096E+02  0.27076059879E+02 -0.86726887302E+02  0.92390383121E+02  0.00000000000E+00 0.  1.
         -3    1    6    6    0  502 -0.23158525812E+03  0.20512357699E+03  0.10281067955E+04  0.10736437941E+04  0.00000000000E+00 0.  1.
<mgrwt>
<rscale>  0 0.18394789E+04</rscale>
<asrwt>0</asrwt>
<pdfrwt beam="1">  1        2 0.18820714E+00 0.18394789E+04</pdfrwt>
<pdfrwt beam="2">  1       -2 0.10638168E+00 0.18394789E+04</pdfrwt>
<totfact> 0.12298669E+01</totfact>
</mgrwt>
</event>
<event>
12    1  0.1549527E-007  0.1130660E+04  0.7818608E-02  0.9175813E-01
         -1   -1    0    0    0  501 -0.00000000000E+00  0.00000000000E+00  0.20151164503E+03  0.20151164503E+03  0.00000000000E+00 0.  1.
          1   -1    0    0  501    0  0.00000000000E+00 -0.00000000000E+00 -0.15860038223E+04  0.15860038223E+04  0.00000000000E+00 0. -1.
         23    2    1    2    0    0  0.16291266333E+03 -0.10006526588E+03 -0.28963516916E+03  0.35780961661E+03  0.87095334054E+02 0.  0.
        254    2    1    2    0    0 -0.16291266333E+03  0.10006526588E+03 -0.10948570081E+04  0.14297058507E+04  0.89932939352E+03 0.  0.
        -24    2    4    4    0    0  0.14337474999E+03  0.26985422894E+02 -0.10918409166E+04  0.11049287834E+04  0.86408896073E+02 0.  0.
         24    2    4    4    0    0 -0.30628741332E+03  0.73079842988E+02 -0.30160915247E+01  0.32477706729E+03  0.79488386698E+02 0.  0.
         13    1    3    3    0    0  0.12740585670E+03 -0.78861515468E+02 -0.27637504196E+03  0.31437963478E+03  0.00000000000E+00 0. -1.
        -13    1    3    3    0    0  0.35506806632E+02 -0.21203750414E+02 -0.13260127202E+02  0.43429981836E+02  0.00000000000E+00 0.  1.
          2    1    6    6  502    0 -0.25753145046E+03  0.29238636709E+02 -0.33714203929E+01  0.25920785545E+03  0.00000000000E+00 0. -1.
          3    1    5    5  503    0  0.25745471156E+02  0.15401462254E+02 -0.52700424020E+03  0.52785746515E+03  0.00000000000E+00 0. -1.
         -4    1    5    5    0  503  0.11762927883E+03  0.11583960640E+02 -0.56483667638E+03  0.57707131827E+03  0.00000000000E+00 0.  1.
         -1    1    6    6    0  502 -0.48755962861E+02  0.43841206279E+02  0.35532886821E+00  0.65569211839E+02  0.00000000000E+00 0.  1.
<mgrwt>
<rscale>  0 0.11306604E+04</rscale>
<asrwt>0</asrwt>
<pdfrwt beam="1">  1        1 0.24400058E+00 0.11306604E+04</pdfrwt>
<pdfrwt beam="2">  1       -1 0.31001792E-01 0.11306604E+04</pdfrwt>
<totfact> 0.54639478E+01</totfact>
</mgrwt>
</event>
<event>
12    1  0.1549527E-007  0.1538495E+04  0.7818608E-02  0.8859250E-01
          1   -1    0    0  501    0  0.00000000000E+00  0.00000000000E+00  0.74143350367E+03  0.74143350367E+03  0.00000000000E+00 0. -1.
         -1   -1    0    0    0  501 -0.00000000000E+00 -0.00000000000E+00 -0.79810489739E+03  0.79810489739E+03  0.00000000000E+00 0.  1.
         23    2    1    2    0    0 -0.34207571096E+03  0.13939902902E+02  0.34786312107E+03  0.49637085698E+03  0.90361295589E+02 0.  0.
        254    2    1    2    0    0  0.34207571096E+03 -0.13939902902E+02 -0.40453451478E+03  0.10431675441E+04  0.89852113968E+03 0.  0.
        -24    2    4    4    0    0 -0.17694944139E+03 -0.27582726149E+03 -0.29032415109E+03  0.44563545152E+03  0.83132785081E+02 0.  0.
         24    2    4    4    0    0  0.51902515235E+03  0.26188735858E+03 -0.11421036369E+03  0.59753209256E+03  0.77643397055E+02 0.  0.
         13    1    3    3    0    0 -0.27748081749E+03 -0.13224514950E+02  0.23668845491E+03  0.36495467740E+03  0.00000000000E+00 0. -1.
        -13    1    3    3    0    0 -0.64594893469E+02  0.27164417852E+02  0.11117466616E+03  0.13141617958E+03  0.00000000000E+00 0.  1.
          2    1    6    6  502    0  0.39908223360E+03  0.17711515058E+03 -0.58843019395E+02  0.44056657462E+03  0.00000000000E+00 0. -1.
          1    1    5    5  503    0 -0.18597361210E+03 -0.26042087658E+03 -0.27844886969E+03  0.42419216210E+03  0.00000000000E+00 0. -1.
         -2    1    5    5    0  503  0.90241707026E+01 -0.15406384910E+02 -0.11875281395E+02  0.21443289418E+02  0.00000000000E+00 0.  1.
         -1    1    6    6    0  502  0.11994291875E+03  0.84772208006E+02 -0.55367344293E+02  0.15696551795E+03  0.00000000000E+00 0.  1.
<mgrwt>
<rscale>  0 0.15384950E+04</rscale>
<asrwt>0</asrwt>
<pdfrwt beam="1">  1        1 0.11406669E+00 0.15384950E+04</pdfrwt>
<pdfrwt beam="2">  1       -1 0.12278537E+00 0.15384950E+04</pdfrwt>
<totfact> 0.14072024E+01</totfact>
</mgrwt>
</event>
<event>
12    1  0.1549527E-007  0.1178710E+04  0.7818608E-02  0.9131698E-01
          1   -1    0    0  501    0  0.00000000000E+00  0.00000000000E+00  0.14123512966E+04  0.14123512966E+04  0.00000000000E+00 0. -1.
         -1   -1    0    0    0  501 -0.00000000000E+00 -0.00000000000E+00 -0.24592988457E+03  0.24592988457E+03  0.00000000000E+00 0.  1.
         23    2    1    2    0    0  0.10325643760E+03  0.17241455752E+03  0.39664518295E+03  0.45408438549E+03  0.92068216224E+02 0.  0.
        254    2    1    2    0    0 -0.10325643760E+03 -0.17241455752E+03  0.76977622904E+03  0.12041967956E+04  0.90396117632E+03 0.  0.
        -24    2    4    4    0    0  0.26037458613E+03 -0.22464686853E+02  0.75457454406E+03  0.80258024084E+03  0.80328781812E+02 0.  0.
         24    2    4    4    0    0 -0.36363102373E+03 -0.14994987066E+03  0.15201684977E+02  0.40161655480E+03  0.79701196567E+02 0.  0.
         13    1    3    3    0    0  0.73580655101E+02  0.17481667631E+03  0.35962543115E+03  0.40657770948E+03  0.00000000000E+00 0. -1.
        -13    1    3    3    0    0  0.29675782497E+02 -0.24021187950E+01  0.37019751805E+02  0.47506676007E+02  0.00000000000E+00 0.  1.
          4    1    6    6  502    0 -0.33727849366E+02 -0.21776466596E+02 -0.21931156546E+02  0.45746671439E+02  0.00000000000E+00 0. -1.
          3    1    5    5  503    0  0.44368171813E+02  0.18339054463E+02  0.20772724657E+03  0.21320287183E+03  0.00000000000E+00 0. -1.
         -4    1    5    5    0  503  0.21600641432E+03 -0.40803741316E+02  0.54684729749E+03  0.58937736901E+03  0.00000000000E+00 0.  1.
         -3    1    6    6    0  502 -0.32990317436E+03 -0.12817340407E+03  0.37132841524E+02  0.35586988336E+03  0.00000000000E+00 0.  1.
<mgrwt>
<rscale>  0 0.11787101E+04</rscale>
<asrwt>0</asrwt>
<pdfrwt beam="1">  1        1 0.21728481E+00 0.11787101E+04</pdfrwt>
<pdfrwt beam="2">  1       -1 0.37835368E-01 0.11787101E+04</pdfrwt>
<totfact> 0.50304534E+01</totfact>
</mgrwt>
</event>
<event>
12    1  0.1549527E-007  0.1642209E+04  0.7818608E-02  0.8795029E-01
         -1   -1    0    0    0  501 -0.00000000000E+00  0.00000000000E+00  0.77977389055E+03  0.77977389055E+03  0.00000000000E+00 0.  1.
          1   -1    0    0  501    0  0.00000000000E+00 -0.00000000000E+00 -0.86462561852E+03  0.86462561852E+03  0.00000000000E+00 0. -1.
         23    2    1    2    0    0  0.11817479004E+03  0.87634464658E+02 -0.52767831566E+03  0.55524690815E+03  0.90607084725E+02 0.  0.
        254    2    1    2    0    0 -0.11817479004E+03 -0.87634464658E+02  0.44282658769E+03  0.10891526009E+04  0.98413054059E+03 0.  0.
        -24    2    4    4    0    0  0.13279679067E+03 -0.21320612126E+02 -0.27838203095E+03  0.31890046785E+03  0.78175425337E+02 0.  0.
         24    2    4    4    0    0 -0.25097158070E+03 -0.66313852531E+02  0.72120861864E+03  0.77025213307E+03  0.75909258624E+02 0.  0.
         13    1    3    3    0    0  0.15932146812E+02  0.46207578180E+02 -0.76526856940E+02  0.90803818292E+02  0.00000000000E+00 0.  1.
        -13    1    3    3    0    0  0.10224264322E+03  0.41426886478E+02 -0.45115145872E+03  0.46444308986E+03  0.00000000000E+00 0. -1.
          4    1    6    6  502    0 -0.50374448780E+02 -0.44193691994E+02  0.14534827135E+03  0.16005245230E+03  0.00000000000E+00 0. -1.
          1    1    5    5  503    0  0.72916671676E+02  0.17418183582E+02 -0.19649412510E+03  0.21030971287E+03  0.00000000000E+00 0. -1.
         -2    1    5    5    0  503  0.59880118990E+02 -0.38738795708E+02 -0.81887905846E+02  0.10859075498E+03  0.00000000000E+00 0.  1.
         -3    1    6    6    0  502 -0.20059713192E+03 -0.22120160538E+02  0.57586034729E+03  0.61019968078E+03  0.00000000000E+00 0.  1.
<mgrwt>
<rscale>  0 0.16422089E+04</rscale>
<asrwt>0</asrwt>
<pdfrwt beam="1">  1        1 0.13301932E+00 0.16422089E+04</pdfrwt>
<pdfrwt beam="2">  1       -1 0.11996522E+00 0.16422089E+04</pdfrwt>
<totfact> 0.11535549E+01</totfact>
</mgrwt>
</event>
<event>
12    1  0.1549527E-007  0.1502770E+04  0.7818608E-02  0.8882613E-01
         -2   -1    0    0    0  501 -0.00000000000E+00  0.00000000000E+00  0.40361131709E+03  0.40361131709E+03  0.00000000000E+00 0.  1.
          2   -1    0    0  501    0  0.00000000000E+00 -0.00000000000E+00 -0.13988205109E+04  0.13988205109E+04  0.00000000000E+00 0. -1.
         23    2    1    2    0    0 -0.10404646356E+03 -0.22093284816E+02 -0.92818313741E+03  0.93879721935E+03  0.92209016245E+02 0.  0.
        254    2    1    2    0    0  0.10404646356E+03  0.22093284816E+02 -0.67026056427E+02  0.86363460867E+03  0.85443458804E+03 0.  0.
        -24    2    4    4    0    0  0.29714142262E+03  0.25880286189E+03  0.20203237548E+03  0.44958992148E+03  0.77730755825E+02 0.  0.
         24    2    4    4    0    0 -0.19309495906E+03 -0.23670957707E+03 -0.26905843191E+03  0.41404468718E+03  0.75653658937E+02 0.  0.
         13    1    3    3    0    0 -0.31606918014E+02 -0.51033558217E+02 -0.31464438880E+03  0.32031939176E+03  0.00000000000E+00 0.  1.
        -13    1    3    3    0    0 -0.72439545547E+02  0.28940273401E+02 -0.61353874861E+03  0.61847782760E+03  0.00000000000E+00 0. -1.
          2    1    6    6  502    0 -0.12864719826E+03 -0.11314086640E+03 -0.18082991144E+03  0.24909920542E+03  0.00000000000E+00 0. -1.
          1    1    5    5  503    0  0.21379094003E+03  0.14995588171E+03  0.15973471622E+03  0.30611846083E+03  0.00000000000E+00 0. -1.
         -2    1    5    5    0  503  0.83350482589E+02  0.10884698018E+03  0.42297659259E+02  0.14347146065E+03  0.00000000000E+00 0.  1.
         -1    1    6    6    0  502 -0.64447760798E+02 -0.12356871067E+03 -0.88228520473E+02  0.16494548176E+03  0.00000000000E+00 0.  1.
<mgrwt>
<rscale>  0 0.15027705E+04</rscale>
<asrwt>0</asrwt>
<pdfrwt beam="1">  1        2 0.21520316E+00 0.15027705E+04</pdfrwt>
<pdfrwt beam="2">  1       -2 0.62094049E-01 0.15027705E+04</pdfrwt>
<totfact> 0.33708202E+01</totfact>
</mgrwt>
</event>
<event>
12    1  0.1549527E-007  0.1759105E+04  0.7818608E-02  0.8728355E-01
         -2   -1    0    0    0  501 -0.00000000000E+00  0.00000000000E+00  0.21760094356E+03  0.21760094356E+03  0.00000000000E+00 0. -1.
          2   -1    0    0  501    0  0.00000000000E+00 -0.00000000000E+00 -0.35551881039E+04  0.35551881039E+04  0.00000000000E+00 0.  1.
         23    2    1    2    0    0  0.32197819740E+03 -0.36290375908E+03 -0.33099558387E+03  0.59460195488E+03  0.92867164539E+02 0.  0.
        254    2    1    2    0    0 -0.32197819740E+03  0.36290375908E+03 -0.30065915765E+04  0.31781870926E+04  0.90879656131E+03 0.  0.
        -24    2    4    4    0    0 -0.41715502444E+03  0.48498720200E+03 -0.28990823057E+04  0.29699203070E+04  0.80731125278E+02 0.  0.
         24    2    4    4    0    0  0.95176827040E+02 -0.12208344293E+03 -0.10750927081E+03  0.20826678556E+03  0.88621753627E+02 0.  0.
         13    1    3    3    0    0  0.29269673673E+03 -0.35278307303E+03 -0.28712783162E+03  0.54089709557E+03  0.00000000000E+00 0. -1.
        -13    1    3    3    0    0  0.29281460669E+02 -0.10120686041E+02 -0.43867752254E+02  0.53704859302E+02  0.00000000000E+00 0.  1.
          4    1    6    6  502    0  0.30473719701E+02 -0.93640864483E+02 -0.94339627088E+02  0.13637164050E+03  0.00000000000E+00 0. -1.
          3    1    5    5  503    0 -0.33909003175E+03  0.43704906851E+03 -0.24927458937E+04  0.25533852095E+04  0.00000000000E+00 0. -1.
         -4    1    5    5    0  503 -0.78064992691E+02  0.47938133497E+02 -0.40633641200E+03  0.41653509749E+03  0.00000000000E+00 0.  1.
         -3    1    6    6    0  502  0.64703107339E+02 -0.28442578445E+02 -0.13169643724E+02  0.71895145064E+02  0.00000000000E+00 0.  1.
<mgrwt>
<rscale>  0 0.17591046E+04</rscale>
<asrwt>0</asrwt>
<pdfrwt beam="1">  1        2 0.54695198E+00 0.17591046E+04</pdfrwt>
<pdfrwt beam="2">  1       -2 0.33477070E-01 0.17591046E+04</pdfrwt>
<totfact> 0.59272364E+00</totfact>
</mgrwt>
</event>
<event>
12    1  0.1549527E-007  0.1183085E+04  0.7818608E-02  0.9127793E-01
          2   -1    0    0  501    0  0.00000000000E+00  0.00000000000E+00  0.12523878003E+04  0.12523878003E+04  0.00000000000E+00 0. -1.
         -2   -1    0    0    0  501 -0.00000000000E+00 -0.00000000000E+00 -0.27940410773E+03  0.27940410773E+03  0.00000000000E+00 0.  1.
         23    2    1    2    0    0  0.22310907157E+03 -0.26148486080E+02  0.20091912555E+03  0.31615440727E+03  0.95518129610E+02 0.  0.
        254    2    1    2    0    0 -0.22310907157E+03  0.26148486080E+02  0.77206456699E+03  0.12156375007E+04  0.91171784915E+03 0.  0.
        -24    2    4    4    0    0 -0.51796829916E+02 -0.41129568124E+03  0.18813250766E+03  0.46184608535E+03  0.77851892222E+02 0.  0.
         24    2    4    4    0    0 -0.17131224165E+03  0.43744416732E+03  0.58393205932E+03  0.75379141538E+03  0.80743819182E+02 0.  0.
         13    1    3    3    0    0  0.13882993895E+03 -0.21968001805E+02  0.62019446413E+02  0.15363188727E+03  0.00000000000E+00 0. -1.
        -13    1    3    3    0    0  0.84279132621E+02 -0.41804842750E+01  0.13889967914E+03  0.16252252001E+03  0.00000000000E+00 0.  1.
          2    1    6    6  502    0 -0.27387529341E+02  0.87163392586E+02  0.68475633701E+02  0.11417725772E+03  0.00000000000E+00 0. -1.
          1    1    5    5  503    0 -0.40766388139E+01  0.27816199489E+01  0.28875774454E+01  0.57179102006E+01  0.00000000000E+00 0. -1.
         -2    1    5    5    0  503 -0.47720191102E+02 -0.41407730119E+03  0.18524493022E+03  0.45612817515E+03  0.00000000000E+00 0.  1.
         -1    1    6    6    0  502 -0.14392471231E+03  0.35028077473E+03  0.51545642562E+03  0.63961415766E+03  0.00000000000E+00 0.  1.
<mgrwt>
<rscale>  0 0.11830846E+04</rscale>
<asrwt>0</asrwt>
<pdfrwt beam="1">  1        2 0.19267504E+00 0.11830846E+04</pdfrwt>
<pdfrwt beam="2">  1       -2 0.42985248E-01 0.11830846E+04</pdfrwt>
<totfact> 0.89312056E+01</totfact>
</mgrwt>
</event>
<event>
12    1  0.1579846E-007  0.2840676E+04  0.7818608E-02  0.8290750E-01
         -2   -1    0    0    0  501 -0.00000000000E+00  0.00000000000E+00  0.15709699626E+04  0.15709699626E+04  0.00000000000E+00 0.  1.
          2   -1    0    0  501    0  0.00000000000E+00 -0.00000000000E+00 -0.12841496673E+04  0.12841496673E+04  0.00000000000E+00 0. -1.
         23    2    1    2    0    0 -0.78368991613E+03 -0.32153349621E+03 -0.80758994013E+03  0.11741699191E+04  0.94444765076E+02 0.  0.
        254    2    1    2    0    0  0.78368991613E+03  0.32153349621E+03  0.10944102354E+04  0.16809497108E+04  0.95409878584E+03 0.  0.
        -24    2    4    4    0    0 -0.13333974512E+03  0.59492770289E+02 -0.66094005280E+02  0.17670928460E+03  0.74423627867E+02 0.  0.
         24    2    4    4    0    0  0.91702966126E+03  0.26204072592E+03  0.11605042407E+04  0.15042404262E+04  0.79752276235E+02 0.  0.
         11    1    3    3    0    0 -0.19766862030E+03 -0.66023529286E+02 -0.14804360365E+03  0.25563430610E+03  0.00000000000E+00 0.  1.
        -11    1    3    3    0    0 -0.58602129583E+03 -0.25550996693E+03 -0.65954633648E+03  0.91853561299E+03  0.00000000000E+00 0. -1.
          2    1    6    6  502    0  0.90069289750E+03  0.26062531491E+03  0.11532111216E+04  0.14862937601E+04  0.00000000000E+00 0. -1.
          1    1    5    5  503    0 -0.92734811873E+02  0.50620897931E+02 -0.80388053001E+02  0.13275714559E+03  0.00000000000E+00 0. -1.
         -2    1    5    5    0  503 -0.40604933250E+02  0.88718723578E+01  0.14294047721E+02  0.43952139011E+02  0.00000000000E+00 0.  1.
         -1    1    6    6    0  502  0.16336763760E+02  0.14154110156E+01  0.72931190926E+01  0.17946666113E+02  0.00000000000E+00 0.  1.
<mgrwt>
<rscale>  0 0.28406764E+04</rscale>
<asrwt>0</asrwt>
<pdfrwt beam="1">  1        2 0.19756149E+00 0.28406764E+04</pdfrwt>
<pdfrwt beam="2">  1       -2 0.24168769E+00 0.28406764E+04</pdfrwt>
<totfact> 0.10591600E+00</totfact>
</mgrwt>
</event>
<event>
12    1  0.1549527E-007  0.1581190E+04  0.7818608E-02  0.8832188E-01
          1   -1    0    0  501    0  0.00000000000E+00  0.00000000000E+00  0.65958700848E+03  0.65958700848E+03  0.00000000000E+00 0. -1.
         -1   -1    0    0    0  501 -0.00000000000E+00 -0.00000000000E+00 -0.94762400079E+03  0.94762400079E+03  0.00000000000E+00 0.  1.
         23    2    1    2    0    0 -0.28494581916E+03  0.63236359519E+02  0.35441081128E+03  0.46816587883E+03  0.91538570675E+02 0.  0.
        254    2    1    2    0    0  0.28494581916E+03 -0.63236359519E+02 -0.64244780359E+03  0.11390451304E+04  0.89414298176E+03 0.  0.
        -24    2    4    4    0    0 -0.25449599891E+03 -0.10965440266E+03  0.86675766532E+01  0.28856246778E+03  0.80005433816E+02 0.  0.
         24    2    4    4    0    0  0.53944181808E+03  0.46418043138E+02 -0.65111538025E+03  0.85048266267E+03  0.78850563013E+02 0.  0.
         11    1    3    3    0    0 -0.10423433640E+03 -0.13348373494E+02  0.16352133193E+03  0.19437644394E+03  0.00000000000E+00 0. -1.
        -11    1    3    3    0    0 -0.18071148276E+03  0.76584733013E+02  0.19088947935E+03  0.27378943489E+03  0.00000000000E+00 0.  1.
          2    1    6    6  502    0  0.44660619271E+03  0.24553518420E+02 -0.57485799340E+03  0.72836919156E+03  0.00000000000E+00 0. -1.
          1    1    5    5  503    0 -0.14096920323E+03 -0.97724544945E+02  0.24669279563E+02  0.17329447856E+03  0.00000000000E+00 0. -1.
         -2    1    5    5    0  503 -0.11352679569E+03 -0.11929857713E+02 -0.16001702909E+02  0.11526798922E+03  0.00000000000E+00 0.  1.
         -1    1    6    6    0  502  0.92835625364E+02  0.21864524718E+02 -0.76257386848E+02  0.12211347111E+03  0.00000000000E+00 0.  1.
<mgrwt>
<rscale>  0 0.15811900E+04</rscale>
<asrwt>0</asrwt>
<pdfrwt beam="1">  1        1 0.10147492E+00 0.15811900E+04</pdfrwt>
<pdfrwt beam="2">  1       -1 0.14578831E+00 0.15811900E+04</pdfrwt>
<totfact> 0.10786288E+01</totfact>
</mgrwt>
</event>
<event>
12    1  0.1549527E-007  0.1275925E+04  0.7818608E-02  0.9048878E-01
          1   -1    0    0  501    0  0.00000000000E+00  0.00000000000E+00  0.24189897196E+04  0.24189897196E+04  0.00000000000E+00 0. -1.
         -1   -1    0    0    0  501 -0.00000000000E+00 -0.00000000000E+00 -0.16825046502E+03  0.16825046502E+03  0.00000000000E+00 0.  1.
         23    2    1    2    0    0 -0.22909298623E+03 -0.11860338586E+03  0.91975336770E+03  0.95966105943E+03  0.91938741022E+02 0.  0.
        254    2    1    2    0    0  0.22909298623E+03  0.11860338586E+03  0.13309858869E+04  0.16275791252E+04  0.90052208091E+03 0.  0.
        -24    2    4    4    0    0  0.14277125020E+02  0.38612919024E+03  0.11808946577E+04  0.12449691943E+04  0.78335907301E+02 0.  0.
         24    2    4    4    0    0  0.21481586121E+03 -0.26752580437E+03  0.15009122917E+03  0.38260993086E+03  0.78403264524E+02 0.  0.
         11    1    3    3    0    0 -0.15131721787E+03 -0.58208678404E+02  0.41808507230E+03  0.44841975686E+03  0.00000000000E+00 0. -1.
        -11    1    3    3    0    0 -0.77775768358E+02 -0.60394707461E+02  0.50166829541E+03  0.51124130257E+03  0.00000000000E+00 0.  1.
          4    1    6    6  502    0  0.20597465546E+03 -0.23600922051E+03  0.15501650316E+03  0.34950826472E+03  0.00000000000E+00 0. -1.
          3    1    5    5  503    0 -0.31492268920E+02  0.11643727480E+03  0.37337047787E+03  0.39237089049E+03  0.00000000000E+00 0. -1.
         -4    1    5    5    0  503  0.45769393940E+02  0.26969191544E+03  0.80752417983E+03  0.85259830383E+03  0.00000000000E+00 0.  1.
         -3    1    6    6    0  502  0.88412057512E+01 -0.31516583860E+02 -0.49252739877E+01  0.33101666139E+02  0.00000000000E+00 0.  1.
<mgrwt>
<rscale>  0 0.12759250E+04</rscale>
<asrwt>0</asrwt>
<pdfrwt beam="1">  1        1 0.37215224E+00 0.12759250E+04</pdfrwt>
<pdfrwt beam="2">  1       -1 0.25884689E-01 0.12759250E+04</pdfrwt>
<totfact> 0.20102947E+01</totfact>
</mgrwt>
</event>
<event>
12    1  0.1549527E-007  0.1295081E+04  0.7818608E-02  0.9033475E-01
          2   -1    0    0  501    0  0.00000000000E+00  0.00000000000E+00  0.90460713868E+03  0.90460713868E+03  0.00000000000E+00 0. -1.
         -2   -1    0    0    0  501 -0.00000000000E+00 -0.00000000000E+00 -0.46352596189E+03  0.46352596189E+03  0.00000000000E+00 0.  1.
         23    2    1    2    0    0  0.19525465551E+02 -0.13434193214E+03 -0.18971932485E+03  0.25110076059E+03  0.92893332451E+02 0.  0.
        254    2    1    2    0    0 -0.19525465551E+02  0.13434193214E+03  0.63080050163E+03  0.11170323400E+04  0.91182398365E+03 0.  0.
        -24    2    4    4    0    0  0.15875203872E+03 -0.26311888374E+03 -0.33653296716E+02  0.31863471721E+03  0.77212575746E+02 0.  0.
         24    2    4    4    0    0 -0.17827750427E+03  0.39746081588E+03  0.66445379835E+03  0.79839762277E+03  0.78625347162E+02 0.  0.
         13    1    3    3    0    0 -0.21456220599E+02 -0.56329421031E+02 -0.13375514079E+03  0.14670995455E+03  0.00000000000E+00 0. -1.
        -13    1    3    3    0    0  0.40981686150E+02 -0.78012511111E+02 -0.55964184057E+02  0.10439080605E+03  0.00000000000E+00 0.  1.
          4    1    6    6  502    0 -0.12236460833E+03  0.23324246646E+03  0.46180882370E+03  0.53164135954E+03  0.00000000000E+00 0. -1.
          3    1    5    5  503    0  0.83875893570E+02 -0.19309958032E+03 -0.45647830907E+02  0.21542130328E+03  0.00000000000E+00 0. -1.
         -4    1    5    5    0  503  0.74876145150E+02 -0.70019303421E+02  0.11994534191E+02  0.10321341393E+03  0.00000000000E+00 0.  1.
         -3    1    6    6    0  502 -0.55912895944E+02  0.16421834943E+03  0.20264497464E+03  0.26675626322E+03  0.00000000000E+00 0.  1.
<mgrwt>
<rscale>  0 0.12950813E+04</rscale>
<asrwt>0</asrwt>
<pdfrwt beam="1">  1        2 0.13917033E+00 0.12950813E+04</pdfrwt>
<pdfrwt beam="2">  1       -2 0.71311687E-01 0.12950813E+04</pdfrwt>
<totfact> 0.50963524E+01</totfact>
</mgrwt>
</event>
<event>
12    1  0.1549527E-007  0.1952376E+04  0.7818608E-02  0.8629216E-01
          2   -1    0    0  501    0  0.00000000000E+00  0.00000000000E+00  0.15614489373E+04  0.15614489373E+04  0.00000000000E+00 0.  1.
         -2   -1    0    0    0  501 -0.00000000000E+00 -0.00000000000E+00 -0.61029413774E+03  0.61029413774E+03  0.00000000000E+00 0. -1.
         23    2    1    2    0    0 -0.15629403326E+03  0.43706406578E+03 -0.30173506604E+03  0.56070400467E+03  0.88837539064E+02 0.  0.
        254    2    1    2    0    0  0.15629403326E+03 -0.43706406578E+03  0.12528898656E+04  0.16110390703E+04  0.90014501525E+03 0.  0.
        -24    2    4    4    0    0  0.91835989539E+02  0.26819862155E+03  0.44567184259E+03  0.53415837994E+03  0.79608002181E+02 0.  0.
         24    2    4    4    0    0  0.64458043718E+02 -0.70526268733E+03  0.80721802298E+03  0.10768806904E+04  0.80751391151E+02 0.  0.
         13    1    3    3    0    0 -0.20254135761E+02  0.13696976870E+03 -0.54619776220E+02  0.14884309695E+03  0.00000000000E+00 0.  1.
        -13    1    3    3    0    0 -0.13603989750E+03  0.30009429707E+03 -0.24711528982E+03  0.41186090772E+03  0.00000000000E+00 0. -1.
          4    1    6    6  502    0 -0.18344245992E+02 -0.13034114828E+03  0.16171163501E+03  0.20850894272E+03  0.00000000000E+00 0. -1.
          3    1    5    5  503    0  0.56313592384E+02  0.69205845043E+02  0.10263599466E+03  0.13599565094E+03  0.00000000000E+00 0. -1.
         -4    1    5    5    0  503  0.35522397155E+02  0.19899277651E+03  0.34303584793E+03  0.39816272900E+03  0.00000000000E+00 0.  1.
         -3    1    6    6    0  502  0.82802289710E+02 -0.57492153905E+03  0.64550638796E+03  0.86837174767E+03  0.00000000000E+00 0.  1.
<mgrwt>
<rscale>  0 0.19523761E+04</rscale>
<asrwt>0</asrwt>
<pdfrwt beam="1">  1        2 0.24022291E+00 0.19523761E+04</pdfrwt>
<pdfrwt beam="2">  1       -2 0.93891406E-01 0.19523761E+04</pdfrwt>
<totfact> 0.10472114E+01</totfact>
</mgrwt>
</event>
<event>
12    1  0.1549527E-007  0.1372270E+04  0.7818608E-02  0.8974139E-01
          2   -1    0    0  501    0  0.00000000000E+00  0.00000000000E+00  0.13981680810E+04  0.13981680810E+04  0.00000000000E+00 0. -1.
         -2   -1    0    0    0  501 -0.00000000000E+00 -0.00000000000E+00 -0.33671299157E+03  0.33671299157E+03  0.00000000000E+00 0.  1.
         23    2    1    2    0    0 -0.26529756518E+03  0.35399215705E+02  0.65062671239E+03  0.70935015868E+03  0.90700750720E+02 0.  0.
        254    2    1    2    0    0  0.26529756518E+03 -0.35399215705E+02  0.41082837704E+03  0.10255309139E+04  0.90072071000E+03 0.  0.
        -24    2    4    4    0    0  0.44365426424E+03 -0.24930229560E+03 -0.90919662302E+01  0.51555154272E+03  0.82036507608E+02 0.  0.
         24    2    4    4    0    0 -0.17835669906E+03  0.21390307990E+03  0.41992034327E+03  0.50997937117E+03  0.78614404785E+02 0.  0.
         11    1    3    3    0    0  0.72925078850E+01  0.12095878377E+01  0.11386969945E+02  0.13575966209E+02  0.00000000000E+00 0.  1.
        -11    1    3    3    0    0 -0.27259007307E+03  0.34189627867E+02  0.63923974244E+03  0.69577419247E+03  0.00000000000E+00 0. -1.
          4    1    6    6  502    0 -0.43072497048E+02  0.10315469743E+03  0.13031355648E+03  0.17169086931E+03  0.00000000000E+00 0. -1.
          3    1    5    5  503    0  0.86997563299E+02 -0.85914170536E+02  0.10811066196E+02  0.12274648619E+03  0.00000000000E+00 0. -1.
         -2    1    5    5    0  503  0.35665670094E+03 -0.16338812507E+03 -0.19903032426E+02  0.39280505654E+03  0.00000000000E+00 0.  1.
         -3    1    6    6    0  502 -0.13528420201E+03  0.11074838247E+03  0.28960678679E+03  0.33828850186E+03  0.00000000000E+00 0.  1.
<mgrwt>
<rscale>  0 0.13722702E+04</rscale>
<asrwt>0</asrwt>
<pdfrwt beam="1">  1        2 0.21510278E+00 0.13722702E+04</pdfrwt>
<pdfrwt beam="2">  1       -2 0.51801999E-01 0.13722702E+04</pdfrwt>
<totfact> 0.49774661E+01</totfact>
</mgrwt>
</event>
<event>
12    1  0.1549527E-007  0.1260751E+04  0.7818608E-02  0.9061282E-01
         -1   -1    0    0    0  501 -0.00000000000E+00  0.00000000000E+00  0.34329316400E+03  0.34329316400E+03  0.00000000000E+00 0.  1.
          1   -1    0    0  501    0  0.00000000000E+00 -0.00000000000E+00 -0.11575334438E+04  0.11575334438E+04  0.00000000000E+00 0. -1.
         23    2    1    2    0    0  0.15217272251E+03 -0.15639993105E+03  0.51146752367E+02  0.24191587008E+03  0.91048459685E+02 0.  0.
        254    2    1    2    0    0 -0.15217272251E+03  0.15639993105E+03 -0.86538703219E+03  0.12589107377E+04  0.88788741076E+03 0.  0.
        -24    2    4    4    0    0 -0.21343569726E+03 -0.86870492271E+02  0.96143702180E+02  0.26210694262E+03  0.79719248678E+02 0.  0.
         24    2    4    4    0    0  0.61262974744E+02  0.24327042332E+03 -0.96153073437E+03  0.99680379512E+03  0.78376028728E+02 0.  0.
         11    1    3    3    0    0  0.11180610578E+03 -0.12484144787E+03  0.77106754228E+02  0.18447613380E+03  0.00000000000E+00 0.  1.
        -11    1    3    3    0    0  0.40366616738E+02 -0.31558483177E+02 -0.25960001861E+02  0.57439736280E+02  0.00000000000E+00 0. -1.
          2    1    6    6  502    0  0.70327232334E+02  0.14236805012E+03 -0.65466608402E+03  0.67364847129E+03  0.00000000000E+00 0. -1.
          1    1    5    5  503    0 -0.59559943823E+02  0.62395796943E+01  0.39891312698E+01  0.60018600710E+02  0.00000000000E+00 0. -1.
         -2    1    5    5    0  503 -0.15387575344E+03 -0.93110071965E+02  0.92154570910E+02  0.20208834191E+03  0.00000000000E+00 0.  1.
         -1    1    6    6    0  502 -0.90642575898E+01  0.10090237319E+03 -0.30686465035E+03  0.32315532382E+03  0.00000000000E+00 0.  1.
<mgrwt>
<rscale>  0 0.12607511E+04</rscale>
<asrwt>0</asrwt>
<pdfrwt beam="1">  1        1 0.17808207E+00 0.12607511E+04</pdfrwt>
<pdfrwt beam="2">  1       -1 0.52814332E-01 0.12607511E+04</pdfrwt>
<totfact> 0.40885714E+01</totfact>
</mgrwt>
</event>
<event>
12    1  0.1549527E-007  0.1219679E+04  0.7818608E-02  0.9095804E-01
         -2   -1    0    0    0  501 -0.00000000000E+00  0.00000000000E+00  0.31972068359E+03  0.31972068359E+03  0.00000000000E+00 0.  1.
          2   -1    0    0  501    0  0.00000000000E+00 -0.00000000000E+00 -0.11632160929E+04  0.11632160929E+04  0.00000000000E+00 0. -1.
         23    2    1    2    0    0  0.20377794199E+03 -0.19926677651E+03 -0.32354396550E+03  0.44065324627E+03  0.90894928197E+02 0.  0.
        254    2    1    2    0    0 -0.20377794199E+03  0.19926677651E+03 -0.51995144379E+03  0.10422835302E+04  0.85718886810E+03 0.  0.
        -24    2    4    4    0    0 -0.16670355498E+03 -0.18235683582E+02 -0.71418649652E+03  0.73763122302E+03  0.76908087792E+02 0.  0.
         24    2    4    4    0    0 -0.37074387010E+02  0.21750246009E+03  0.19423505274E+03  0.30465230719E+03  0.80024635247E+02 0.  0.
         11    1    3    3    0    0  0.10407330594E+03 -0.12248206242E+03 -0.24264256307E+03  0.29104728488E+03  0.00000000000E+00 0. -1.
        -11    1    3    3    0    0  0.99704636045E+02 -0.76784714089E+02 -0.80901402437E+02  0.14960596139E+03  0.00000000000E+00 0.  1.
          4    1    6    6  502    0 -0.54289639656E+02  0.20810944925E+03  0.17693752510E+03  0.27850277490E+03  0.00000000000E+00 0. -1.
          1    1    5    5  503    0 -0.14336541463E+03 -0.13923161692E+02 -0.68516116065E+03  0.70013806682E+03  0.00000000000E+00 0. -1.
         -2    1    5    5    0  503 -0.23338140344E+02 -0.43125218902E+01 -0.29025335870E+02  0.37493156204E+02  0.00000000000E+00 0.  1.
         -3    1    6    6    0  502  0.17215252646E+02  0.93930108379E+01  0.17297527640E+02  0.26149532284E+02  0.00000000000E+00 0.  1.
<mgrwt>
<rscale>  0 0.12196790E+04</rscale>
<asrwt>0</asrwt>
<pdfrwt beam="1">  1        2 0.17895632E+00 0.12196790E+04</pdfrwt>
<pdfrwt beam="2">  1       -2 0.49187798E-01 0.12196790E+04</pdfrwt>
<totfact> 0.76832826E+01</totfact>
</mgrwt>
</event>
<event>
12    1  0.1549527E-007  0.1378051E+04  0.7818608E-02  0.8969861E-01
         -1   -1    0    0    0  501 -0.00000000000E+00  0.00000000000E+00  0.33828156064E+03  0.33828156064E+03  0.00000000000E+00 0.  1.
          1   -1    0    0  501    0  0.00000000000E+00 -0.00000000000E+00 -0.14034357605E+04  0.14034357605E+04  0.00000000000E+00 0. -1.
         23    2    1    2    0    0  0.22137651459E+03  0.13481242673E+03 -0.65657057838E+03  0.71153500666E+03  0.89527591810E+02 0.  0.
        254    2    1    2    0    0 -0.22137651459E+03 -0.13481242673E+03 -0.40858362151E+03  0.10301823145E+04  0.90947956203E+03 0.  0.
        -24    2    4    4    0    0  0.29293352128E+03  0.95985474965E+02 -0.32486449224E+03  0.45481208432E+03  0.79333690401E+02 0.  0.
         24    2    4    4    0    0 -0.51431003586E+03 -0.23079790170E+03 -0.83719129268E+02  0.57537023019E+03  0.79117158454E+02 0.  0.
         13    1    3    3    0    0  0.71108230626E+02  0.79543917412E+00 -0.20878905651E+03  0.22056718547E+03  0.00000000000E+00 0.  1.
        -13    1    3    3    0    0  0.15026828396E+03  0.13401698756E+03 -0.44778152187E+03  0.49096782120E+03  0.00000000000E+00 0. -1.
          2    1    6    6  502    0 -0.13957839464E+03 -0.59768298639E+02  0.12548748699E+02  0.15235435296E+03  0.00000000000E+00 0. -1.
          1    1    5    5  503    0  0.12259343311E+03  0.39689755460E+02 -0.81497873417E+02  0.15246747162E+03  0.00000000000E+00 0. -1.
         -2    1    5    5    0  503  0.17034008816E+03  0.56295719504E+02 -0.24336661883E+03  0.30234461270E+03  0.00000000000E+00 0.  1.
         -1    1    6    6    0  502 -0.37473164123E+03 -0.17102960306E+03 -0.96267877967E+02  0.42301587723E+03  0.00000000000E+00 0.  1.
<mgrwt>
<rscale>  0 0.13780514E+04</rscale>
<asrwt>0</asrwt>
<pdfrwt beam="1">  1        1 0.21591319E+00 0.13780514E+04</pdfrwt>
<pdfrwt beam="2">  1       -1 0.52043317E-01 0.13780514E+04</pdfrwt>
<totfact> 0.27739015E+01</totfact>
</mgrwt>
</event>
<event>
12    1  0.1549527E-007  0.2323896E+04  0.7818608E-02  0.8468558E-01
         -2   -1    0    0    0  501 -0.00000000000E+00  0.00000000000E+00  0.12094427978E+04  0.12094427978E+04  0.00000000000E+00 0.  1.
          2   -1    0    0  501    0  0.00000000000E+00 -0.00000000000E+00 -0.11163182248E+04  0.11163182248E+04  0.00000000000E+00 0. -1.
         23    2    1    2    0    0 -0.43372738929E+03 -0.75473000979E+03  0.50323623345E+03  0.10095775105E+04  0.90902184328E+02 0.  0.
        254    2    1    2    0    0  0.43372738929E+03  0.75473000979E+03 -0.41011166043E+03  0.13161835121E+04  0.89800369024E+03 0.  0.
        -24    2    4    4    0    0 -0.58643056695E+02  0.39197125251E+03  0.19792577828E+03  0.45005659086E+03  0.79346394869E+02 0.  0.
         24    2    4    4    0    0  0.49237044598E+03  0.36275875728E+03 -0.60803743871E+03  0.86612692127E+03  0.80272939510E+02 0.  0.
         13    1    3    3    0    0 -0.90160657587E+02 -0.16651045656E+03  0.67955640171E+02  0.20117814332E+03  0.00000000000E+00 0. -1.
        -13    1    3    3    0    0 -0.34356673170E+03 -0.58821955323E+03  0.43528059328E+03  0.80839936716E+03  0.00000000000E+00 0.  1.
          4    1    6    6  502    0  0.44111925924E+03  0.33522804536E+03 -0.51520683037E+03  0.75657261471E+03  0.00000000000E+00 0. -1.
          1    1    5    5  503    0 -0.57484144422E+01  0.20237004717E+03  0.13526868674E+03  0.24348367065E+03  0.00000000000E+00 0. -1.
         -2    1    5    5    0  503 -0.52894642252E+02  0.18960120534E+03  0.62657091538E+02  0.20657292022E+03  0.00000000000E+00 0.  1.
         -3    1    6    6    0  502  0.51251186740E+02  0.27530711920E+02 -0.92830608343E+02  0.10955430656E+03  0.00000000000E+00 0.  1.
<mgrwt>
<rscale>  0 0.23238959E+04</rscale>
<asrwt>0</asrwt>
<pdfrwt beam="1">  1        2 0.17174127E+00 0.23238959E+04</pdfrwt>
<pdfrwt beam="2">  1       -2 0.18606812E+00 0.23238959E+04</pdfrwt>
<totfact> 0.31735743E+00</totfact>
</mgrwt>
</event>
<event>
12    1  0.1549527E-007  0.1522286E+04  0.7818608E-02  0.8869767E-01
         -2   -1    0    0    0  501 -0.00000000000E+00  0.00000000000E+00  0.12252833234E+04  0.12252833234E+04  0.00000000000E+00 0. -1.
          2   -1    0    0  501    0  0.00000000000E+00 -0.00000000000E+00 -0.47282017802E+03  0.47282017802E+03  0.00000000000E+00 0.  1.
         23    2    1    2    0    0  0.14697800320E+03  0.36179533414E+03 -0.84679173777E+02  0.41048901717E+03  0.93980176165E+02 0.  0.
        254    2    1    2    0    0 -0.14697800320E+03 -0.36179533414E+03  0.83714231913E+03  0.12876144842E+04  0.89702028978E+03 0.  0.
        -24    2    4    4    0    0 -0.45844396844E+03 -0.44784637618E+03  0.53643176256E+03  0.83954947676E+03  0.79668307346E+02 0.  0.
         24    2    4    4    0    0  0.31146596524E+03  0.86051042037E+02  0.30071055658E+03  0.44806500746E+03  0.76938824644E+02 0.  0.
         13    1    3    3    0    0  0.15304818226E+03  0.27608843398E+03 -0.69621526863E+02  0.32325798748E+03  0.00000000000E+00 0.  1.
        -13    1    3    3    0    0 -0.60701790544E+01  0.85706900162E+02 -0.15057646915E+02  0.87231029685E+02  0.00000000000E+00 0. -1.
          2    1    6    6  502    0  0.34699918030E+02  0.37637946370E+02  0.45335577127E+02  0.68381385418E+02  0.00000000000E+00 0. -1.
          1    1    5    5  503    0 -0.14743142952E+03 -0.95088133136E+02  0.13919248706E+03  0.22394715431E+03  0.00000000000E+00 0. -1.
         -2    1    5    5    0  503 -0.31101253893E+03 -0.35275824304E+03  0.39723927550E+03  0.61560232245E+03  0.00000000000E+00 0.  1.
         -1    1    6    6    0  502  0.27676604721E+03  0.48413095667E+02  0.25537497945E+03  0.37968362205E+03  0.00000000000E+00 0.  1.
<mgrwt>
<rscale>  0 0.15222860E+04</rscale>
<asrwt>0</asrwt>
<pdfrwt beam="1">  1        2 0.72741566E-01 0.15222860E+04</pdfrwt>
<pdfrwt beam="2">  1       -2 0.18850513E+00 0.15222860E+04</pdfrwt>
<totfact> 0.10042445E+01</totfact>
</mgrwt>
</event>
<event>
12    1  0.1549527E-007  0.1824936E+04  0.7818608E-02  0.8693150E-01
          1   -1    0    0  501    0  0.00000000000E+00  0.00000000000E+00  0.15109422788E+04  0.15109422788E+04  0.00000000000E+00 0. -1.
         -1   -1    0    0    0  501 -0.00000000000E+00 -0.00000000000E+00 -0.55104541994E+03  0.55104541994E+03  0.00000000000E+00 0.  1.
         23    2    1    2    0    0 -0.45096599163E+03 -0.22668226487E+03 -0.17269604068E+03  0.54133307829E+03  0.91991327718E+02 0.  0.
        254    2    1    2    0    0  0.45096599163E+03  0.22668226487E+03  0.11325928996E+04  0.15206546205E+04  0.88026622323E+03 0.  0.
        -24    2    4    4    0    0  0.19900155162E+03  0.47318087059E+03  0.10153827899E+04  0.11404287884E+04  0.77934958393E+02 0.  0.
         24    2    4    4    0    0  0.25196444001E+03 -0.24649860572E+03  0.11721010970E+03  0.38022583201E+03  0.81153138325E+02 0.  0.
         13    1    3    3    0    0 -0.11244077867E+03 -0.14469850465E+02 -0.32990114169E+02  0.11807054211E+03  0.00000000000E+00 0. -1.
        -13    1    3    3    0    0 -0.33852521296E+03 -0.21221241441E+03 -0.13970592651E+03  0.42326253619E+03  0.00000000000E+00 0.  1.
          2    1    6    6  502    0  0.71973902560E+02 -0.95666122940E+02  0.46459912437E+01  0.11980749126E+03  0.00000000000E+00 0. -1.
          1    1    5    5  503    0  0.69363133024E+02  0.26522857014E+03  0.53328096533E+03  0.59962156952E+03  0.00000000000E+00 0. -1.
         -2    1    5    5    0  503  0.12963841859E+03  0.20795230045E+03  0.48210182452E+03  0.54080721893E+03  0.00000000000E+00 0.  1.
         -1    1    6    6    0  502  0.17999053745E+03 -0.15083248278E+03  0.11256411846E+03  0.26041834075E+03  0.00000000000E+00 0.  1.
<mgrwt>
<rscale>  0 0.18249360E+04</rscale>
<asrwt>0</asrwt>
<pdfrwt beam="1">  1        1 0.23245266E+00 0.18249360E+04</pdfrwt>
<pdfrwt beam="2">  1       -1 0.84776219E-01 0.18249360E+04</pdfrwt>
<totfact> 0.83341951E+00</totfact>
</mgrwt>
</event>
<event>
12    1  0.1549527E-007  0.1195418E+04  0.7818608E-02  0.9116877E-01
         -1   -1    0    0    0  501 -0.00000000000E+00  0.00000000000E+00  0.12124643477E+04  0.12124643477E+04  0.00000000000E+00 0.  1.
          1   -1    0    0  501    0  0.00000000000E+00 -0.00000000000E+00 -0.29465260238E+03  0.29465260238E+03  0.00000000000E+00 0. -1.
         23    2    1    2    0    0  0.16458495444E+03  0.17838373104E+03  0.14035032966E+03  0.29572422684E+03  0.94051265683E+02 0.  0.
        254    2    1    2    0    0 -0.16458495444E+03 -0.17838373104E+03  0.77746141571E+03  0.12113927233E+04  0.89672577436E+03 0.  0.
        -24    2    4    4    0    0  0.22677686569E+03  0.24790138747E+03  0.31428233843E+03  0.46589014094E+03  0.73466934419E+02 0.  0.
         24    2    4    4    0    0 -0.39136182012E+03 -0.42628511851E+03  0.46317907728E+03  0.74550258236E+03  0.79725567750E+02 0.  0.
         11    1    3    3    0    0  0.64948726204E+02  0.52088559240E+02  0.15750232331E+01  0.83270857672E+02  0.00000000000E+00 0. -1.
        -11    1    3    3    0    0  0.99636228233E+02  0.12629517180E+03  0.13877530642E+03  0.21245336917E+03  0.00000000000E+00 0.  1.
          2    1    6    6  502    0 -0.17398260241E+03 -0.13249439597E+03  0.17295184539E+03  0.27881365054E+03  0.00000000000E+00 0. -1.
          1    1    5    5  503    0  0.76949570520E+02  0.86868134449E+02  0.63389411981E+02  0.13223285045E+03  0.00000000000E+00 0. -1.
         -2    1    5    5    0  503  0.14982729517E+03  0.16103325302E+03  0.25089292645E+03  0.33365729049E+03  0.00000000000E+00 0.  1.
         -1    1    6    6    0  502 -0.21737921771E+03 -0.29379072255E+03  0.29022723189E+03  0.46668893181E+03  0.00000000000E+00 0.  1.
<mgrwt>
<rscale>  0 0.11954175E+04</rscale>
<asrwt>0</asrwt>
<pdfrwt beam="1">  1        1 0.45331170E-01 0.11954175E+04</pdfrwt>
<pdfrwt beam="2">  1       -1 0.18653297E+00 0.11954175E+04</pdfrwt>
<totfact> 0.16613754E+01</totfact>
</mgrwt>
</event>
<event>
12    1  0.1549527E-007  0.2634325E+04  0.7818608E-02  0.8356635E-01
         -1   -1    0    0    0  501 -0.00000000000E+00  0.00000000000E+00  0.72964752569E+03  0.72964752569E+03  0.00000000000E+00 0.  1.
          1   -1    0    0  501    0  0.00000000000E+00 -0.00000000000E+00 -0.23777460951E+04  0.23777460951E+04  0.00000000000E+00 0. -1.
         23    2    1    2    0    0 -0.67249360271E+03 -0.15455634608E+03  0.37253803553E+03  0.78978265205E+03  0.94003934852E+02 0.  0.
        254    2    1    2    0    0  0.67249360271E+03  0.15455634608E+03 -0.20206366049E+04  0.23176109687E+04  0.90122860772E+03 0.  0.
        -24    2    4    4    0    0  0.66081581876E+03 -0.25111921095E+03 -0.14252050827E+04  0.15928907116E+04  0.79704999648E+02 0.  0.
         24    2    4    4    0    0  0.11677783950E+02  0.40567555703E+03 -0.59543152225E+03  0.72472025712E+03  0.77276938282E+02 0.  0.
         13    1    3    3    0    0 -0.58980457819E+03 -0.15513340400E+03  0.29942696293E+03  0.67940585781E+03  0.00000000000E+00 0.  1.
        -13    1    3    3    0    0 -0.82689024512E+02  0.57705791594E+00  0.73111072594E+02  0.11037679424E+03  0.00000000000E+00 0. -1.
          4    1    6    6  502    0 -0.16289574953E+02  0.17946938563E+02 -0.30374158622E+02  0.38859134935E+02  0.00000000000E+00 0. -1.
          1    1    5    5  503    0  0.21334724763E+01 -0.51830752620E+01 -0.30215895745E+02  0.30731357432E+02  0.00000000000E+00 0. -1.
         -2    1    5    5    0  503  0.65868234628E+03 -0.24593613569E+03 -0.13949891869E+04  0.15621593541E+04  0.00000000000E+00 0.  1.
         -3    1    6    6    0  502  0.27967358903E+02  0.38772861847E+03 -0.56505736362E+03  0.68586112219E+03  0.00000000000E+00 0.  1.
<mgrwt>
<rscale>  0 0.26343246E+04</rscale>
<asrwt>0</asrwt>
<pdfrwt beam="1">  1        1 0.36580710E+00 0.26343246E+04</pdfrwt>
<pdfrwt beam="2">  1       -1 0.11225346E+00 0.26343246E+04</pdfrwt>
<totfact> 0.10506857E+00</totfact>
</mgrwt>
</event>
<event>
12    1  0.1549527E-007  0.1376382E+04  0.7818608E-02  0.8971094E-01
         -2   -1    0    0    0  501 -0.00000000000E+00  0.00000000000E+00  0.26562657730E+03  0.26562657730E+03  0.00000000000E+00 0.  1.
          2   -1    0    0  501    0  0.00000000000E+00 -0.00000000000E+00 -0.17829795938E+04  0.17829795938E+04  0.00000000000E+00 0. -1.
         23    2    1    2    0    0  0.95923982465E+02  0.29227541801E+03 -0.73739984325E+03  0.80459351821E+03  0.94793830682E+02 0.  0.
        254    2    1    2    0    0 -0.95923982465E+02 -0.29227541801E+03 -0.77995317323E+03  0.12440126529E+04  0.91902894278E+03 0.  0.
        -24    2    4    4    0    0 -0.97592983019E+02  0.27403995832E+03 -0.35325628078E+02  0.30516424391E+03  0.85176444343E+02 0.  0.
         24    2    4    4    0    0  0.16690005537E+01 -0.56631537633E+03 -0.74462754516E+03  0.93884840896E+03  0.79058604634E+02 0.  0.
         13    1    3    3    0    0  0.82337199921E+02  0.29644402897E+03 -0.70614969677E+03  0.77026350755E+03  0.00000000000E+00 0. -1.
        -13    1    3    3    0    0  0.13586782544E+02 -0.41686109655E+01 -0.31250146481E+02  0.34330010667E+02  0.00000000000E+00 0.  1.
          4    1    6    6  502    0  0.21848884153E+02 -0.16143483876E+03 -0.16830818656E+03  0.23423540844E+03  0.00000000000E+00 0. -1.
          1    1    5    5  503    0 -0.16096995948E+02  0.10368782542E+03 -0.49041050087E+02  0.11582444912E+03  0.00000000000E+00 0. -1.
         -2    1    5    5    0  503 -0.81495987071E+02  0.17035213290E+03  0.13715422009E+02  0.18933979479E+03  0.00000000000E+00 0.  1.
         -3    1    6    6    0  502 -0.20179883599E+02 -0.40488053757E+03 -0.57631935860E+03  0.70461300052E+03  0.00000000000E+00 0.  1.
<mgrwt>
<rscale>  0 0.13763819E+04</rscale>
<asrwt>0</asrwt>
<pdfrwt beam="1">  1        2 0.27430455E+00 0.13763819E+04</pdfrwt>
<pdfrwt beam="2">  1       -2 0.40865628E-01 0.13763819E+04</pdfrwt>
<totfact> 0.48755836E+01</totfact>
</mgrwt>
</event>
<event>
12    1  0.1549527E-007  0.2409115E+04  0.7818608E-02  0.8436099E-01
          2   -1    0    0  501    0  0.00000000000E+00  0.00000000000E+00  0.30058706464E+04  0.30058706464E+04  0.00000000000E+00 0. -1.
         -2   -1    0    0    0  501 -0.00000000000E+00 -0.00000000000E+00 -0.48270826478E+03  0.48270826478E+03  0.00000000000E+00 0.  1.
         23    2    1    2    0    0 -0.45713618208E+03 -0.78546646261E+03  0.37510687482E+03  0.98741453968E+03  0.91385189062E+02 0.  0.
        254    2    1    2    0    0  0.45713618208E+03  0.78546646261E+03  0.21480555068E+04  0.25011643715E+04  0.90318862930E+03 0.  0.
        -24    2    4    4    0    0  0.53097023978E+03  0.31866767214E+03  0.18102750778E+04  0.19149414211E+04  0.80164255887E+02 0.  0.
         24    2    4    4    0    0 -0.73834057696E+02  0.46679879047E+03  0.33778042897E+03  0.58622295043E+03  0.78798163371E+02 0.  0.
         11    1    3    3    0    0 -0.14851625116E+03 -0.34406430933E+03  0.15889896430E+03  0.40704570587E+03  0.00000000000E+00 0. -1.
        -11    1    3    3    0    0 -0.30861993093E+03 -0.44140215328E+03  0.21620791053E+03  0.58036883381E+03  0.00000000000E+00 0.  1.
          4    1    6    6  502    0 -0.24655213415E+02  0.36328042968E+03  0.26703559050E+03  0.45154020500E+03  0.00000000000E+00 0. -1.
          3    1    5    5  503    0  0.17749356081E+03  0.15154703962E+03  0.66594531001E+03  0.70565829214E+03  0.00000000000E+00 0. -1.
         -4    1    5    5    0  503  0.35347667897E+03  0.16712063252E+03  0.11443297678E+04  0.12092831289E+04  0.00000000000E+00 0.  1.
         -3    1    6    6    0  502 -0.49178844281E+02  0.10351836079E+03  0.70744838467E+02  0.13468274543E+03  0.00000000000E+00 0.  1.
<mgrwt>
<rscale>  0 0.24091149E+04</rscale>
<asrwt>0</asrwt>
<pdfrwt beam="1">  1        2 0.46244162E+00 0.24091149E+04</pdfrwt>
<pdfrwt beam="2">  1       -2 0.74262812E-01 0.24091149E+04</pdfrwt>
<totfact> 0.25331230E+00</totfact>
</mgrwt>
</event>
<event>
12    1  0.1549527E-007  0.2168463E+04  0.7818608E-02  0.8531670E-01
         -2   -1    0    0    0  501 -0.00000000000E+00  0.00000000000E+00  0.89957456840E+03  0.89957456840E+03  0.00000000000E+00 0.  1.
          2   -1    0    0  501    0  0.00000000000E+00 -0.00000000000E+00 -0.13067931481E+04  0.13067931481E+04  0.00000000000E+00 0. -1.
         23    2    1    2    0    0 -0.39132156240E+03  0.49541187762E+03  0.47658422485E+03  0.79674699593E+03  0.95434576816E+02 0.  0.
        254    2    1    2    0    0  0.39132156240E+03 -0.49541187762E+03 -0.88380280458E+03  0.14096207206E+04  0.89853084804E+03 0.  0.
        -24    2    4    4    0    0 -0.18882026706E+03 -0.40567643372E+03 -0.17835416355E+03  0.48830733816E+03  0.80046153673E+02 0.  0.
         24    2    4    4    0    0  0.58014182947E+03 -0.89735443904E+02 -0.70544864103E+03  0.92131338245E+03  0.80892344193E+02 0.  0.
         11    1    3    3    0    0 -0.35965629673E+03  0.48553062400E+03  0.44063093322E+03  0.74782902988E+03  0.00000000000E+00 0.  1.
        -11    1    3    3    0    0 -0.31665265668E+02  0.98812536236E+01  0.35953291636E+02  0.48917966050E+02  0.00000000000E+00 0. -1.
          2    1    6    6  502    0  0.43215768398E+03 -0.10123137916E+03 -0.54123013103E+03  0.69995579195E+03  0.00000000000E+00 0. -1.
          3    1    5    5  503    0 -0.13686372847E+03 -0.24030359748E+03 -0.75176578925E+02  0.28658160644E+03  0.00000000000E+00 0. -1.
         -4    1    5    5    0  503 -0.51956538593E+02 -0.16537283624E+03 -0.10317758462E+03  0.20172573172E+03  0.00000000000E+00 0.  1.
         -1    1    6    6    0  502  0.14798414549E+03  0.11495935253E+02 -0.16421851001E+03  0.22135759050E+03  0.00000000000E+00 0.  1.
<mgrwt>
<rscale>  0 0.21684629E+04</rscale>
<asrwt>0</asrwt>
<pdfrwt beam="1">  1        2 0.20104510E+00 0.21684629E+04</pdfrwt>
<pdfrwt beam="2">  1       -2 0.13839609E+00 0.21684629E+04</pdfrwt>
<totfact> 0.55563272E+00</totfact>
</mgrwt>
</event>
<event>
12    1  0.1549527E-007  0.1394515E+04  0.7818608E-02  0.8957799E-01
          2   -1    0    0  501    0  0.00000000000E+00  0.00000000000E+00  0.19058224226E+04  0.19058224226E+04  0.00000000000E+00 0. -1.
         -2   -1    0    0    0  501 -0.00000000000E+00 -0.00000000000E+00 -0.25509600985E+03  0.25509600985E+03  0.00000000000E+00 0.  1.
         23    2    1    2    0    0 -0.24079884674E+03 -0.15364080154E+03  0.31328870295E+02  0.30134075395E+03  0.90747845078E+02 0.  0.
        254    2    1    2    0    0  0.24079884674E+03  0.15364080154E+03  0.16193975424E+04  0.18595776785E+04  0.86832664439E+03 0.  0.
        -24    2    4    4    0    0  0.33894540027E+03 -0.15812051157E+03  0.14162940621E+04  0.14670199610E+04  0.79828660510E+02 0.  0.
         24    2    4    4    0    0 -0.98146553525E+02  0.31176131311E+03  0.20310348031E+03  0.39255771747E+03  0.77605898685E+02 0.  0.
         11    1    3    3    0    0 -0.67899577867E+02 -0.66759483757E+02  0.48900055029E+02  0.10704390094E+03  0.00000000000E+00 0. -1.
        -11    1    3    3    0    0 -0.17289926887E+03 -0.86881317784E+02 -0.17571184734E+02  0.19429685301E+03  0.00000000000E+00 0.  1.
          4    1    6    6  502    0 -0.54954312847E+02  0.74433894979E+02  0.76928954813E+02  0.12032641153E+03  0.00000000000E+00 0. -1.
          1    1    5    5  503    0  0.29609859548E+03 -0.16495441082E+03  0.12444413424E+04  0.12897746278E+04  0.00000000000E+00 0. -1.
         -2    1    5    5    0  503  0.42846804785E+02  0.68338992495E+01  0.17185271973E+03  0.17724533319E+03  0.00000000000E+00 0.  1.
         -3    1    6    6    0  502 -0.43192240678E+02  0.23732741813E+03  0.12617452550E+03  0.27223130594E+03  0.00000000000E+00 0.  1.
<mgrwt>
<rscale>  0 0.13945145E+04</rscale>
<asrwt>0</asrwt>
<pdfrwt beam="1">  1        2 0.29320344E+00 0.13945145E+04</pdfrwt>
<pdfrwt beam="2">  1       -2 0.39245541E-01 0.13945145E+04</pdfrwt>
<totfact> 0.45065688E+01</totfact>
</mgrwt>
</event>
<event>
12    1  0.1549527E-007  0.2303951E+04  0.7818608E-02  0.8476365E-01
         -2   -1    0    0    0  501 -0.00000000000E+00  0.00000000000E+00  0.18798163673E+04  0.18798163673E+04  0.00000000000E+00 0.  1.
          2   -1    0    0  501    0  0.00000000000E+00 -0.00000000000E+00 -0.70594529165E+03  0.70594529165E+03  0.00000000000E+00 0. -1.
         23    2    1    2    0    0  0.36243574996E+03 -0.71362326576E+03  0.11176145776E+04  0.13776122698E+04  0.90196361340E+02 0.  0.
        254    2    1    2    0    0 -0.36243574996E+03  0.71362326576E+03  0.56256498125E+02  0.12081493892E+04  0.90323989879E+03 0.  0.
        -24    2    4    4    0    0 -0.27234666019E+03 -0.13484789322E+03  0.14578632884E+03  0.34614571267E+03  0.78781616521E+02 0.  0.
         24    2    4    4    0    0 -0.90089089769E+02  0.84847115898E+03 -0.89529830711E+02  0.86200367653E+03  0.83757961089E+02 0.  0.
         13    1    3    3    0    0  0.23951086352E+02 -0.28226834384E+02  0.27177235111E+02  0.45923967872E+02  0.00000000000E+00 0. -1.
        -13    1    3    3    0    0  0.33848466361E+03 -0.68539643138E+03  0.10904373424E+04  0.13316883019E+04  0.00000000000E+00 0.  1.
          2    1    6    6  502    0  0.12301026520E+02  0.29365996758E+02 -0.45346939911E+01  0.32159609273E+02  0.00000000000E+00 0. -1.
          3    1    5    5  503    0 -0.58546841084E+02 -0.14067691298E+02  0.62656357053E+02  0.86899088710E+02  0.00000000000E+00 0. -1.
         -2    1    5    5    0  503 -0.21379981911E+03 -0.12078020192E+03  0.83129971783E+02  0.25924662396E+03  0.00000000000E+00 0.  1.
         -1    1    6    6    0  502 -0.10239011629E+03  0.81910516223E+03 -0.84995136720E+02  0.82984406726E+03  0.00000000000E+00 0.  1.
<mgrwt>
<rscale>  0 0.23039510E+04</rscale>
<asrwt>0</asrwt>
<pdfrwt beam="1">  1        2 0.10860697E+00 0.23039510E+04</pdfrwt>
<pdfrwt beam="2">  1       -2 0.28920252E+00 0.23039510E+04</pdfrwt>
<totfact> 0.13597253E+00</totfact>
</mgrwt>
</event>
<event>
12    1  0.1549527E-007  0.2209660E+04  0.7818608E-02  0.8514418E-01
          2   -1    0    0  501    0  0.00000000000E+00  0.00000000000E+00  0.30444732697E+04  0.30444732697E+04  0.00000000000E+00 0.  1.
         -2   -1    0    0    0  501 -0.00000000000E+00 -0.00000000000E+00 -0.40093941040E+03  0.40093941040E+03  0.00000000000E+00 0. -1.
         23    2    1    2    0    0  0.45341807856E+03 -0.22382321632E+02 -0.12953491612E+03  0.48206855177E+03  0.97580079052E+02 0.  0.
        254    2    1    2    0    0 -0.45341807856E+03  0.22382321632E+02  0.27730687754E+04  0.29633441283E+04  0.94096177782E+03 0.  0.
        -24    2    4    4    0    0  0.24512783996E+03 -0.17603552896E+03  0.74523788919E+03  0.80796552372E+03  0.79703266331E+02 0.  0.
         24    2    4    4    0    0 -0.69854591851E+03  0.19841785060E+03  0.20278308862E+04  0.21553786046E+04  0.78884613651E+02 0.  0.
         11    1    3    3    0    0  0.90872278136E+02  0.16128632935E+02 -0.62256905167E+02  0.11132756161E+03  0.00000000000E+00 0.  1.
        -11    1    3    3    0    0  0.36254580042E+03 -0.38510954566E+02 -0.67278010957E+02  0.37074099016E+03  0.00000000000E+00 0. -1.
          4    1    6    6  502    0 -0.28605314362E+03  0.98934093647E+02  0.94906484427E+03  0.99616185155E+03  0.00000000000E+00 0. -1.
          3    1    5    5  503    0  0.12627973708E+03 -0.52809739879E+02  0.26763970742E+03  0.30061013557E+03  0.00000000000E+00 0. -1.
         -4    1    5    5    0  503  0.11884810287E+03 -0.12322578909E+03  0.47759818177E+03  0.50735538815E+03  0.00000000000E+00 0.  1.
         -3    1    6    6    0  502 -0.41249277490E+03  0.99483756949E+02  0.10787660420E+04  0.11592167531E+04  0.00000000000E+00 0.  1.
<mgrwt>
<rscale>  0 0.22096600E+04</rscale>
<asrwt>0</asrwt>
<pdfrwt beam="1">  1        2 0.46838049E+00 0.22096600E+04</pdfrwt>
<pdfrwt beam="2">  1       -2 0.61682988E-01 0.22096600E+04</pdfrwt>
<totfact> 0.36458642E+00</totfact>
</mgrwt>
</event>
<event>
12    1  0.1549527E-007  0.1978621E+04  0.7818608E-02  0.8616682E-01
         -1   -1    0    0    0  501 -0.00000000000E+00  0.00000000000E+00  0.38317964064E+03  0.38317964064E+03  0.00000000000E+00 0.  1.
          1   -1    0    0  501    0  0.00000000000E+00 -0.00000000000E+00 -0.25542473854E+04  0.25542473854E+04  0.00000000000E+00 0. -1.
         23    2    1    2    0    0 -0.69129272796E+03 -0.33846920712E+03 -0.65423804623E+03  0.10150325113E+04  0.99078443099E+02 0.  0.
        254    2    1    2    0    0  0.69129272796E+03  0.33846920712E+03 -0.15168296985E+04  0.19223945148E+04  0.89575738690E+03 0.  0.
        -24    2    4    4    0    0  0.59346440934E+03  0.44099018266E+03 -0.50721362786E+03  0.90017364395E+03  0.79840958285E+02 0.  0.
         24    2    4    4    0    0  0.97828318624E+02 -0.10252097554E+03 -0.10096160707E+04  0.10222208708E+04  0.74363756221E+02 0.  0.
         13    1    3    3    0    0 -0.14771126350E+03 -0.11780864636E+03 -0.14461812750E+03  0.23793254784E+03  0.00000000000E+00 0. -1.
        -13    1    3    3    0    0 -0.54358146446E+03 -0.22066056076E+03 -0.50961991873E+03  0.77709996342E+03  0.00000000000E+00 0.  1.
          4    1    6    6  502    0  0.78716212567E+02 -0.33284114144E+02 -0.45319096493E+03  0.46117905966E+03  0.00000000000E+00 0. -1.
          1    1    5    5  503    0  0.15063032722E+03  0.13251946851E+03 -0.10044957727E+03  0.22436805162E+03  0.00000000000E+00 0. -1.
         -2    1    5    5    0  503  0.44283408212E+03  0.30847071415E+03 -0.40676405059E+03  0.67580559233E+03  0.00000000000E+00 0.  1.
         -3    1    6    6    0  502  0.19112106057E+02 -0.69236861397E+02 -0.55642510573E+03  0.56104181116E+03  0.00000000000E+00 0.  1.
<mgrwt>
<rscale>  0 0.19786213E+04</rscale>
<asrwt>0</asrwt>
<pdfrwt beam="1">  1        1 0.39296114E+00 0.19786213E+04</pdfrwt>
<pdfrwt beam="2">  1       -1 0.58950714E-01 0.19786213E+04</pdfrwt>
<totfact> 0.33686069E+00</totfact>
</mgrwt>
</event>
<event>
12    1  0.1549527E-007  0.4369623E+04  0.7818608E-02  0.7933868E-01
          2   -1    0    0  501    0  0.00000000000E+00  0.00000000000E+00  0.29555792165E+04  0.29555792165E+04  0.00000000000E+00 0. -1.
         -2   -1    0    0    0  501 -0.00000000000E+00 -0.00000000000E+00 -0.16150479490E+04  0.16150479490E+04  0.00000000000E+00 0.  1.
         23    2    1    2    0    0  0.89047242584E+02 -0.14654562865E+04 -0.91498019036E+03  0.17322535577E+04  0.89566179709E+02 0.  0.
        254    2    1    2    0    0 -0.89047242584E+02  0.14654562865E+04  0.22555114579E+04  0.28383736078E+04  0.90196522210E+03 0.  0.
        -24    2    4    4    0    0  0.98633446292E+02  0.14956482694E+04  0.20960233805E+04  0.25780931510E+04  0.80981360889E+02 0.  0.
         24    2    4    4    0    0 -0.18768068888E+03 -0.30191982946E+02  0.15948807734E+03  0.26028045683E+03  0.78573994305E+02 0.  0.
         11    1    3    3    0    0 -0.48245240417E+01 -0.38190074083E+02 -0.39948712450E+02  0.55476638481E+02  0.00000000000E+00 0. -1.
        -11    1    3    3    0    0  0.93871766625E+02 -0.14272662124E+04 -0.87503147791E+03  0.16767769192E+04  0.00000000000E+00 0.  1.
          4    1    6    6  502    0 -0.16117628577E+03  0.54514836333E+01  0.12588976568E+03  0.20458677100E+03  0.00000000000E+00 0. -1.
          3    1    5    5  503    0  0.77698892895E+02  0.87112972558E+03  0.12813109932E+04  0.15513419926E+04  0.00000000000E+00 0. -1.
         -4    1    5    5    0  503  0.20934553397E+02  0.62451854384E+03  0.81471238737E+03  0.10267511584E+04  0.00000000000E+00 0.  1.
         -3    1    6    6    0  502 -0.26504403109E+02 -0.35643466579E+02  0.33598311662E+02  0.55693685823E+02  0.00000000000E+00 0.  1.
<mgrwt>
<rscale>  0 0.43696234E+04</rscale>
<asrwt>0</asrwt>
<pdfrwt beam="1">  1        2 0.45470449E+00 0.43696234E+04</pdfrwt>
<pdfrwt beam="2">  1       -2 0.24846892E+00 0.43696234E+04</pdfrwt>
<totfact> 0.93290427E-02</totfact>
</mgrwt>
</event>
<event>
12    1  0.1549527E-007  0.1183036E+04  0.7818608E-02  0.9127836E-01
          1   -1    0    0  501    0  0.00000000000E+00  0.00000000000E+00  0.71889417017E+03  0.71889417017E+03  0.00000000000E+00 0. -1.
         -1   -1    0    0    0  501 -0.00000000000E+00 -0.00000000000E+00 -0.48671050333E+03  0.48671050333E+03  0.00000000000E+00 0.  1.
         23    2    1    2    0    0  0.10360433512E+03 -0.16612170456E+03 -0.50113421969E+02  0.22124571183E+03  0.90044605376E+02 0.  0.
        254    2    1    2    0    0 -0.10360433512E+03  0.16612170456E+03  0.28229708881E+03  0.98435896168E+03  0.92246443840E+03 0.  0.
        -24    2    4    4    0    0 -0.21171285015E+03 -0.13600896379E+03 -0.24639817104E+03  0.35972284979E+03  0.73264594533E+02 0.  0.
         24    2    4    4    0    0  0.10810851503E+03  0.30213066835E+03  0.52869525986E+03  0.62463611189E+03  0.87642470900E+02 0.  0.
         11    1    3    3    0    0  0.34830895726E+01 -0.10480390130E+02  0.20404932121E+02  0.23201977181E+02  0.00000000000E+00 0.  1.
        -11    1    3    3    0    0  0.10012124555E+03 -0.15564131443E+03 -0.70518354091E+02  0.19804373464E+03  0.00000000000E+00 0. -1.
          2    1    6    6  502    0  0.23383018923E+02  0.21883680439E+02  0.20156542958E+02  0.37841079101E+02  0.00000000000E+00 0. -1.
          3    1    5    5  503    0 -0.93235852003E+02 -0.47565835393E+02 -0.56143564320E+02  0.11877513465E+03  0.00000000000E+00 0. -1.
         -2    1    5    5    0  503 -0.11847699815E+03 -0.88443128398E+02 -0.19025460672E+03  0.24094771514E+03  0.00000000000E+00 0.  1.
         -1    1    6    6    0  502  0.84725496110E+02  0.28024698791E+03  0.50853871690E+03  0.58679503279E+03  0.00000000000E+00 0.  1.
<mgrwt>
<rscale>  0 0.11830357E+04</rscale>
<asrwt>0</asrwt>
<pdfrwt beam="1">  1        1 0.11059910E+00 0.11830357E+04</pdfrwt>
<pdfrwt beam="2">  1       -1 0.74878539E-01 0.11830357E+04</pdfrwt>
<totfact> 0.46515891E+01</totfact>
</mgrwt>
</event>
<event>
12    1  0.1549527E-007  0.1238790E+04  0.7818608E-02  0.9079565E-01
         -2   -1    0    0    0  501 -0.00000000000E+00  0.00000000000E+00  0.17596506177E+03  0.17596506177E+03  0.00000000000E+00 0.  1.
          2   -1    0    0  501    0  0.00000000000E+00 -0.00000000000E+00 -0.21802639651E+04  0.21802639651E+04  0.00000000000E+00 0. -1.
         23    2    1    2    0    0  0.26025525928E+02  0.22229452637E+03 -0.18321334838E+03  0.30378956299E+03  0.92891243395E+02 0.  0.
        254    2    1    2    0    0 -0.26025525928E+02 -0.22229452637E+03 -0.18210855550E+04  0.20524394639E+04  0.91981681330E+03 0.  0.
        -24    2    4    4    0    0 -0.17326451678E+03 -0.29334059932E+03 -0.18368255952E+04  0.18698679282E+04  0.80053118848E+02 0.  0.
         24    2    4    4    0    0  0.14723899085E+03  0.71046072949E+02  0.15740040205E+02  0.18257153571E+03  0.79735512024E+02 0.  0.
         11    1    3    3    0    0  0.47958654140E+02  0.15688133315E+03 -0.87861034768E+02  0.18609499356E+03  0.00000000000E+00 0.  1.
        -11    1    3    3    0    0 -0.21933128211E+02  0.65413193223E+02 -0.95352313617E+02  0.11769456943E+03  0.00000000000E+00 0. -1.
          2    1    6    6  502    0  0.33890721232E+01  0.29724431693E+02 -0.81556367934E+01  0.31008741684E+02  0.00000000000E+00 0. -1.
          1    1    5    5  503    0 -0.31210933953E+02 -0.11447473248E+03 -0.51866120739E+03  0.53206017970E+03  0.00000000000E+00 0. -1.
         -2    1    5    5    0  503 -0.14205358282E+03 -0.17886586684E+03 -0.13181643878E+04  0.13378077485E+04  0.00000000000E+00 0.  1.
         -1    1    6    6    0  502  0.14384991872E+03  0.41321641257E+02  0.23895676999E+02  0.15156279402E+03  0.00000000000E+00 0.  1.
<mgrwt>
<rscale>  0 0.12387902E+04</rscale>
<asrwt>0</asrwt>
<pdfrwt beam="1">  1        2 0.33542522E+00 0.12387902E+04</pdfrwt>
<pdfrwt beam="2">  1       -2 0.27071548E-01 0.12387902E+04</pdfrwt>
<totfact> 0.64835050E+01</totfact>
</mgrwt>
</event>
<event>
12    1  0.1549527E-007  0.1337816E+04  0.7818608E-02  0.9000103E-01
          2   -1    0    0  501    0  0.00000000000E+00  0.00000000000E+00  0.12132098678E+04  0.12132098678E+04  0.00000000000E+00 0. -1.
         -2   -1    0    0    0  501 -0.00000000000E+00 -0.00000000000E+00 -0.36880490915E+03  0.36880490915E+03  0.00000000000E+00 0.  1.
         23    2    1    2    0    0  0.31003616444E+03  0.17227327045E+03  0.28616912002E+03  0.46479997912E+03  0.91355089429E+02 0.  0.
        254    2    1    2    0    0 -0.31003616444E+03 -0.17227327045E+03  0.55823583862E+03  0.11172147978E+04  0.90041165585E+03 0.  0.
        -24    2    4    4    0    0 -0.23002995892E+02 -0.96644541003E+02  0.74626368033E+03  0.75699338260E+03  0.79121397837E+02 0.  0.
         24    2    4    4    0    0 -0.28703316854E+03 -0.75628729443E+02 -0.18802784171E+03  0.36022141522E+03  0.79355240304E+02 0.  0.
         13    1    3    3    0    0  0.29875821936E+03  0.13773105130E+03  0.24707909200E+03  0.41142969488E+03  0.00000000000E+00 0. -1.
        -13    1    3    3    0    0  0.11277945077E+02  0.34542219144E+02  0.39090028022E+02  0.53370284235E+02  0.00000000000E+00 0.  1.
          2    1    6    6  502    0 -0.27722164781E+03 -0.88544047874E+02 -0.17890946110E+03  0.34161452794E+03  0.00000000000E+00 0. -1.
          1    1    5    5  503    0 -0.57928133512E+01 -0.10683875904E+03  0.62667074153E+03  0.63573917247E+03  0.00000000000E+00 0. -1.
         -2    1    5    5    0  503 -0.17210182541E+02  0.10194218033E+02  0.11959293880E+03  0.12125421013E+03  0.00000000000E+00 0.  1.
         -1    1    6    6    0  502 -0.98115207297E+01  0.12915318431E+02 -0.91183806131E+01  0.18606887279E+02  0.00000000000E+00 0.  1.
<mgrwt>
<rscale>  0 0.13378158E+04</rscale>
<asrwt>0</asrwt>
<pdfrwt beam="1">  1        2 0.18664767E+00 0.13378158E+04</pdfrwt>
<pdfrwt beam="2">  1       -2 0.56739217E-01 0.13378158E+04</pdfrwt>
<totfact> 0.52969155E+01</totfact>
</mgrwt>
</event>
<event>
12    1  0.1549527E-007  0.1659128E+04  0.7818608E-02  0.8785025E-01
         -2   -1    0    0    0  501 -0.00000000000E+00  0.00000000000E+00  0.83151754471E+03  0.83151754471E+03  0.00000000000E+00 0.  1.
          2   -1    0    0  501    0  0.00000000000E+00 -0.00000000000E+00 -0.82761492803E+03  0.82761492803E+03  0.00000000000E+00 0. -1.
         23    2    1    2    0    0  0.69927557194E+02  0.26077057583E+03 -0.51206565750E+03  0.58605228341E+03  0.91405059107E+02 0.  0.
        254    2    1    2    0    0 -0.69927557194E+02 -0.26077057583E+03  0.51596827418E+03  0.10730801893E+04  0.90132495600E+03 0.  0.
        -24    2    4    4    0    0 -0.13314053527E+03  0.27880168942E+03 -0.72712108646E+00  0.31910236100E+03  0.79806039484E+02 0.  0.
         24    2    4    4    0    0  0.63212978077E+02 -0.53957226524E+03  0.51669539526E+03  0.75397782833E+03  0.79839364413E+02 0.  0.
         11    1    3    3    0    0  0.18673148065E+02  0.13182085162E+01 -0.19834950714E+02  0.27273602662E+02  0.00000000000E+00 0.  1.
        -11    1    3    3    0    0  0.51254409129E+02  0.25945236731E+03 -0.49223070678E+03  0.55877868075E+03  0.00000000000E+00 0. -1.
          4    1    6    6  502    0  0.27959057660E+02 -0.26406720147E+03  0.30731483828E+03  0.40614727086E+03  0.00000000000E+00 0. -1.
          3    1    5    5  503    0 -0.47465424989E+02  0.57351042475E+02 -0.29175464923E+02  0.79958216562E+02  0.00000000000E+00 0. -1.
         -4    1    5    5    0  503 -0.85675110282E+02  0.22145064694E+03  0.28448343837E+02  0.23914414444E+03  0.00000000000E+00 0.  1.
         -3    1    6    6    0  502  0.35253920417E+02 -0.27550506377E+03  0.20938055698E+03  0.34783055747E+03  0.00000000000E+00 0.  1.
<mgrwt>
<rscale>  0 0.16591279E+04</rscale>
<asrwt>0</asrwt>
<pdfrwt beam="1">  1        2 0.12732537E+00 0.16591279E+04</pdfrwt>
<pdfrwt beam="2">  1       -2 0.12792578E+00 0.16591279E+04</pdfrwt>
<totfact> 0.14209241E+01</totfact>
</mgrwt>
</event>
<event>
12    1  0.1549527E-007  0.2223469E+04  0.7818608E-02  0.8508723E-01
          1   -1    0    0  501    0  0.00000000000E+00  0.00000000000E+00  0.13046606058E+04  0.13046606058E+04  0.00000000000E+00 0. -1.
         -1   -1    0    0    0  501 -0.00000000000E+00 -0.00000000000E+00 -0.94733753297E+03  0.94733753297E+03  0.00000000000E+00 0.  1.
         23    2    1    2    0    0 -0.68251702009E+02 -0.82774449248E+03  0.56046111265E+03  0.10059870078E+04  0.89855225153E+02 0.  0.
        254    2    1    2    0    0  0.68251702009E+02  0.82774449248E+03 -0.20313803983E+03  0.12460111309E+04  0.90634399400E+03 0.  0.
        -24    2    4    4    0    0  0.27603706872E+03  0.12042380311E+03 -0.37213584545E+03  0.48558980614E+03  0.81326605050E+02 0.  0.
         24    2    4    4    0    0 -0.20778536671E+03  0.70732068937E+03  0.16899780562E+03  0.76042132478E+03  0.78759232046E+02 0.  0.
         11    1    3    3    0    0 -0.33380739857E+01 -0.45124820045E+02  0.83264834070E+01  0.46007852025E+02  0.00000000000E+00 0.  1.
        -11    1    3    3    0    0 -0.64913628024E+02 -0.78261967244E+03  0.55213462925E+03  0.95997915582E+03  0.00000000000E+00 0. -1.
          2    1    6    6  502    0 -0.14975504778E+03  0.49221876811E+03  0.80777444970E+02  0.52079831570E+03  0.00000000000E+00 0. -1.
          3    1    5    5  503    0  0.21803391730E+03  0.56121555448E+02 -0.27664510615E+03  0.35668043518E+03  0.00000000000E+00 0. -1.
         -2    1    5    5    0  503  0.58003151417E+02  0.64302247662E+02 -0.95490739298E+02  0.12890937096E+03  0.00000000000E+00 0.  1.
         -3    1    6    6    0  502 -0.58030318927E+02  0.21510192126E+03  0.88220360654E+02  0.23962300908E+03  0.00000000000E+00 0.  1.
<mgrwt>
<rscale>  0 0.22234693E+04</rscale>
<asrwt>0</asrwt>
<pdfrwt beam="1">  1        1 0.20071702E+00 0.22234693E+04</pdfrwt>
<pdfrwt beam="2">  1       -1 0.14574424E+00 0.22234693E+04</pdfrwt>
<totfact> 0.30785486E+00</totfact>
</mgrwt>
</event>
<event>
12    1  0.1549527E-007  0.2048306E+04  0.7818608E-02  0.8584363E-01
         -2   -1    0    0    0  501 -0.00000000000E+00  0.00000000000E+00  0.83043840196E+03  0.83043840196E+03  0.00000000000E+00 0.  1.
          2   -1    0    0  501    0  0.00000000000E+00 -0.00000000000E+00 -0.12630548622E+04  0.12630548622E+04  0.00000000000E+00 0. -1.
         23    2    1    2    0    0  0.63220092578E+03  0.51168386561E+03 -0.30555702852E+03  0.87403375347E+03  0.95244504598E+02 0.  0.
        254    2    1    2    0    0 -0.63220092578E+03 -0.51168386561E+03 -0.12705943167E+03  0.12194595106E+04  0.89968828492E+03 0.  0.
        -24    2    4    4    0    0 -0.39861354354E+03 -0.65262480602E+03 -0.36285945226E+03  0.85010854583E+03  0.78776031064E+02 0.  0.
         24    2    4    4    0    0 -0.23358738223E+03  0.14094094041E+03  0.23580002059E+03  0.36935096481E+03  0.79944178480E+02 0.  0.
         11    1    3    3    0    0  0.81107217119E+02  0.51708836057E+02 -0.65284956809E+01  0.96409572403E+02  0.00000000000E+00 0. -1.
        -11    1    3    3    0    0  0.55109370866E+03  0.45997502955E+03 -0.29902853284E+03  0.77762418107E+03  0.00000000000E+00 0.  1.
          4    1    6    6  502    0 -0.13539213617E+03  0.12545524772E+03  0.16122908370E+03  0.24508134802E+03  0.00000000000E+00 0. -1.
          1    1    5    5  503    0 -0.36632302283E+03 -0.62190903984E+03 -0.32475274568E+03  0.79147189256E+03  0.00000000000E+00 0. -1.
         -2    1    5    5    0  503 -0.32290520714E+02 -0.30715766177E+02 -0.38106706579E+02  0.58636653265E+02  0.00000000000E+00 0.  1.
         -3    1    6    6    0  502 -0.98195246067E+02  0.15485692689E+02  0.74570936890E+02  0.12426961679E+03  0.00000000000E+00 0.  1.
<mgrwt>
<rscale>  0 0.20483059E+04</rscale>
<asrwt>0</asrwt>
<pdfrwt beam="1">  1        2 0.19431613E+00 0.20483059E+04</pdfrwt>
<pdfrwt beam="2">  1       -2 0.12775975E+00 0.20483059E+04</pdfrwt>
<totfact> 0.72992119E+00</totfact>
</mgrwt>
</event>
<event>
12    1  0.1549527E-007  0.1946198E+04  0.7818608E-02  0.8632197E-01
          2   -1    0    0  501    0  0.00000000000E+00  0.00000000000E+00  0.32074162815E+04  0.32074162815E+04  0.00000000000E+00 0. -1.
         -2   -1    0    0    0  501 -0.00000000000E+00 -0.00000000000E+00 -0.29522868877E+03  0.29522868877E+03  0.00000000000E+00 0.  1.
         23    2    1    2    0    0  0.26885562884E+03 -0.99828220927E+02 -0.12171085971E+03  0.32424638279E+03  0.89850768070E+02 0.  0.
        254    2    1    2    0    0 -0.26885562884E+03  0.99828220927E+02  0.30338984525E+04  0.31783985875E+04  0.90301092927E+03 0.  0.
        -24    2    4    4    0    0 -0.51409181723E+03  0.15994393261E+03  0.26874562203E+04  0.27420395256E+04  0.80544184328E+02 0.  0.
         24    2    4    4    0    0  0.24523618839E+03 -0.60115711679E+02  0.34644223219E+03  0.43635906197E+03  0.81439080499E+02 0.  0.
         13    1    3    3    0    0 -0.23984043335E+00  0.76728037426E+01  0.36720430509E+01  0.85096028623E+01  0.00000000000E+00 0. -1.
        -13    1    3    3    0    0  0.26909546928E+03 -0.10750102467E+03 -0.12538290277E+03  0.31573677992E+03  0.00000000000E+00 0.  1.
          4    1    6    6  502    0  0.14455916019E+03  0.62739204918E+01  0.19119070019E+03  0.23977196815E+03  0.00000000000E+00 0. -1.
          1    1    5    5  503    0 -0.15949612454E+03  0.17701823989E+02  0.69541876323E+03  0.71369434954E+03  0.00000000000E+00 0. -1.
         -2    1    5    5    0  503 -0.35459569268E+03  0.14224210862E+03  0.19920374571E+04  0.20283451760E+04  0.00000000000E+00 0.  1.
         -3    1    6    6    0  502  0.10067702819E+03 -0.66389632171E+02  0.15525153200E+03  0.19658709381E+03  0.00000000000E+00 0.  1.
<mgrwt>
<rscale>  0 0.19461976E+04</rscale>
<asrwt>0</asrwt>
<pdfrwt beam="1">  1        2 0.49344863E+00 0.19461976E+04</pdfrwt>
<pdfrwt beam="2">  1       -2 0.45419801E-01 0.19461976E+04</pdfrwt>
<totfact> 0.55226020E+00</totfact>
</mgrwt>
</event>
<event>
12    1  0.1549527E-007  0.2213334E+04  0.7818608E-02  0.8512898E-01
         -1   -1    0    0    0  501 -0.00000000000E+00  0.00000000000E+00  0.44077694784E+03  0.44077694784E+03  0.00000000000E+00 0.  1.
          1   -1    0    0  501    0  0.00000000000E+00 -0.00000000000E+00 -0.27785309166E+04  0.27785309166E+04  0.00000000000E+00 0. -1.
         23    2    1    2    0    0  0.18936881611E+03  0.43937504149E+03 -0.21619929828E+04  0.22161859714E+04  0.91409114917E+02 0.  0.
        254    2    1    2    0    0 -0.18936881611E+03 -0.43937504149E+03 -0.17576098596E+03  0.10031218931E+04  0.86397374533E+03 0.  0.
        -24    2    4    4    0    0  0.16983708676E+03 -0.27036347610E+03  0.25074878429E+03  0.41404556050E+03  0.81349419782E+02 0.  0.
         24    2    4    4    0    0 -0.35920590287E+03 -0.16901156539E+03 -0.42650977025E+03  0.58907633259E+03  0.86640357837E+02 0.  0.
         11    1    3    3    0    0  0.18081409091E+03  0.39345420741E+03 -0.20423378829E+04  0.20877365678E+04  0.00000000000E+00 0. -1.
        -11    1    3    3    0    0  0.85547251955E+01  0.45920834083E+02 -0.11965509994E+03  0.12844940353E+03  0.00000000000E+00 0.  1.
          4    1    6    6  502    0 -0.13015705024E+03 -0.20892089905E+02 -0.11410569007E+03  0.17434863250E+03  0.00000000000E+00 0. -1.
          1    1    5    5  503    0  0.15800034633E+03 -0.23696248421E+03  0.18578739420E+03  0.34004747346E+03  0.00000000000E+00 0. -1.
         -2    1    5    5    0  503  0.11836740437E+02 -0.33400991892E+02  0.64961390094E+02  0.73998087046E+02  0.00000000000E+00 0.  1.
         -3    1    6    6    0  502 -0.22904885263E+03 -0.14811947549E+03 -0.31240408018E+03  0.41472770009E+03  0.00000000000E+00 0.  1.
<mgrwt>
<rscale>  0 0.22133345E+04</rscale>
<asrwt>0</asrwt>
<pdfrwt beam="1">  1        1 0.42746629E+00 0.22133345E+04</pdfrwt>
<pdfrwt beam="2">  1       -1 0.67811839E-01 0.22133345E+04</pdfrwt>
<totfact> 0.17317553E+00</totfact>
</mgrwt>
</event>
<event>
12    1  0.1549527E-007  0.2336614E+04  0.7818608E-02  0.8463623E-01
          1   -1    0    0  501    0  0.00000000000E+00  0.00000000000E+00  0.35614726802E+04  0.35614726802E+04  0.00000000000E+00 0. -1.
         -1   -1    0    0    0  501 -0.00000000000E+00 -0.00000000000E+00 -0.38325180710E+03  0.38325180710E+03  0.00000000000E+00 0.  1.
         23    2    1    2    0    0  0.45557555692E+03  0.11939241610E+03  0.28201828590E+04  0.28607461907E+04  0.92918095309E+02 0.  0.
        254    2    1    2    0    0 -0.45557555692E+03 -0.11939241610E+03  0.35803801409E+03  0.10839782966E+04  0.90830286295E+03 0.  0.
        -24    2    4    4    0    0  0.15436568730E+03 -0.88372620248E+00 -0.18765258288E+03  0.25304350464E+03  0.70625611441E+02 0.  0.
         24    2    4    4    0    0 -0.60994124423E+03 -0.11850868990E+03  0.54569059697E+03  0.83093479194E+03  0.81251275901E+02 0.  0.
         11    1    3    3    0    0  0.29908370054E+03  0.77094226000E+02  0.15695157879E+04  0.15996169504E+04  0.00000000000E+00 0.  1.
        -11    1    3    3    0    0  0.15649185638E+03  0.42298190099E+02  0.12506670711E+04  0.12611292403E+04  0.00000000000E+00 0. -1.
          4    1    6    6  502    0 -0.85712588344E+02 -0.25777071978E+02  0.11766540789E+03  0.14783860610E+03  0.00000000000E+00 0. -1.
          1    1    5    5  503    0  0.10676535182E+02 -0.16512071788E+02 -0.48818311679E+02  0.52629501930E+02  0.00000000000E+00 0. -1.
         -2    1    5    5    0  503  0.14368915212E+03  0.15628345585E+02 -0.13883427120E+03  0.20041400271E+03  0.00000000000E+00 0.  1.
         -1    1    6    6    0  502 -0.52422865588E+03 -0.92731617918E+02  0.42802518908E+03  0.68309618583E+03  0.00000000000E+00 0.  1.
<mgrwt>
<rscale>  0 0.23366137E+04</rscale>
<asrwt>0</asrwt>
<pdfrwt beam="1">  1        1 0.54791885E+00 0.23366137E+04</pdfrwt>
<pdfrwt beam="2">  1       -1 0.58961819E-01 0.23366137E+04</pdfrwt>
<totfact> 0.58792897E-01</totfact>
</mgrwt>
</event>
<event>
12    1  0.1549527E-007  0.2339872E+04  0.7818608E-02  0.8462364E-01
          1   -1    0    0  501    0  0.00000000000E+00  0.00000000000E+00  0.35674177882E+04  0.35674177882E+04  0.00000000000E+00 0. -1.
         -1   -1    0    0    0  501 -0.00000000000E+00 -0.00000000000E+00 -0.38368106873E+03  0.38368106873E+03  0.00000000000E+00 0.  1.
         23    2    1    2    0    0 -0.55009860358E+03 -0.22932620046E+03  0.18629431566E+02  0.60304274356E+03  0.90080602588E+02 0.  0.
        254    2    1    2    0    0  0.55009860358E+03  0.22932620046E+03  0.31651072879E+04  0.33480561134E+04  0.91453628389E+03 0.  0.
        -24    2    4    4    0    0 -0.65465013452E+02 -0.27253436915E+03  0.73196030690E+03  0.78740145174E+03  0.75329310177E+02 0.  0.
         24    2    4    4    0    0  0.61556361703E+03  0.50186056961E+03  0.24331469810E+04  0.25606546617E+04  0.77236436232E+02 0.  0.
         11    1    3    3    0    0 -0.45803057536E+03 -0.20951567477E+03 -0.12575337180E+02  0.50383227869E+03  0.00000000000E+00 0.  1.
        -11    1    3    3    0    0 -0.92068028211E+02 -0.19810525689E+02  0.31204768747E+02  0.99210464868E+02  0.00000000000E+00 0. -1.
          4    1    6    6  502    0  0.60877295597E+03  0.48960205190E+03  0.24113336795E+04  0.25347277557E+04  0.00000000000E+00 0. -1.
          3    1    5    5  503    0 -0.74257808275E+02 -0.18634554247E+03  0.56012651314E+03  0.59496268287E+03  0.00000000000E+00 0. -1.
         -4    1    5    5    0  503  0.87927948230E+01 -0.86188826684E+02  0.17183379375E+03  0.19243876886E+03  0.00000000000E+00 0.  1.
         -3    1    6    6    0  502  0.67906610566E+01  0.12258517711E+02  0.21813301495E+02  0.25926906028E+02  0.00000000000E+00 0.  1.
<mgrwt>
<rscale>  0 0.23398724E+04</rscale>
<asrwt>0</asrwt>
<pdfrwt beam="1">  1        1 0.54883348E+00 0.23398724E+04</pdfrwt>
<pdfrwt beam="2">  1       -1 0.59027859E-01 0.23398724E+04</pdfrwt>
<totfact> 0.58008978E-01</totfact>
</mgrwt>
</event>
<event>
12    1  0.1549527E-007  0.2715561E+04  0.7818608E-02  0.8329974E-01
         -1   -1    0    0    0  501 -0.00000000000E+00  0.00000000000E+00  0.20521882431E+04  0.20521882431E+04  0.00000000000E+00 0.  1.
          1   -1    0    0  501    0  0.00000000000E+00 -0.00000000000E+00 -0.89834253948E+03  0.89834253948E+03  0.00000000000E+00 0. -1.
         23    2    1    2    0    0  0.93836467456E+03 -0.71445891243E+03  0.80162789021E+03  0.14289754413E+04  0.91562752025E+02 0.  0.
        254    2    1    2    0    0 -0.93836467456E+03  0.71445891243E+03  0.35221781342E+03  0.15215553413E+04  0.89447943992E+03 0.  0.
        -24    2    4    4    0    0 -0.10060743446E+04  0.76955747314E+03  0.47185506226E+03  0.13540487244E+04  0.79977852583E+02 0.  0.
         24    2    4    4    0    0  0.67709670005E+02 -0.55098560713E+02 -0.11963724883E+03  0.16750661691E+03  0.78262025256E+02 0.  0.
         11    1    3    3    0    0  0.48846847275E+03 -0.38913451390E+03  0.47690765685E+03  0.78579134122E+03  0.00000000000E+00 0. -1.
        -11    1    3    3    0    0  0.44989620181E+03 -0.32532439853E+03  0.32472023337E+03  0.64318410011E+03  0.00000000000E+00 0.  1.
          2    1    6    6  502    0  0.58014341359E+02 -0.45132260805E+02 -0.13055795565E+03  0.14982644811E+03  0.00000000000E+00 0. -1.
          3    1    5    5  503    0 -0.85944903064E+03  0.67815316458E+03  0.43053156538E+03  0.11763935480E+04  0.00000000000E+00 0. -1.
         -4    1    5    5    0  503 -0.14662531392E+03  0.91404308558E+02  0.41323496878E+02  0.17765517639E+03  0.00000000000E+00 0.  1.
         -1    1    6    6    0  502  0.96953286458E+01 -0.99662999086E+01  0.10920706823E+02  0.17680168804E+02  0.00000000000E+00 0.  1.
<mgrwt>
<rscale>  0 0.27155611E+04</rscale>
<asrwt>0</asrwt>
<pdfrwt beam="1">  1        1 0.13820654E+00 0.27155611E+04</pdfrwt>
<pdfrwt beam="2">  1       -1 0.31572127E+00 0.27155611E+04</pdfrwt>
<totfact> 0.41541841E-01</totfact>
</mgrwt>
</event>
<event>
12    1  0.1549527E-007  0.1359557E+04  0.7818608E-02  0.8983625E-01
         -2   -1    0    0    0  501 -0.00000000000E+00  0.00000000000E+00  0.30921160268E+03  0.30921160268E+03  0.00000000000E+00 0.  1.
          2   -1    0    0  501    0  0.00000000000E+00 -0.00000000000E+00 -0.14944411357E+04  0.14944411357E+04  0.00000000000E+00 0. -1.
         23    2    1    2    0    0 -0.26058733599E+03 -0.23682615050E+03 -0.15879496624E+03  0.39694570430E+03  0.91420269177E+02 0.  0.
        254    2    1    2    0    0  0.26058733599E+03  0.23682615050E+03 -0.10264345668E+04  0.14067070341E+04  0.89513371886E+03 0.  0.
        -24    2    4    4    0    0 -0.13208404941E+03  0.15094553949E+03 -0.96922134371E+03  0.99281828301E+03  0.77893375705E+02 0.  0.
         24    2    4    4    0    0  0.39267138540E+03  0.85880611015E+02 -0.57213223115E+02  0.41388875111E+03  0.80400554346E+02 0.  0.
         13    1    3    3    0    0 -0.17940244248E+03 -0.11277531313E+03 -0.12072270570E+03  0.24388005103E+03  0.00000000000E+00 0. -1.
        -13    1    3    3    0    0 -0.81184893515E+02 -0.12405083737E+03 -0.38072260538E+02  0.15306565327E+03  0.00000000000E+00 0.  1.
          2    1    6    6  502    0  0.26900079327E+03  0.25643710377E+02 -0.17860340513E+02  0.27080993044E+03  0.00000000000E+00 0. -1.
          1    1    5    5  503    0 -0.38535003045E+02  0.79266530848E+02 -0.27846216510E+03  0.29207756977E+03  0.00000000000E+00 0. -1.
         -2    1    5    5    0  503 -0.93549046364E+02  0.71679008639E+02 -0.69075917861E+03  0.70074071324E+03  0.00000000000E+00 0.  1.
         -1    1    6    6    0  502  0.12367059213E+03  0.60236900638E+02 -0.39352882601E+02  0.14307882067E+03  0.00000000000E+00 0.  1.
<mgrwt>
<rscale>  0 0.13595566E+04</rscale>
<asrwt>0</asrwt>
<pdfrwt beam="1">  1        2 0.22991402E+00 0.13595566E+04</pdfrwt>
<pdfrwt beam="2">  1       -2 0.47571015E-01 0.13595566E+04</pdfrwt>
<totfact> 0.52248887E+01</totfact>
</mgrwt>
</event>
<event>
12    1  0.1549527E-007  0.3124239E+04  0.7818608E-02  0.8209117E-01
         -1   -1    0    0    0  501 -0.00000000000E+00  0.00000000000E+00  0.22504404353E+04  0.22504404353E+04  0.00000000000E+00 0.  1.
          1   -1    0    0  501    0  0.00000000000E+00 -0.00000000000E+00 -0.10843291253E+04  0.10843291253E+04  0.00000000000E+00 0. -1.
         23    2    1    2    0    0  0.54182042573E+03  0.12044348744E+04  0.10100836102E+04  0.16658794254E+04  0.10321152956E+03 0.  0.
        254    2    1    2    0    0 -0.54182042573E+03 -0.12044348744E+04  0.15602769979E+03  0.16688901352E+04  0.10082742187E+04 0.  0.
        -24    2    4    4    0    0  0.99779422988E+02  0.12238222823E+03  0.73402504147E+02  0.19063665953E+03  0.77595523723E+02 0.  0.
         24    2    4    4    0    0 -0.64159984872E+03 -0.13268171026E+04  0.82625195639E+02  0.14782534757E+04  0.79450776073E+02 0.  0.
         11    1    3    3    0    0  0.35580913875E+03  0.84398302095E+03  0.75238651793E+03  0.11853239875E+04  0.00000000000E+00 0. -1.
        -11    1    3    3    0    0  0.18601128698E+03  0.36045185342E+03  0.25769709229E+03  0.48055543790E+03  0.00000000000E+00 0.  1.
          4    1    6    6  502    0 -0.63905587222E+03 -0.13012235259E+04  0.75887702923E+02  0.14516659449E+04  0.00000000000E+00 0. -1.
          3    1    5    5  503    0  0.97774151009E+02  0.63183374192E+02  0.53810509267E+02  0.12824778473E+03  0.00000000000E+00 0. -1.
         -4    1    5    5    0  503  0.20052719788E+01  0.59198854043E+02  0.19591994879E+02  0.62388874802E+02  0.00000000000E+00 0.  1.
         -3    1    6    6    0  502 -0.25439765023E+01 -0.25593576726E+02  0.67374927159E+01  0.26587530802E+02  0.00000000000E+00 0.  1.
<mgrwt>
<rscale>  0 0.31242395E+04</rscale>
<asrwt>0</asrwt>
<pdfrwt beam="1">  1        1 0.16681987E+00 0.31242395E+04</pdfrwt>
<pdfrwt beam="2">  1       -1 0.34622160E+00 0.31242395E+04</pdfrwt>
<totfact> 0.18053015E-01</totfact>
</mgrwt>
</event>
<event>
12    1  0.1549527E-007  0.1399929E+04  0.7818608E-02  0.8953870E-01
          2   -1    0    0  501    0  0.00000000000E+00  0.00000000000E+00  0.45208923537E+03  0.45208923537E+03  0.00000000000E+00 0. -1.
         -2   -1    0    0    0  501 -0.00000000000E+00 -0.00000000000E+00 -0.10837473065E+04  0.10837473065E+04  0.00000000000E+00 0.  1.
         23    2    1    2    0    0  0.26252334834E+02  0.16173224189E+03 -0.57131480128E+03  0.60125676013E+03  0.90898769471E+02 0.  0.
        254    2    1    2    0    0 -0.26252334834E+02 -0.16173224189E+03 -0.60343269888E+02  0.93457978177E+03  0.91812393234E+03 0.  0.
        -24    2    4    4    0    0 -0.61377435190E+02  0.35614948734E+03  0.10404218443E+03  0.38413651445E+03  0.78271570274E+02 0.  0.
         24    2    4    4    0    0  0.35125100356E+02 -0.51788172923E+03 -0.16438545432E+03  0.55044326732E+03  0.80808135747E+02 0.  0.
         13    1    3    3    0    0 -0.14291177692E+02  0.94494914849E+02 -0.42055146855E+03  0.43127376966E+03  0.00000000000E+00 0.  1.
        -13    1    3    3    0    0  0.40543512526E+02  0.67237327043E+02 -0.15076333272E+03  0.16998299047E+03  0.00000000000E+00 0. -1.
          2    1    6    6  502    0  0.30398978949E+02 -0.51884136451E+03 -0.15968583210E+03  0.54370950370E+03  0.00000000000E+00 0. -1.
          1    1    5    5  503    0  0.28202422324E+01  0.85251536759E+02 -0.42779379214E+01  0.85405380620E+02  0.00000000000E+00 0. -1.
         -4    1    5    5    0  503 -0.64197677422E+02  0.27089795058E+03  0.10832012236E+03  0.29873113383E+03  0.00000000000E+00 0.  1.
         -1    1    6    6    0  502  0.47261214072E+01  0.95963527833E+00 -0.46996222225E+01  0.67337636176E+01  0.00000000000E+00 0.  1.
<mgrwt>
<rscale>  0 0.13999293E+04</rscale>
<asrwt>0</asrwt>
<pdfrwt beam="1">  1        2 0.69552191E-01 0.13999293E+04</pdfrwt>
<pdfrwt beam="2">  1       -2 0.16673035E+00 0.13999293E+04</pdfrwt>
<totfact> 0.15129263E+01</totfact>
</mgrwt>
</event>
<event>
12    1  0.1549527E-007  0.1256235E+04  0.7818608E-02  0.9065009E-01
         -2   -1    0    0    0  501 -0.00000000000E+00  0.00000000000E+00  0.27270507080E+03  0.27270507080E+03  0.00000000000E+00 0.  1.
          2   -1    0    0  501    0  0.00000000000E+00 -0.00000000000E+00 -0.14467346301E+04  0.14467346301E+04  0.00000000000E+00 0. -1.
         23    2    1    2    0    0 -0.20184481333E+03 -0.63782481138E+02 -0.58130835369E+03  0.62550699905E+03  0.92358379307E+02 0.  0.
        254    2    1    2    0    0  0.20184481333E+03  0.63782481138E+02 -0.59272120563E+03  0.10939327019E+04  0.89474063003E+03 0.  0.
        -24    2    4    4    0    0  0.19625002649E+03  0.38513542723E+03 -0.62255002597E+03  0.76200453501E+03  0.78987380775E+02 0.  0.
         24    2    4    4    0    0  0.55947868361E+01 -0.32135294610E+03  0.29828820346E+02  0.33192816685E+03  0.77379143323E+02 0.  0.
         13    1    3    3    0    0 -0.19500516688E+03 -0.64276265958E+02 -0.58328635746E+03  0.61836997685E+03  0.00000000000E+00 0. -1.
        -13    1    3    3    0    0 -0.68396464456E+01  0.49378482029E+00  0.19780037705E+01  0.71370221988E+01  0.00000000000E+00 0.  1.
          2    1    6    6  502    0  0.55217843885E+01 -0.14470890944E+03 -0.25030495696E+02  0.14696150614E+03  0.00000000000E+00 0. -1.
          3    1    5    5  503    0  0.11505841101E+03  0.28451538871E+03 -0.39406036186E+03  0.49947073303E+03  0.00000000000E+00 0. -1.
         -4    1    5    5    0  503  0.81191615476E+02  0.10062003852E+03 -0.22848966411E+03  0.26253380198E+03  0.00000000000E+00 0.  1.
         -1    1    6    6    0  502  0.73002447685E-01 -0.17664403666E+03  0.54859316041E+02  0.18496666071E+03  0.00000000000E+00 0.  1.
<mgrwt>
<rscale>  0 0.12562354E+04</rscale>
<asrwt>0</asrwt>
<pdfrwt beam="1">  1        2 0.22257455E+00 0.12562354E+04</pdfrwt>
<pdfrwt beam="2">  1       -2 0.41954627E-01 0.12562354E+04</pdfrwt>
<totfact> 0.71993396E+01</totfact>
</mgrwt>
</event>
<event>
12    1  0.1549527E-007  0.3131108E+04  0.7818608E-02  0.8207252E-01
          2   -1    0    0  501    0  0.00000000000E+00  0.00000000000E+00  0.21912136391E+04  0.21912136391E+04  0.00000000000E+00 0. -1.
         -2   -1    0    0    0  501 -0.00000000000E+00 -0.00000000000E+00 -0.11185396373E+04  0.11185396373E+04  0.00000000000E+00 0.  1.
         23    2    1    2    0    0  0.10397169803E+04  0.98790039405E+03  0.49070398463E+03  0.15185440955E+04  0.90703813895E+02 0.  0.
        254    2    1    2    0    0 -0.10397169803E+04 -0.98790039405E+03  0.58197001715E+03  0.17912091809E+04  0.90154458648E+03 0.  0.
        -24    2    4    4    0    0 -0.54497722427E+03 -0.86828515400E+02  0.51377459976E+03  0.75830198479E+03  0.80735337464E+02 0.  0.
         24    2    4    4    0    0 -0.49473975598E+03 -0.90107187865E+03  0.68195417384E+02  0.10329071961E+04  0.74489625078E+02 0.  0.
         13    1    3    3    0    0  0.89262785766E+03  0.82711602817E+03  0.44608371773E+03  0.12961080586E+04  0.00000000000E+00 0. -1.
        -13    1    3    3    0    0  0.14708912259E+03  0.16078436588E+03  0.44620266902E+02  0.22243603691E+03  0.00000000000E+00 0.  1.
          2    1    6    6  502    0 -0.59705068082E+02 -0.16519390523E+03  0.50156312847E+01  0.17572386872E+03  0.00000000000E+00 0. -1.
          3    1    5    5  503    0 -0.35454732757E+01 -0.36725207688E+01 -0.23996967055E+01  0.56405969386E+01  0.00000000000E+00 0. -1.
         -4    1    5    5    0  503 -0.54143175100E+03 -0.83155994631E+02  0.51617429647E+03  0.75266138785E+03  0.00000000000E+00 0.  1.
         -1    1    6    6    0  502 -0.43503468790E+03 -0.73587797342E+03  0.63179786099E+02  0.85718332742E+03  0.00000000000E+00 0.  1.
<mgrwt>
<rscale>  0 0.31311080E+04</rscale>
<asrwt>0</asrwt>
<pdfrwt beam="1">  1        2 0.33710979E+00 0.31311080E+04</pdfrwt>
<pdfrwt beam="2">  1       -2 0.17208302E+00 0.31311080E+04</pdfrwt>
<totfact> 0.91116133E-01</totfact>
</mgrwt>
</event>
<event>
12    1  0.1549527E-007  0.1419255E+04  0.7818608E-02  0.8939998E-01
          1   -1    0    0  501    0  0.00000000000E+00  0.00000000000E+00  0.34919238995E+03  0.34919238995E+03  0.00000000000E+00 0. -1.
         -1   -1    0    0    0  501 -0.00000000000E+00 -0.00000000000E+00 -0.14421021720E+04  0.14421021720E+04  0.00000000000E+00 0.  1.
         23    2    1    2    0    0 -0.32146715622E+03 -0.26451408480E+03 -0.30404978366E+03  0.52249840808E+03  0.85143889474E+02 0.  0.
        254    2    1    2    0    0  0.32146715622E+03  0.26451408480E+03 -0.78885999834E+03  0.12687961538E+04  0.90234957162E+03 0.  0.
        -24    2    4    4    0    0  0.56372918342E+03  0.31026709611E+03 -0.29791196717E+03  0.71314907581E+03  0.75985531328E+02 0.  0.
         24    2    4    4    0    0 -0.24226202720E+03 -0.45753011309E+02 -0.49094803117E+03  0.55564707802E+03  0.83243487053E+02 0.  0.
         11    1    3    3    0    0 -0.27953994115E+03 -0.22654039104E+03 -0.22182011924E+03  0.42269054019E+03  0.00000000000E+00 0. -1.
        -11    1    3    3    0    0 -0.41927215073E+02 -0.37973693768E+02 -0.82229664417E+02  0.99807867888E+02  0.00000000000E+00 0.  1.
          2    1    6    6  502    0 -0.47893162616E+01  0.13137473301E+02 -0.43273400483E+02  0.45476564782E+02  0.00000000000E+00 0. -1.
          3    1    5    5  503    0  0.20836352455E+03  0.98576934281E+02 -0.70121923678E+02  0.24093537415E+03  0.00000000000E+00 0. -1.
         -4    1    5    5    0  503  0.35536565887E+03  0.21169016183E+03 -0.22779004349E+03  0.47221370166E+03  0.00000000000E+00 0.  1.
         -1    1    6    6    0  502 -0.23747271094E+03 -0.58890484610E+02 -0.44767463069E+03  0.51017051324E+03  0.00000000000E+00 0.  1.
<mgrwt>
<rscale>  0 0.14192549E+04</rscale>
<asrwt>0</asrwt>
<pdfrwt beam="1">  1        1 0.53721904E-01 0.14192549E+04</pdfrwt>
<pdfrwt beam="2">  1       -1 0.22186188E+00 0.14192549E+04</pdfrwt>
<totfact> 0.74805213E+00</totfact>
</mgrwt>
</event>
<event>
12    1  0.1549527E-007  0.1772598E+04  0.7818608E-02  0.8721009E-01
          2   -1    0    0  501    0  0.00000000000E+00  0.00000000000E+00  0.13287202002E+04  0.13287202002E+04  0.00000000000E+00 0. -1.
         -2   -1    0    0    0  501 -0.00000000000E+00 -0.00000000000E+00 -0.59118962527E+03  0.59118962527E+03  0.00000000000E+00 0.  1.
         23    2    1    2    0    0 -0.15688947519E+03  0.50856984116E+03  0.68071938453E+03  0.86960983711E+03  0.97901979369E+02 0.  0.
        254    2    1    2    0    0  0.15688947519E+03 -0.50856984116E+03  0.56811190416E+02  0.10502999884E+04  0.90368410602E+03 0.  0.
        -24    2    4    4    0    0  0.19951899793E+03 -0.69508836001E+03  0.24800504533E+03  0.76802883319E+03  0.73526371843E+02 0.  0.
         24    2    4    4    0    0 -0.42629522742E+02  0.18651851885E+03 -0.19119385491E+03  0.28227115518E+03  0.80718528292E+02 0.  0.
         13    1    3    3    0    0  0.43482714798E+01 -0.26586052079E+01  0.64724703922E+01  0.82382352170E+01  0.00000000000E+00 0. -1.
        -13    1    3    3    0    0 -0.16123774667E+03  0.51122844637E+03  0.67424691414E+03  0.86137160189E+03  0.00000000000E+00 0.  1.
          2    1    6    6  502    0 -0.60943523536E+02  0.15419471094E+03 -0.17693030189E+03  0.24247567645E+03  0.00000000000E+00 0. -1.
          3    1    5    5  503    0  0.13559666448E+03 -0.52963909398E+03  0.15779057362E+03  0.56903593068E+03  0.00000000000E+00 0. -1.
         -4    1    5    5    0  503  0.63922333450E+02 -0.16544926603E+03  0.90214471706E+02  0.19899290251E+03  0.00000000000E+00 0.  1.
         -1    1    6    6    0  502  0.18314000795E+02  0.32323807912E+02 -0.14263553024E+02  0.39795478737E+02  0.00000000000E+00 0.  1.
<mgrwt>
<rscale>  0 0.17725976E+04</rscale>
<asrwt>0</asrwt>
<pdfrwt beam="1">  1        2 0.20441849E+00 0.17725976E+04</pdfrwt>
<pdfrwt beam="2">  1       -2 0.90952250E-01 0.17725976E+04</pdfrwt>
<totfact> 0.15524468E+01</totfact>
</mgrwt>
</event>
<event>
12    1  0.1549527E-007  0.2841573E+04  0.7818608E-02  0.8290477E-01
         -1   -1    0    0    0  501 -0.00000000000E+00  0.00000000000E+00  0.78262604878E+03  0.78262604878E+03  0.00000000000E+00 0.  1.
          1   -1    0    0  501    0  0.00000000000E+00 -0.00000000000E+00 -0.25793091576E+04  0.25793091576E+04  0.00000000000E+00 0. -1.
         23    2    1    2    0    0 -0.36498468753E+03 -0.11561936918E+04 -0.12598702463E+04  0.17509060041E+04  0.91657638225E+02 0.  0.
        254    2    1    2    0    0  0.36498468753E+03  0.11561936918E+04 -0.53681286256E+03  0.16110292023E+04  0.91501331470E+03 0.  0.
        -24    2    4    4    0    0  0.14228348166E+03 -0.17400832063E+02  0.15750081417E+03  0.22744400409E+03  0.79855434518E+02 0.  0.
         24    2    4    4    0    0  0.22270120588E+03  0.11735945239E+04 -0.69431367673E+03  0.13835851982E+04  0.72914918920E+02 0.  0.
         13    1    3    3    0    0 -0.34580657014E+03 -0.10923687503E+04 -0.11570634764E+04  0.16283880247E+04  0.00000000000E+00 0. -1.
        -13    1    3    3    0    0 -0.19178117398E+02 -0.63824941552E+02 -0.10280676988E+03  0.12251797943E+03  0.00000000000E+00 0.  1.
          4    1    6    6  502    0  0.20207172846E+03  0.90381973559E+03 -0.54334837087E+03  0.10737553492E+04  0.00000000000E+00 0. -1.
          3    1    5    5  503    0  0.14521908046E+03 -0.27578110417E+02  0.12606538041E+03  0.19427200942E+03  0.00000000000E+00 0. -1.
         -4    1    5    5    0  503 -0.29355988032E+01  0.10177278354E+02  0.31435433754E+02  0.33171994669E+02  0.00000000000E+00 0.  1.
         -3    1    6    6    0  502  0.20629477418E+02  0.26977478829E+03 -0.15096530586E+03  0.30982984896E+03  0.00000000000E+00 0.  1.
<mgrwt>
<rscale>  0 0.28415732E+04</rscale>
<asrwt>0</asrwt>
<pdfrwt beam="1">  1        1 0.39681679E+00 0.28415732E+04</pdfrwt>
<pdfrwt beam="2">  1       -1 0.12040401E+00 0.28415732E+04</pdfrwt>
<totfact> 0.63155691E-01</totfact>
</mgrwt>
</event>
<event>
12    1  0.2314354E-007  0.2200901E+04  0.7818608E-02  0.8518053E-01
         -1   -1    0    0    0  501 -0.00000000000E+00  0.00000000000E+00  0.12215506965E+04  0.12215506965E+04  0.00000000000E+00 0.  1.
          1   -1    0    0  501    0  0.00000000000E+00 -0.00000000000E+00 -0.99135541338E+03  0.99135541338E+03  0.00000000000E+00 0. -1.
         23    2    1    2    0    0 -0.39083955576E+03 -0.61552552661E+03 -0.45790951528E+03  0.86690714755E+03  0.10109226495E+03 0.  0.
        254    2    1    2    0    0  0.39083955576E+03  0.61552552661E+03  0.68810479835E+03  0.13459989623E+04  0.89810787809E+03 0.  0.
        -24    2    4    4    0    0  0.21156699634E+03  0.74398163430E+03  0.19742148359E+03  0.80234213409E+03  0.80674604630E+02 0.  0.
         24    2    4    4    0    0  0.17927255942E+03 -0.12845610769E+03  0.49068331476E+03  0.54365682819E+03  0.78441119865E+02 0.  0.
         11    1    3    3    0    0 -0.29376710687E+03 -0.47061289033E+03 -0.39686396964E+03  0.68211187940E+03  0.00000000000E+00 0. -1.
        -11    1    3    3    0    0 -0.97072448888E+02 -0.14491263628E+03 -0.61045545644E+02  0.18479526815E+03  0.00000000000E+00 0.  1.
          4    1    6    6  502    0  0.17605156137E+03 -0.11053553188E+03  0.47862528272E+03  0.52181837581E+03  0.00000000000E+00 0. -1.
          1    1    5    5  503    0  0.19804165428E+03  0.69037542111E+03  0.16071784933E+03  0.73598162069E+03  0.00000000000E+00 0. -1.
         -2    1    5    5    0  503  0.13525342058E+02  0.53606213193E+02  0.36703634256E+02  0.66360513397E+02  0.00000000000E+00 0.  1.
         -3    1    6    6    0  502  0.32209980476E+01 -0.17920575808E+02  0.12058032043E+02  0.21838452382E+02  0.00000000000E+00 0.  1.
<mgrwt>
<rscale>  0 0.22009006E+04</rscale>
<asrwt>0</asrwt>
<pdfrwt beam="1">  1        1 0.15251622E+00 0.22009006E+04</pdfrwt>
<pdfrwt beam="2">  1       -1 0.18793088E+00 0.22009006E+04</pdfrwt>
<totfact> 0.25602238E+00</totfact>
</mgrwt>
</event>
<event>
12    1  0.2402688E-007  0.3150902E+04  0.7818608E-02  0.8201906E-01
         -2   -1    0    0    0  501 -0.00000000000E+00  0.00000000000E+00  0.11307681237E+04  0.11307681237E+04  0.00000000000E+00 0. -1.
          2   -1    0    0  501    0  0.00000000000E+00 -0.00000000000E+00 -0.21950087086E+04  0.21950087086E+04  0.00000000000E+00 0.  1.
         23    2    1    2    0    0 -0.50393607835E+03  0.64538718611E+03 -0.17429544221E+04  0.19281254816E+04  0.96444616841E+02 0.  0.
        254    2    1    2    0    0  0.50393607835E+03 -0.64538718611E+03  0.67871383721E+03  0.13976513507E+04  0.90680793682E+03 0.  0.
        -24    2    4    4    0    0 -0.24710885671E+03 -0.69230322191E+02  0.10863104891E+03  0.28977652788E+03  0.79461353772E+02 0.  0.
         24    2    4    4    0    0  0.75104493507E+03 -0.57615686392E+03  0.57008278830E+03  0.11078748228E+04  0.79793553837E+02 0.  0.
         11    1    3    3    0    0 -0.54598694338E+02  0.43810828319E+02 -0.10408648211E+03  0.12543684410E+03  0.00000000000E+00 0. -1.
        -11    1    3    3    0    0 -0.44933738401E+03  0.60157635779E+03 -0.16388679400E+04  0.18026886375E+04  0.00000000000E+00 0.  1.
          2    1    6    6  502    0  0.74925769236E+03 -0.57450321695E+03  0.56052450027E+03  0.10980112710E+04  0.00000000000E+00 0. -1.
          1    1    5    5  503    0 -0.25017325523E+03 -0.71352522365E+02  0.97136813679E+02  0.27769299713E+03  0.00000000000E+00 0. -1.
         -2    1    5    5    0  503  0.30643985167E+01  0.21222001746E+01  0.11494235231E+02  0.12083530750E+02  0.00000000000E+00 0.  1.
         -1    1    6    6    0  502  0.17872427074E+01 -0.16536469731E+01  0.95582880300E+01  0.98635518385E+01  0.00000000000E+00 0.  1.
<mgrwt>
<rscale>  0 0.31509020E+04</rscale>
<asrwt>0</asrwt>
<pdfrwt beam="1">  1        2 0.33769364E+00 0.31509020E+04</pdfrwt>
<pdfrwt beam="2">  1       -2 0.17396433E+00 0.31509020E+04</pdfrwt>
<totfact> 0.87797917E-01</totfact>
</mgrwt>
</event>
<event>
12    1  0.1549527E-007  0.1641555E+04  0.7818608E-02  0.8795418E-01
          2   -1    0    0  501    0  0.00000000000E+00  0.00000000000E+00  0.13601224026E+04  0.13601224026E+04  0.00000000000E+00 0. -1.
         -2   -1    0    0    0  501 -0.00000000000E+00 -0.00000000000E+00 -0.49530500500E+03  0.49530500500E+03  0.00000000000E+00 0.  1.
         23    2    1    2    0    0  0.51350578735E+03 -0.11825503416E+03  0.55025947152E+02  0.53761295113E+03  0.91254499157E+02 0.  0.
        254    2    1    2    0    0 -0.51350578735E+03  0.11825503416E+03  0.80979145050E+03  0.13178144565E+04  0.89621442846E+03 0.  0.
        -24    2    4    4    0    0 -0.27998429938E+03 -0.16383145275E+03 -0.87939430231E+02  0.34496964170E+03  0.77709442743E+02 0.  0.
         24    2    4    4    0    0 -0.23352148797E+03  0.28208648691E+03  0.89773088073E+03  0.97284481482E+03  0.80007675131E+02 0.  0.
         13    1    3    3    0    0  0.47645197080E+01  0.64317146329E+01  0.86200370791E+01  0.11763190061E+02  0.00000000000E+00 0. -1.
        -13    1    3    3    0    0  0.50874126764E+03 -0.12468674879E+03  0.46405910073E+02  0.52584976106E+03  0.00000000000E+00 0.  1.
          4    1    6    6  502    0 -0.16869744919E+03  0.23829916931E+03  0.76436572790E+03  0.81822997344E+03  0.00000000000E+00 0. -1.
          3    1    5    5  503    0 -0.24612434385E+03 -0.15844033704E+03 -0.98908071701E+02  0.30897142212E+03  0.00000000000E+00 0. -1.
         -4    1    5    5    0  503 -0.33859955528E+02 -0.53911157113E+01  0.10968641470E+02  0.35998219576E+02  0.00000000000E+00 0.  1.
         -3    1    6    6    0  502 -0.64824038776E+02  0.43787317598E+02  0.13336515283E+03  0.15461484138E+03  0.00000000000E+00 0.  1.
<mgrwt>
<rscale>  0 0.16415547E+04</rscale>
<asrwt>0</asrwt>
<pdfrwt beam="1">  1        2 0.20924960E+00 0.16415547E+04</pdfrwt>
<pdfrwt beam="2">  1       -2 0.76200771E-01 0.16415547E+04</pdfrwt>
<totfact> 0.22477485E+01</totfact>
</mgrwt>
</event>
<event>
12    1  0.1549527E-007  0.2696471E+04  0.7818608E-02  0.8336151E-01
          2   -1    0    0  501    0  0.00000000000E+00  0.00000000000E+00  0.16551821190E+04  0.16551821190E+04  0.00000000000E+00 0. -1.
         -2   -1    0    0    0  501 -0.00000000000E+00 -0.00000000000E+00 -0.10982112014E+04  0.10982112014E+04  0.00000000000E+00 0.  1.
         23    2    1    2    0    0  0.27348053057E+03 -0.10491990712E+04  0.76322744206E+03  0.13289261073E+04  0.88984148308E+02 0.  0.
        254    2    1    2    0    0 -0.27348053057E+03  0.10491990712E+04 -0.20625652447E+03  0.14244672130E+04  0.90053028569E+03 0.  0.
        -24    2    4    4    0    0  0.46653264345E+02 -0.13328180326E+03  0.55451254585E+02  0.16917141498E+03  0.74856929244E+02 0.  0.
         24    2    4    4    0    0 -0.32013379492E+03  0.11824808745E+04 -0.26170777906E+03  0.12552957981E+04  0.80807881985E+02 0.  0.
         13    1    3    3    0    0  0.19253699290E+03 -0.79199148805E+03  0.52831743450E+03  0.97130856187E+03  0.00000000000E+00 0. -1.
        -13    1    3    3    0    0  0.80943537673E+02 -0.25720758319E+03  0.23491000755E+03  0.35761754542E+03  0.00000000000E+00 0.  1.
          2    1    6    6  502    0 -0.26316844913E+03  0.83276767764E+03 -0.19004261218E+03  0.89379854105E+03  0.00000000000E+00 0. -1.
          3    1    5    5  503    0  0.46055017325E+02 -0.94415079166E+02  0.71547068031E+02  0.12709938921E+03  0.00000000000E+00 0. -1.
         -4    1    5    5    0  503  0.59824701991E+00 -0.38866724098E+02 -0.16095813445E+02  0.42072025766E+02  0.00000000000E+00 0.  1.
         -1    1    6    6    0  502 -0.56965345783E+02  0.34971319686E+03 -0.71665166882E+02  0.36149725700E+03  0.00000000000E+00 0.  1.
<mgrwt>
<rscale>  0 0.26964714E+04</rscale>
<asrwt>0</asrwt>
<pdfrwt beam="1">  1        2 0.25464340E+00 0.26964714E+04</pdfrwt>
<pdfrwt beam="2">  1       -2 0.16895557E+00 0.26964714E+04</pdfrwt>
<totfact> 0.19767640E+00</totfact>
</mgrwt>
</event>
<event>
12    1  0.1549527E-007  0.2341970E+04  0.7818608E-02  0.8461555E-01
          2   -1    0    0  501    0  0.00000000000E+00  0.00000000000E+00  0.31971314487E+04  0.31971314487E+04  0.00000000000E+00 0. -1.
         -2   -1    0    0    0  501 -0.00000000000E+00 -0.00000000000E+00 -0.42888616785E+03  0.42888616785E+03  0.00000000000E+00 0.  1.
         23    2    1    2    0    0  0.26577927836E+03  0.47807372754E+03 -0.10461922074E+03  0.56653001589E+03  0.10400944089E+03 0.  0.
        254    2    1    2    0    0 -0.26577927836E+03 -0.47807372754E+03  0.28728645016E+04  0.30594876007E+04  0.89884415793E+03 0.  0.
        -24    2    4    4    0    0  0.26987742192E+03  0.61289810282E+02  0.81535397289E+03  0.86459460774E+03  0.78303709542E+02 0.  0.
         24    2    4    4    0    0 -0.53565670028E+03 -0.53936353782E+03  0.20575105287E+04  0.21948929929E+04  0.79778117853E+02 0.  0.
         13    1    3    3    0    0  0.49297972581E+02  0.18958670524E+03 -0.29286635873E+02  0.19806846277E+03  0.00000000000E+00 0. -1.
        -13    1    3    3    0    0  0.21648130578E+03  0.28848702230E+03 -0.75332584871E+02  0.36846155312E+03  0.00000000000E+00 0.  1.
          2    1    6    6  502    0 -0.84629985051E+01 -0.99214259862E+01  0.77764804492E+02  0.78850630023E+02  0.00000000000E+00 0. -1.
          3    1    5    5  503    0  0.30213757013E+02 -0.17891308327E+02  0.10706337326E+03  0.11267446880E+03  0.00000000000E+00 0. -1.
         -4    1    5    5    0  503  0.23966366491E+03  0.79181118609E+02  0.70829059963E+03  0.75192013894E+03  0.00000000000E+00 0.  1.
         -1    1    6    6    0  502 -0.52719370178E+03 -0.52944211183E+03  0.19797457242E+04  0.21160423629E+04  0.00000000000E+00 0.  1.
<mgrwt>
<rscale>  0 0.23419696E+04</rscale>
<asrwt>0</asrwt>
<pdfrwt beam="1">  1        2 0.49186636E+00 0.23419696E+04</pdfrwt>
<pdfrwt beam="2">  1       -2 0.65982489E-01 0.23419696E+04</pdfrwt>
<totfact> 0.24901688E+00</totfact>
</mgrwt>
</event>
<event>
12    1  0.1549527E-007  0.1574105E+04  0.7818608E-02  0.8836616E-01
         -1   -1    0    0    0  501 -0.00000000000E+00  0.00000000000E+00  0.11295633052E+04  0.11295633052E+04  0.00000000000E+00 0.  1.
          1   -1    0    0  501    0  0.00000000000E+00 -0.00000000000E+00 -0.54839941621E+03  0.54839941621E+03  0.00000000000E+00 0. -1.
         23    2    1    2    0    0 -0.24314742975E+01  0.32344576933E+03 -0.23847684077E+03  0.41214678443E+03  0.91491478094E+02 0.  0.
        254    2    1    2    0    0  0.24314742975E+01 -0.32344576933E+03  0.81964072974E+03  0.12658159370E+04  0.90876618702E+03 0.  0.
        -24    2    4    4    0    0  0.84429608214E+02  0.25150634709E+03  0.23797035533E+02  0.27744454209E+03  0.77623280405E+02 0.  0.
         24    2    4    4    0    0 -0.81998133917E+02 -0.57495211643E+03  0.79584369421E+03  0.98837139488E+03  0.78849213450E+02 0.  0.
         11    1    3    3    0    0 -0.17975222184E+02  0.31954336018E+03 -0.22525529224E+03  0.39137068660E+03  0.00000000000E+00 0. -1.
        -11    1    3    3    0    0  0.15543747887E+02  0.39024091592E+01 -0.13221548532E+02  0.20776097834E+02  0.00000000000E+00 0.  1.
          2    1    6    6  502    0 -0.11710895144E+02 -0.33504989840E+03  0.42930202941E+03  0.54469790888E+03  0.00000000000E+00 0. -1.
          3    1    5    5  503    0 -0.15975430204E+01  0.28539103719E+02 -0.19452549271E+02  0.34575052537E+02  0.00000000000E+00 0. -1.
         -4    1    5    5    0  503  0.86027151235E+02  0.22296724338E+03  0.43249584804E+02  0.24286948955E+03  0.00000000000E+00 0.  1.
         -1    1    6    6    0  502 -0.70287238773E+02 -0.23990221803E+03  0.36654166480E+03  0.44367348600E+03  0.00000000000E+00 0.  1.
<mgrwt>
<rscale>  0 0.15741053E+04</rscale>
<asrwt>0</asrwt>
<pdfrwt beam="1">  1        1 0.84369141E-01 0.15741053E+04</pdfrwt>
<pdfrwt beam="2">  1       -1 0.17377897E+00 0.15741053E+04</pdfrwt>
<totfact> 0.86461623E+00</totfact>
</mgrwt>
</event>
<event>
12    1  0.1549527E-007  0.1795595E+04  0.7818608E-02  0.8708645E-01
          1   -1    0    0  501    0  0.00000000000E+00  0.00000000000E+00  0.14265146485E+04  0.14265146485E+04  0.00000000000E+00 0. -1.
         -1   -1    0    0    0  501 -0.00000000000E+00 -0.00000000000E+00 -0.56504187506E+03  0.56504187506E+03  0.00000000000E+00 0.  1.
         23    2    1    2    0    0  0.45769726507E+03 -0.13556831380E+03  0.84534971414E+03  0.97513749794E+03  0.91713938687E+02 0.  0.
        254    2    1    2    0    0 -0.45769726507E+03  0.13556831380E+03  0.16123059310E+02  0.10164190256E+04  0.89720796277E+03 0.  0.
        -24    2    4    4    0    0 -0.52487439840E+03  0.34893672850E+03 -0.22794299719E+03  0.67493471420E+03  0.79554282548E+02 0.  0.
         24    2    4    4    0    0  0.67177133334E+02 -0.21336841471E+03  0.24406605650E+03  0.34148431143E+03  0.83692576603E+02 0.  0.
         13    1    3    3    0    0  0.25367641443E+03 -0.10451464248E+03  0.40971837029E+03  0.49309651862E+03  0.00000000000E+00 0.  1.
        -13    1    3    3    0    0  0.20402085064E+03 -0.31053671314E+02  0.43563134385E+03  0.48204097932E+03  0.00000000000E+00 0. -1.
          4    1    6    6  502    0  0.58645751782E+02 -0.19574751036E+03  0.17290695151E+03  0.26768120198E+03  0.00000000000E+00 0. -1.
          3    1    5    5  503    0 -0.49681101442E+03  0.34792124258E+03 -0.21121265202E+03  0.64224696143E+03  0.00000000000E+00 0. -1.
         -4    1    5    5    0  503 -0.28063383982E+02  0.10154859243E+01 -0.16730345166E+02  0.32687752776E+02  0.00000000000E+00 0.  1.
         -3    1    6    6    0  502  0.85313815518E+01 -0.17620904349E+02  0.71159104985E+02  0.73803109444E+02  0.00000000000E+00 0.  1.
<mgrwt>
<rscale>  0 0.17955952E+04</rscale>
<asrwt>0</asrwt>
<pdfrwt beam="1">  1        1 0.21946379E+00 0.17955952E+04</pdfrwt>
<pdfrwt beam="2">  1       -1 0.86929520E-01 0.17955952E+04</pdfrwt>
<totfact> 0.90583945E+00</totfact>
</mgrwt>
</event>
<event>
12    1  0.1549527E-007  0.1218821E+04  0.7818608E-02  0.9096540E-01
          2   -1    0    0  501    0  0.00000000000E+00  0.00000000000E+00  0.53583562659E+03  0.53583562659E+03  0.00000000000E+00 0. -1.
         -2   -1    0    0    0  501 -0.00000000000E+00 -0.00000000000E+00 -0.69308759094E+03  0.69308759094E+03  0.00000000000E+00 0.  1.
         23    2    1    2    0    0  0.21093944964E+03 -0.15779876220E+03 -0.41408662839E+02  0.28167371559E+03  0.90716613313E+02 0.  0.
        254    2    1    2    0    0 -0.21093944964E+03  0.15779876220E+03 -0.11584330151E+03  0.94724950194E+03  0.90247772696E+03 0.  0.
        -24    2    4    4    0    0  0.22395772153E+03 -0.19013427176E+03  0.13405038042E+03  0.33158243417E+03  0.75294779580E+02 0.  0.
         24    2    4    4    0    0 -0.43489717117E+03  0.34793303396E+03 -0.24989368192E+03  0.61566706777E+03  0.80038368631E+02 0.  0.
         13    1    3    3    0    0  0.53229483196E+02 -0.80380475048E+02  0.14083984441E+02  0.97430781932E+02  0.00000000000E+00 0. -1.
        -13    1    3    3    0    0  0.15770996645E+03 -0.77418287153E+02 -0.55492647280E+02  0.18424293366E+03  0.00000000000E+00 0.  1.
          4    1    6    6  502    0 -0.38299555142E+03  0.26912458638E+03 -0.21421856919E+03  0.51478464505E+03  0.00000000000E+00 0. -1.
          3    1    5    5  503    0  0.19976702354E+03 -0.18816223155E+03  0.10525470044E+03  0.29392250856E+03  0.00000000000E+00 0. -1.
         -4    1    5    5    0  503  0.24190697992E+02 -0.19720402173E+01  0.28795679979E+02  0.37659925616E+02  0.00000000000E+00 0.  1.
         -3    1    6    6    0  502 -0.51901619753E+02  0.78808447586E+02 -0.35675112740E+02  0.10088242272E+03  0.00000000000E+00 0.  1.
<mgrwt>
<rscale>  0 0.12188208E+04</rscale>
<asrwt>0</asrwt>
<pdfrwt beam="1">  1        2 0.82436250E-01 0.12188208E+04</pdfrwt>
<pdfrwt beam="2">  1       -2 0.10662886E+00 0.12188208E+04</pdfrwt>
<totfact> 0.39640848E+01</totfact>
</mgrwt>
</event>
<event>
12    1  0.1549527E-007  0.2836251E+04  0.7818608E-02  0.8292101E-01
          1   -1    0    0  501    0  0.00000000000E+00  0.00000000000E+00  0.12303706514E+04  0.12303706514E+04  0.00000000000E+00 0. -1.
         -1   -1    0    0    0  501 -0.00000000000E+00 -0.00000000000E+00 -0.16345315758E+04  0.16345315758E+04  0.00000000000E+00 0.  1.
         23    2    1    2    0    0 -0.90620225093E+02 -0.35511506666E+03 -0.14172210022E+04  0.14664903342E+04  0.88089701254E+02 0.  0.
        254    2    1    2    0    0  0.90620225093E+02  0.35511506666E+03  0.10130600778E+04  0.13984118929E+04  0.89159764764E+03 0.  0.
        -24    2    4    4    0    0 -0.32553643358E+02  0.38702800157E+03  0.11367783440E+04  0.12039155147E+04  0.79354580745E+02 0.  0.
         24    2    4    4    0    0  0.12317386845E+03 -0.31912934907E+02 -0.12371826618E+03  0.19449637823E+03  0.79576343685E+02 0.  0.
         13    1    3    3    0    0 -0.54608661877E+02 -0.12660716436E+03 -0.67959469232E+03  0.69344100387E+03  0.00000000000E+00 0. -1.
        -13    1    3    3    0    0 -0.36011563216E+02 -0.22850790231E+03 -0.73762630991E+03  0.77304933036E+03  0.00000000000E+00 0.  1.
          4    1    6    6  502    0  0.70259472709E+01 -0.83787749065E+01  0.10698561090E+02  0.15297941476E+02  0.00000000000E+00 0. -1.
          1    1    5    5  503    0 -0.33923833816E+02  0.88219439789E+02  0.34203197941E+03  0.35485119556E+03  0.00000000000E+00 0. -1.
         -2    1    5    5    0  503  0.13701904584E+01  0.29880856178E+03  0.79474636458E+03  0.84906431913E+03  0.00000000000E+00 0.  1.
         -3    1    6    6    0  502  0.11614792118E+03 -0.23534160001E+02 -0.13441682727E+03  0.17919843676E+03  0.00000000000E+00 0.  1.
<mgrwt>
<rscale>  0 0.28362508E+04</rscale>
<asrwt>0</asrwt>
<pdfrwt beam="1">  1        1 0.18928779E+00 0.28362508E+04</pdfrwt>
<pdfrwt beam="2">  1       -1 0.25146640E+00 0.28362508E+04</pdfrwt>
<totfact> 0.59763374E-01</totfact>
</mgrwt>
</event>
<event>
12    1  0.1549527E-007  0.2478885E+04  0.7818608E-02  0.8410547E-01
          1   -1    0    0  501    0  0.00000000000E+00  0.00000000000E+00  0.15992603708E+04  0.15992603708E+04  0.00000000000E+00 0. -1.
         -1   -1    0    0    0  501 -0.00000000000E+00 -0.00000000000E+00 -0.96058038535E+03  0.96058038535E+03  0.00000000000E+00 0.  1.
         23    2    1    2    0    0  0.60762488552E+03  0.90093707576E+01 -0.63539829183E+03  0.88397996594E+03  0.91653808772E+02 0.  0.
        254    2    1    2    0    0 -0.60762488552E+03 -0.90093707576E+01  0.12740782773E+04  0.16758607902E+04  0.90329660758E+03 0.  0.
        -24    2    4    4    0    0 -0.31135506087E+03 -0.13092745601E+03 -0.12827244669E+02  0.34736596427E+03  0.80091212130E+02 0.  0.
         24    2    4    4    0    0 -0.29626982465E+03  0.12191808526E+03  0.12869055220E+04  0.13284948259E+04  0.78312525326E+02 0.  0.
         11    1    3    3    0    0  0.18011687652E+03 -0.20486389115E+02 -0.24115121666E+03  0.30168806845E+03  0.00000000000E+00 0. -1.
        -11    1    3    3    0    0  0.42750800900E+03  0.29495759873E+02 -0.39424707517E+03  0.58229189749E+03  0.00000000000E+00 0.  1.
          4    1    6    6  502    0 -0.24142664438E+03  0.11595896605E+03  0.11524368282E+04  0.11831500113E+04  0.00000000000E+00 0. -1.
          1    1    5    5  503    0 -0.30354872517E+03 -0.12504371348E+03  0.35255502932E+01  0.32831416104E+03  0.00000000000E+00 0. -1.
         -2    1    5    5    0  503 -0.78063356954E+01 -0.58837425299E+01 -0.16352794962E+02  0.19051803227E+02  0.00000000000E+00 0.  1.
         -3    1    6    6    0  502 -0.54843180268E+02  0.59591192015E+01  0.13446869379E+03  0.14534481460E+03  0.00000000000E+00 0.  1.
<mgrwt>
<rscale>  0 0.24788853E+04</rscale>
<asrwt>0</asrwt>
<pdfrwt beam="1">  1        1 0.24604006E+00 0.24788853E+04</pdfrwt>
<pdfrwt beam="2">  1       -1 0.14778160E+00 0.24788853E+04</pdfrwt>
<totfact> 0.18058288E+00</totfact>
</mgrwt>
</event>
<event>
12    1  0.1549527E-007  0.1211312E+04  0.7818608E-02  0.9103012E-01
         -2   -1    0    0    0  501 -0.00000000000E+00  0.00000000000E+00  0.28973275676E+03  0.28973275676E+03  0.00000000000E+00 0.  1.
          2   -1    0    0  501    0  0.00000000000E+00 -0.00000000000E+00 -0.12660602916E+04  0.12660602916E+04  0.00000000000E+00 0. -1.
         23    2    1    2    0    0  0.14632402630E+03  0.16451717511E+03 -0.38866360312E+03  0.45542103584E+03  0.88725993451E+02 0.  0.
        254    2    1    2    0    0 -0.14632402630E+03 -0.16451717511E+03 -0.58766393172E+03  0.11003720125E+04  0.90387667727E+03 0.  0.
        -24    2    4    4    0    0 -0.38685563767E+03  0.19335030006E+03 -0.11321563431E+03  0.45428440479E+03  0.80715039827E+02 0.  0.
         24    2    4    4    0    0  0.24053161137E+03 -0.35786747517E+03 -0.47444829741E+03  0.64608760773E+03  0.80021397726E+02 0.  0.
         11    1    3    3    0    0  0.70038118499E+02  0.89317661284E+02 -0.28319594267E+03  0.30509494359E+03  0.00000000000E+00 0. -1.
        -11    1    3    3    0    0  0.76285907805E+02  0.75199513828E+02 -0.10546766045E+03  0.15032609225E+03  0.00000000000E+00 0.  1.
          2    1    6    6  502    0  0.49938903500E+01 -0.51141455341E+02 -0.46696596857E+02  0.69433130083E+02  0.00000000000E+00 0. -1.
          3    1    5    5  503    0 -0.26139939593E+02 -0.61143406325E+01 -0.14187805786E+02  0.30364048418E+02  0.00000000000E+00 0. -1.
         -4    1    5    5    0  503 -0.36071569808E+03  0.19946464070E+03 -0.99027828526E+02  0.42392035638E+03  0.00000000000E+00 0.  1.
         -1    1    6    6    0  502  0.23553772102E+03 -0.30672601983E+03 -0.42775170055E+03  0.57665447765E+03  0.00000000000E+00 0.  1.
<mgrwt>
<rscale>  0 0.12113119E+04</rscale>
<asrwt>0</asrwt>
<pdfrwt beam="1">  1        2 0.19477850E+00 0.12113119E+04</pdfrwt>
<pdfrwt beam="2">  1       -2 0.44574271E-01 0.12113119E+04</pdfrwt>
<totfact> 0.81410886E+01</totfact>
</mgrwt>
</event>
<event>
12    1  0.1549527E-007  0.2289461E+04  0.7818608E-02  0.8482088E-01
          2   -1    0    0  501    0  0.00000000000E+00  0.00000000000E+00  0.22299802786E+04  0.22299802786E+04  0.00000000000E+00 0. -1.
         -2   -1    0    0    0  501 -0.00000000000E+00 -0.00000000000E+00 -0.58763194529E+03  0.58763194529E+03  0.00000000000E+00 0.  1.
         23    2    1    2    0    0  0.49837685258E+03  0.14142532692E+03  0.16923018460E+04  0.17721509011E+04  0.90844196062E+02 0.  0.
        254    2    1    2    0    0 -0.49837685258E+03 -0.14142532692E+03 -0.49953512697E+02  0.10454613228E+04  0.90670470040E+03 0.  0.
        -24    2    4    4    0    0 -0.51043800897E+03  0.25160636411E+03 -0.21105896019E+03  0.61277032782E+03  0.84195406697E+02 0.  0.
         24    2    4    4    0    0  0.12061156389E+02 -0.39303169103E+03  0.16110544750E+03  0.43269099497E+03  0.81530057474E+02 0.  0.
         11    1    3    3    0    0  0.43608894911E+03  0.10136377897E+03  0.15210151233E+04  0.15855394011E+04  0.00000000000E+00 0. -1.
        -11    1    3    3    0    0  0.62287903477E+02  0.40061547944E+02  0.17128672270E+03  0.18661149996E+03  0.00000000000E+00 0.  1.
          2    1    6    6  502    0 -0.18948303951E+02 -0.25231926318E+03  0.71208827400E+02  0.26285879460E+03  0.00000000000E+00 0. -1.
          1    1    5    5  503    0 -0.71636383999E+02  0.60819884991E+02 -0.12805374667E+02  0.94840959206E+02  0.00000000000E+00 0. -1.
         -2    1    5    5    0  503 -0.43880162497E+03  0.19078647912E+03 -0.19825358553E+03  0.51792936861E+03  0.00000000000E+00 0.  1.
         -1    1    6    6    0  502  0.31009460340E+02 -0.14071242784E+03  0.89896620096E+02  0.16983220038E+03  0.00000000000E+00 0.  1.
<mgrwt>
<rscale>  0 0.22894608E+04</rscale>
<asrwt>0</asrwt>
<pdfrwt beam="1">  1        2 0.34307388E+00 0.22894608E+04</pdfrwt>
<pdfrwt beam="2">  1       -2 0.90404916E-01 0.22894608E+04</pdfrwt>
<totfact> 0.47130658E+00</totfact>
</mgrwt>
</event>
<event>
12    1  0.1549527E-007  0.3488278E+04  0.7818608E-02  0.8116574E-01
         -2   -1    0    0    0  501 -0.00000000000E+00  0.00000000000E+00  0.12527724342E+04  0.12527724342E+04  0.00000000000E+00 0.  1.
          2   -1    0    0  501    0  0.00000000000E+00 -0.00000000000E+00 -0.24282308098E+04  0.24282308098E+04  0.00000000000E+00 0. -1.
         23    2    1    2    0    0  0.16465190884E+03 -0.50491512995E+03  0.10737093409E+04  0.12014724634E+04  0.92923581759E+02 0.  0.
        254    2    1    2    0    0 -0.16465190884E+03  0.50491512995E+03 -0.22491677165E+04  0.24795307807E+04  0.89848090458E+03 0.  0.
        -24    2    4    4    0    0 -0.42683087443E+03  0.21197082341E+03 -0.18558278901E+04  0.19176857732E+04  0.79406182110E+02 0.  0.
         24    2    4    4    0    0  0.26217896559E+03  0.29294430654E+03 -0.39333982636E+03  0.56184500744E+03  0.79996354002E+02 0.  0.
         13    1    3    3    0    0  0.94900520584E+02 -0.25167999164E+03  0.44315239852E+03  0.51839461350E+03  0.00000000000E+00 0. -1.
        -13    1    3    3    0    0  0.69751388252E+02 -0.25323513831E+03  0.63055694235E+03  0.68307784987E+03  0.00000000000E+00 0.  1.
          4    1    6    6  502    0  0.13301980938E+03  0.12241952842E+03 -0.23085655846E+03  0.29321589522E+03  0.00000000000E+00 0. -1.
          3    1    5    5  503    0 -0.26405072280E+03  0.94432361837E+02 -0.99586433151E+03  0.10345946172E+04  0.00000000000E+00 0. -1.
         -4    1    5    5    0  503 -0.16278015163E+03  0.11753846158E+03 -0.85996355861E+03  0.88309115602E+03  0.00000000000E+00 0.  1.
         -3    1    6    6    0  502  0.12915915621E+03  0.17052477811E+03 -0.16248326790E+03  0.26862911222E+03  0.00000000000E+00 0.  1.
<mgrwt>
<rscale>  0 0.34882779E+04</rscale>
<asrwt>0</asrwt>
<pdfrwt beam="1">  1        2 0.37357397E+00 0.34882779E+04</pdfrwt>
<pdfrwt beam="2">  1       -2 0.19273422E+00 0.34882779E+04</pdfrwt>
<totfact> 0.46805753E-01</totfact>
</mgrwt>
</event>
<event>
12    1  0.1549527E-007  0.1704779E+04  0.7818608E-02  0.8758644E-01
         -2   -1    0    0    0  501 -0.00000000000E+00  0.00000000000E+00  0.11600237023E+04  0.11600237023E+04  0.00000000000E+00 0.  1.
          2   -1    0    0  501    0  0.00000000000E+00 -0.00000000000E+00 -0.62633861777E+03  0.62633861777E+03  0.00000000000E+00 0. -1.
         23    2    1    2    0    0 -0.26587302744E+03  0.14178282457E+03  0.75176579100E+03  0.81689861309E+03  0.10668038008E+03 0.  0.
        254    2    1    2    0    0  0.26587302744E+03 -0.14178282457E+03 -0.21808070642E+03  0.96946370703E+03  0.89527082421E+03 0.  0.
        -24    2    4    4    0    0  0.15056681107E+03  0.10351670172E+03  0.31111865275E+03  0.36954320083E+03  0.79882971062E+02 0.  0.
         24    2    4    4    0    0  0.11530621637E+03 -0.24529952629E+03 -0.52919935917E+03  0.59992050620E+03  0.79907890027E+02 0.  0.
         13    1    3    3    0    0 -0.10800851995E+03  0.96912523629E+02  0.45748054486E+03  0.47994408689E+03  0.00000000000E+00 0.  1.
        -13    1    3    3    0    0 -0.15786450749E+03  0.44870300940E+02  0.29428524614E+03  0.33695452620E+03  0.00000000000E+00 0. -1.
          4    1    6    6  502    0  0.90937530322E+02 -0.17010306428E+03 -0.44183990844E+03  0.48210703333E+03  0.00000000000E+00 0. -1.
          1    1    5    5  503    0  0.11148910237E+03  0.10412520664E+03  0.28265523871E+03  0.32119443111E+03  0.00000000000E+00 0. -1.
         -2    1    5    5    0  503  0.39077708696E+02 -0.60850492627E+00  0.28463414040E+02  0.48348769726E+02  0.00000000000E+00 0.  1.
         -3    1    6    6    0  502  0.24368686050E+02 -0.75196462008E+02 -0.87359450725E+02  0.11781347287E+03  0.00000000000E+00 0.  1.
<mgrwt>
<rscale>  0 0.17047787E+04</rscale>
<asrwt>0</asrwt>
<pdfrwt beam="1">  1        2 0.96359788E-01 0.17047787E+04</pdfrwt>
<pdfrwt beam="2">  1       -2 0.17846518E+00 0.17047787E+04</pdfrwt>
<totfact> 0.83118924E+00</totfact>
</mgrwt>
</event>
<event>
12    1  0.1549527E-007  0.1627970E+04  0.7818608E-02  0.8803547E-01
          1   -1    0    0  501    0  0.00000000000E+00  0.00000000000E+00  0.27588226675E+03  0.27588226675E+03  0.00000000000E+00 0. -1.
         -1   -1    0    0    0  501 -0.00000000000E+00 -0.00000000000E+00 -0.24016447272E+04  0.24016447272E+04  0.00000000000E+00 0.  1.
         23    2    1    2    0    0 -0.13606722770E+02 -0.47326774044E+03 -0.25846829768E+03  0.54696025413E+03  0.90510560959E+02 0.  0.
        254    2    1    2    0    0  0.13606722770E+02  0.47326774044E+03 -0.18672941627E+04  0.21305667398E+04  0.91014265116E+03 0.  0.
        -24    2    4    4    0    0  0.17334125585E+03  0.45261758704E+03 -0.18839012197E+04  0.19468915169E+04  0.79955625028E+02 0.  0.
         24    2    4    4    0    0 -0.15973453308E+03  0.20650153401E+02  0.16607056997E+02  0.18367522284E+03  0.86713570159E+02 0.  0.
         13    1    3    3    0    0  0.33859666717E+01 -0.38094877636E+03 -0.24289052782E+03  0.45180664391E+03  0.00000000000E+00 0. -1.
        -13    1    3    3    0    0 -0.16992689442E+02 -0.92318964086E+02 -0.15577769866E+02  0.95153610222E+02  0.00000000000E+00 0.  1.
          2    1    6    6  502    0 -0.14319289590E+03 -0.98584545851E+01 -0.34850821639E+01  0.14357416328E+03  0.00000000000E+00 0. -1.
          1    1    5    5  503    0  0.10266748363E+03  0.16340319923E+03 -0.69749178060E+03  0.72369606999E+03  0.00000000000E+00 0. -1.
         -2    1    5    5    0  503  0.70673772223E+02  0.28921438781E+03 -0.11864094391E+04  0.12231954470E+04  0.00000000000E+00 0.  1.
         -1    1    6    6    0  502 -0.16541637176E+02  0.30508607986E+02  0.20092139161E+02  0.40101059560E+02  0.00000000000E+00 0.  1.
<mgrwt>
<rscale>  0 0.16279695E+04</rscale>
<asrwt>0</asrwt>
<pdfrwt beam="1">  1        1 0.42443426E-01 0.16279695E+04</pdfrwt>
<pdfrwt beam="2">  1       -1 0.36948380E+00 0.16279695E+04</pdfrwt>
<totfact> 0.10832017E+00</totfact>
</mgrwt>
</event>
<event>
12    1  0.1549527E-007  0.1224788E+04  0.7818608E-02  0.9091432E-01
          1   -1    0    0  501    0  0.00000000000E+00  0.00000000000E+00  0.15706931024E+04  0.15706931024E+04  0.00000000000E+00 0. -1.
         -1   -1    0    0    0  501 -0.00000000000E+00 -0.00000000000E+00 -0.23876478819E+03  0.23876478819E+03  0.00000000000E+00 0.  1.
         23    2    1    2    0    0  0.22155828370E+03 -0.26916626474E+01  0.98626316656E+02  0.25965473146E+03  0.92726000182E+02 0.  0.
        254    2    1    2    0    0 -0.22155828370E+03  0.26916626474E+01  0.12333019975E+04  0.15498031591E+04  0.91200915386E+03 0.  0.
        -24    2    4    4    0    0  0.31512923985E+03  0.17608890821E+03  0.50630110009E+03  0.62639091179E+03  0.75571350460E+02 0.  0.
         24    2    4    4    0    0 -0.53668752355E+03 -0.17339724557E+03  0.72700089745E+03  0.92341224732E+03  0.77844530298E+02 0.  0.
         11    1    3    3    0    0  0.87715063150E+02 -0.25835458181E+02  0.81979530963E+02  0.12280898461E+03  0.00000000000E+00 0. -1.
        -11    1    3    3    0    0  0.13384322055E+03  0.23143795534E+02  0.16646785692E+02  0.13684574686E+03  0.00000000000E+00 0.  1.
          4    1    6    6  502    0 -0.43904397167E+03 -0.17092401261E+03  0.61680185173E+03  0.77615665393E+03  0.00000000000E+00 0. -1.
          3    1    5    5  503    0  0.20955931081E+03  0.11660027247E+03  0.39361332377E+03  0.46091450068E+03  0.00000000000E+00 0. -1.
         -4    1    5    5    0  503  0.10556992905E+03  0.59488635745E+02  0.11268777632E+03  0.16547641111E+03  0.00000000000E+00 0.  1.
         -3    1    6    6    0  502 -0.97643551885E+02 -0.24732329531E+01  0.11019904572E+03  0.14725559339E+03  0.00000000000E+00 0.  1.
<mgrwt>
<rscale>  0 0.12247877E+04</rscale>
<asrwt>0</asrwt>
<pdfrwt beam="1">  1        1 0.24164509E+00 0.12247877E+04</pdfrwt>
<pdfrwt beam="2">  1       -1 0.36733045E-01 0.12247877E+04</pdfrwt>
<totfact> 0.41073149E+01</totfact>
</mgrwt>
</event>
<event>
12    1  0.1549527E-007  0.2057786E+04  0.7818608E-02  0.8580071E-01
         -2   -1    0    0    0  501 -0.00000000000E+00  0.00000000000E+00  0.15441921216E+04  0.15441921216E+04  0.00000000000E+00 0.  1.
          2   -1    0    0  501    0  0.00000000000E+00 -0.00000000000E+00 -0.68554960012E+03  0.68554960012E+03  0.00000000000E+00 0. -1.
         23    2    1    2    0    0 -0.56740650910E+03  0.27228094090E+03 -0.23751847426E+03  0.67872184407E+03  0.90339684849E+02 0.  0.
        254    2    1    2    0    0  0.56740650910E+03 -0.27228094090E+03  0.10961609957E+04  0.15510198776E+04  0.89889191502E+03 0.  0.
        -24    2    4    4    0    0  0.58740142046E+03  0.70815403633E+02  0.27602519387E+03  0.65823816273E+03  0.83858935484E+02 0.  0.
         24    2    4    4    0    0 -0.19994911362E+02 -0.34309634453E+03  0.82013580184E+03  0.89278171489E+03  0.79508231479E+02 0.  0.
         11    1    3    3    0    0 -0.24100988613E+03  0.98534198188E+02 -0.14305869804E+03  0.29708676259E+03  0.00000000000E+00 0. -1.
        -11    1    3    3    0    0 -0.32639662298E+03  0.17374674271E+03 -0.94459776220E+02  0.38163508148E+03  0.00000000000E+00 0.  1.
          2    1    6    6  502    0 -0.15376046400E+02 -0.11350336219E+03  0.37199859353E+03  0.38923307878E+03  0.00000000000E+00 0. -1.
          3    1    5    5  503    0  0.45066246724E+01  0.46789236058E+01 -0.45777221954E+01  0.79471713550E+01  0.00000000000E+00 0. -1.
         -4    1    5    5    0  503  0.58289479579E+03  0.66136480028E+02  0.28060291607E+03  0.65029099137E+03  0.00000000000E+00 0.  1.
         -1    1    6    6    0  502 -0.46188649616E+01 -0.22959298234E+03  0.44813720831E+03  0.50354863611E+03  0.00000000000E+00 0.  1.
<mgrwt>
<rscale>  0 0.20577855E+04</rscale>
<asrwt>0</asrwt>
<pdfrwt beam="1">  1        2 0.10546917E+00 0.20577855E+04</pdfrwt>
<pdfrwt beam="2">  1       -2 0.23756802E+00 0.20577855E+04</pdfrwt>
<totfact> 0.29824097E+00</totfact>
</mgrwt>
</event>
<event>
12    1  0.1549527E-007  0.2422789E+04  0.7818608E-02  0.8431021E-01
         -1   -1    0    0    0  501 -0.00000000000E+00  0.00000000000E+00  0.24899751034E+04  0.24899751034E+04  0.00000000000E+00 0. -1.
          1   -1    0    0  501    0  0.00000000000E+00 -0.00000000000E+00 -0.58935405980E+03  0.58935405980E+03  0.00000000000E+00 0.  1.
         23    2    1    2    0    0  0.25618955228E+03 -0.70388963639E+02  0.19812474872E+04  0.20010716225E+04  0.91423957027E+02 0.  0.
        254    2    1    2    0    0 -0.25618955228E+03  0.70388963639E+02 -0.80626443610E+02  0.10782575407E+04  0.10418977914E+04 0.  0.
        -24    2    4    4    0    0  0.27636147835E+03 -0.28388551128E+03 -0.14758106034E+03  0.43011459872E+03  0.79067998810E+02 0.  0.
         24    2    4    4    0    0 -0.53255103063E+03  0.35427447492E+03  0.66954616732E+02  0.64814294197E+03  0.80531662841E+02 0.  0.
         13    1    3    3    0    0  0.10265929705E+03 -0.31877977832E+02  0.11404258473E+04  0.11454807943E+04  0.00000000000E+00 0. -1.
        -13    1    3    3    0    0  0.15353025524E+03 -0.38510985807E+02  0.84082163985E+03  0.85559082822E+03  0.00000000000E+00 0.  1.
          2    1    6    6  502    0 -0.14895474030E+01 -0.12985165120E+00  0.66808148679E+01  0.68460864891E+01  0.00000000000E+00 0. -1.
          1    1    5    5  503    0  0.19280170103E+03 -0.17845226976E+03 -0.13396454236E+03  0.29489694321E+03  0.00000000000E+00 0. -1.
         -2    1    5    5    0  503  0.83559777313E+02 -0.10543324151E+03 -0.13616517986E+02  0.13521765551E+03  0.00000000000E+00 0.  1.
         -1    1    6    6    0  502 -0.53106148323E+03  0.35440432657E+03  0.60273801864E+02  0.64129685548E+03  0.00000000000E+00 0.  1.
<mgrwt>
<rscale>  0 0.24227892E+04</rscale>
<asrwt>0</asrwt>
<pdfrwt beam="1">  1        1 0.90669857E-01 0.24227892E+04</pdfrwt>
<pdfrwt beam="2">  1       -1 0.38307309E+00 0.24227892E+04</pdfrwt>
<totfact> 0.29327618E-01</totfact>
</mgrwt>
</event>
<event>
12    1  0.1549527E-007  0.1541802E+04  0.7818608E-02  0.8857121E-01
         -2   -1    0    0    0  501 -0.00000000000E+00  0.00000000000E+00  0.61345330616E+03  0.61345330616E+03  0.00000000000E+00 0.  1.
          2   -1    0    0  501    0  0.00000000000E+00 -0.00000000000E+00 -0.96875892872E+03  0.96875892872E+03  0.00000000000E+00 0. -1.
         23    2    1    2    0    0  0.15507888638E+03  0.11978160508E+02 -0.60641207506E+03  0.63329719998E+03  0.95586617260E+02 0.  0.
        254    2    1    2    0    0 -0.15507888638E+03 -0.11978160508E+02  0.25110645250E+03  0.94891503489E+03  0.90177178689E+03 0.  0.
        -24    2    4    4    0    0 -0.25662080171E+02  0.58237418293E+02 -0.32935221415E+03  0.34457080731E+03  0.78778303090E+02 0.  0.
         24    2    4    4    0    0 -0.12941680621E+03 -0.70215578801E+02  0.58045866665E+03  0.60434422758E+03  0.81367957375E+02 0.  0.
         13    1    3    3    0    0  0.13125595215E+03  0.15883087513E+02 -0.58867823258E+03  0.60334273756E+03  0.00000000000E+00 0. -1.
        -13    1    3    3    0    0  0.23822934234E+02 -0.39049270054E+01 -0.17733842476E+02  0.29954462429E+02  0.00000000000E+00 0.  1.
          2    1    6    6  502    0 -0.87722426006E+00 -0.26196566519E+02  0.46582411355E+02  0.53450450582E+02  0.00000000000E+00 0. -1.
          1    1    5    5  503    0  0.61451963391E+01 -0.12307743446E+02 -0.13000165836E+03  0.13072748434E+03  0.00000000000E+00 0. -1.
         -2    1    5    5    0  503 -0.31807276510E+02  0.70545161739E+02 -0.19935055579E+03  0.21384332297E+03  0.00000000000E+00 0.  1.
         -1    1    6    6    0  502 -0.12853958195E+03 -0.44019012282E+02  0.53387625530E+03  0.55089377700E+03  0.00000000000E+00 0.  1.
<mgrwt>
<rscale>  0 0.15418020E+04</rscale>
<asrwt>0</asrwt>
<pdfrwt beam="1">  1        2 0.14903983E+00 0.15418020E+04</pdfrwt>
<pdfrwt beam="2">  1       -2 0.94377432E-01 0.15418020E+04</pdfrwt>
<totfact> 0.24063157E+01</totfact>
</mgrwt>
</event>
<event>
12    1  0.1549527E-007  0.1683102E+04  0.7818608E-02  0.8771061E-01
          1   -1    0    0  501    0  0.00000000000E+00  0.00000000000E+00  0.70338696282E+03  0.70338696282E+03  0.00000000000E+00 0. -1.
         -1   -1    0    0    0  501 -0.00000000000E+00 -0.00000000000E+00 -0.10068540308E+04  0.10068540308E+04  0.00000000000E+00 0.  1.
         23    2    1    2    0    0 -0.19869617500E+03  0.13228350098E+03 -0.66905831464E+03  0.71617085490E+03  0.91008628255E+02 0.  0.
        254    2    1    2    0    0  0.19869617500E+03 -0.13228350098E+03  0.36559124664E+03  0.99407013875E+03  0.89305060693E+03 0.  0.
        -24    2    4    4    0    0  0.60132441255E+02 -0.24670729985E+03  0.61888434725E+03  0.67366015609E+03  0.79496970603E+02 0.  0.
         24    2    4    4    0    0  0.13856373375E+03  0.11442379887E+03 -0.25329310061E+03  0.32040998266E+03  0.78819084711E+02 0.  0.
         11    1    3    3    0    0 -0.19411338977E+03  0.99524532410E+02 -0.52802418191E+03  0.57130961599E+03  0.00000000000E+00 0.  1.
        -11    1    3    3    0    0 -0.45827852369E+01  0.32758968573E+02 -0.14103413273E+03  0.14486123891E+03  0.00000000000E+00 0. -1.
          4    1    6    6  502    0  0.26361252600E+02  0.54397618440E+02 -0.12933427668E+03  0.14276334142E+03  0.00000000000E+00 0. -1.
          3    1    5    5  503    0  0.57656097131E+02 -0.87286838762E+02  0.20549393720E+03  0.23058832578E+03  0.00000000000E+00 0. -1.
         -4    1    5    5    0  503  0.24763441237E+01 -0.15942046109E+03  0.41339041005E+03  0.44307183031E+03  0.00000000000E+00 0.  1.
         -3    1    6    6    0  502  0.11220248115E+03  0.60026180427E+02 -0.12395882394E+03  0.17764664124E+03  0.00000000000E+00 0.  1.
<mgrwt>
<rscale>  0 0.16831019E+04</rscale>
<asrwt>0</asrwt>
<pdfrwt beam="1">  1        1 0.10821338E+00 0.16831019E+04</pdfrwt>
<pdfrwt beam="2">  1       -1 0.15490062E+00 0.16831019E+04</pdfrwt>
<totfact> 0.82393461E+00</totfact>
</mgrwt>
</event>
<event>
12    1  0.1549527E-007  0.1640184E+04  0.7818608E-02  0.8796235E-01
         -2   -1    0    0    0  501 -0.00000000000E+00  0.00000000000E+00  0.10773365666E+04  0.10773365666E+04  0.00000000000E+00 0.  1.
          2   -1    0    0  501    0  0.00000000000E+00 -0.00000000000E+00 -0.62427173259E+03  0.62427173259E+03  0.00000000000E+00 0. -1.
         23    2    1    2    0    0  0.21615005233E+03 -0.12988036497E+03  0.68806376124E+03  0.73869352582E+03  0.92987263763E+02 0.  0.
        254    2    1    2    0    0 -0.21615005233E+03  0.12988036497E+03 -0.23499892721E+03  0.96291477341E+03  0.89910545028E+03 0.  0.
        -24    2    4    4    0    0 -0.24043076502E+03 -0.13569936560E+03 -0.50049520721E+03  0.57721408229E+03  0.80370229303E+02 0.  0.
         24    2    4    4    0    0  0.24280712693E+02  0.26557973057E+03  0.26549628000E+03  0.38570069112E+03  0.84584881254E+02 0.  0.
         11    1    3    3    0    0  0.11709106206E+03 -0.18625372362E+02  0.34051964394E+03  0.36057017239E+03  0.00000000000E+00 0.  1.
        -11    1    3    3    0    0  0.99058990265E+02 -0.11125499261E+03  0.34754411730E+03  0.37812335342E+03  0.00000000000E+00 0. -1.
          4    1    6    6  502    0 -0.24123423159E+00  0.24616052619E+03  0.24978826513E+03  0.35069821819E+03  0.00000000000E+00 0. -1.
          3    1    5    5  503    0 -0.24478287960E+03 -0.12478548090E+03 -0.48821836376E+03  0.56022071106E+03  0.00000000000E+00 0. -1.
         -4    1    5    5    0  503  0.43521145797E+01 -0.10913884700E+02 -0.12276843452E+02  0.16993371228E+02  0.00000000000E+00 0.  1.
         -3    1    6    6    0  502  0.24521946924E+02  0.19419204373E+02  0.15708014879E+02  0.35002472925E+02  0.00000000000E+00 0.  1.
<mgrwt>
<rscale>  0 0.16401838E+04</rscale>
<asrwt>0</asrwt>
<pdfrwt beam="1">  1        2 0.96041805E-01 0.16401838E+04</pdfrwt>
<pdfrwt beam="2">  1       -2 0.16574409E+00 0.16401838E+04</pdfrwt>
<totfact> 0.10321605E+01</totfact>
</mgrwt>
</event>
<event>
12    1  0.1549527E-007  0.1406313E+04  0.7818608E-02  0.8949262E-01
          2   -1    0    0  501    0  0.00000000000E+00  0.00000000000E+00  0.31142187252E+04  0.31142187252E+04  0.00000000000E+00 0. -1.
         -2   -1    0    0    0  501 -0.00000000000E+00 -0.00000000000E+00 -0.15876502765E+03  0.15876502765E+03  0.00000000000E+00 0.  1.
         23    2    1    2    0    0 -0.29825838990E+02 -0.25993023455E+03  0.15027497879E+03  0.31432203581E+03  0.88104854804E+02 0.  0.
        254    2    1    2    0    0  0.29825838990E+02  0.25993023455E+03  0.28051787188E+04  0.29586617171E+04  0.90343688445E+03 0.  0.
        -24    2    4    4    0    0  0.39120750717E+03 -0.11318463089E+03  0.12700403379E+04  0.13360245532E+04  0.78134964343E+02 0.  0.
         24    2    4    4    0    0 -0.36138166818E+03  0.37311486543E+03  0.15351383809E+04  0.16226371639E+04  0.80561181876E+02 0.  0.
         13    1    3    3    0    0 -0.12666380774E+02 -0.10894450639E+03  0.11379610476E+03  0.15804713263E+03  0.00000000000E+00 0. -1.
        -13    1    3    3    0    0 -0.17159458216E+02 -0.15098572815E+03  0.36478874039E+02  0.15627490318E+03  0.00000000000E+00 0.  1.
          2    1    6    6  502    0 -0.10445087080E+03  0.16365175479E+03  0.56326474066E+03  0.59578439836E+03  0.00000000000E+00 0. -1.
          3    1    5    5  503    0  0.11111336996E+03  0.36991432849E+01  0.33928765697E+03  0.35703778345E+03  0.00000000000E+00 0. -1.
         -4    1    5    5    0  503  0.28009413721E+03 -0.11688377417E+03  0.93075268089E+03  0.97898676975E+03  0.00000000000E+00 0.  1.
         -1    1    6    6    0  502 -0.25693079738E+03  0.20946311064E+03  0.97187364028E+03  0.10268527655E+04  0.00000000000E+00 0.  1.
<mgrwt>
<rscale>  0 0.14063129E+04</rscale>
<asrwt>0</asrwt>
<pdfrwt beam="1">  1        2 0.47911053E+00 0.14063129E+04</pdfrwt>
<pdfrwt beam="2">  1       -2 0.24425391E-01 0.14063129E+04</pdfrwt>
<totfact> 0.21681478E+01</totfact>
</mgrwt>
</event>
<event>
12    1  0.1549527E-007  0.1552556E+04  0.7818608E-02  0.8850237E-01
          2   -1    0    0  501    0  0.00000000000E+00  0.00000000000E+00  0.12290948881E+04  0.12290948881E+04  0.00000000000E+00 0. -1.
         -2   -1    0    0    0  501 -0.00000000000E+00 -0.00000000000E+00 -0.49028567514E+03  0.49028567514E+03  0.00000000000E+00 0.  1.
         23    2    1    2    0    0  0.12902666563E+03 -0.42960049291E+03 -0.10657549998E+03  0.47175554355E+03  0.99952447288E+02 0.  0.
        254    2    1    2    0    0 -0.12902666563E+03  0.42960049291E+03  0.84538471290E+03  0.12476250197E+04  0.80043014242E+03 0.  0.
        -24    2    4    4    0    0 -0.20034725078E+03  0.45455959769E+03  0.96163372722E+03  0.10853153336E+04  0.80040609444E+02 0.  0.
         24    2    4    4    0    0  0.71320585154E+02 -0.24959104782E+02 -0.11624901432E+03  0.16230968610E+03  0.84386125006E+02 0.  0.
         11    1    3    3    0    0  0.89556918040E+02 -0.35662788329E+03 -0.12191764685E+03  0.38738585586E+03  0.00000000000E+00 0.  1.
        -11    1    3    3    0    0  0.39469747587E+02 -0.72972609619E+02  0.15342146869E+02  0.84369687684E+02  0.00000000000E+00 0. -1.
          2    1    6    6  502    0  0.65614617222E+02  0.14054073421E+02 -0.98223294452E+02  0.11895633882E+03  0.00000000000E+00 0. -1.
          3    1    5    5  503    0 -0.17124544597E+03  0.42278378313E+03  0.91107766908E+03  0.10188884380E+04  0.00000000000E+00 0. -1.
         -4    1    5    5    0  503 -0.29101804813E+02  0.31775814566E+02  0.50556058142E+02  0.66426895528E+02  0.00000000000E+00 0.  1.
         -1    1    6    6    0  502  0.57059679318E+01 -0.39013178203E+02 -0.18025719868E+02  0.43353347279E+02  0.00000000000E+00 0.  1.
<mgrwt>
<rscale>  0 0.15525561E+04</rscale>
<asrwt>0</asrwt>
<pdfrwt beam="1">  1        2 0.18909152E+00 0.15525561E+04</pdfrwt>
<pdfrwt beam="2">  1       -2 0.75428566E-01 0.15525561E+04</pdfrwt>
<totfact> 0.27618673E+01</totfact>
</mgrwt>
</event>
<event>
12    1  0.1549527E-007  0.2607063E+04  0.7818608E-02  0.8365806E-01
          1   -1    0    0  501    0  0.00000000000E+00  0.00000000000E+00  0.38043331286E+04  0.38043331286E+04  0.00000000000E+00 0. -1.
         -1   -1    0    0    0  501 -0.00000000000E+00 -0.00000000000E+00 -0.44664724178E+03  0.44664724178E+03  0.00000000000E+00 0.  1.
         23    2    1    2    0    0 -0.31692012372E+02  0.20525659508E+03 -0.35688510214E+03  0.42295052410E+03  0.91572464408E+02 0.  0.
        254    2    1    2    0    0  0.31692012372E+02 -0.20525659508E+03  0.37145709890E+04  0.38280298463E+04  0.90146559477E+03 0.  0.
        -24    2    4    4    0    0  0.23989661676E+02 -0.10419683098E+03  0.36951745160E+04  0.36975801314E+04  0.79697182524E+02 0.  0.
         24    2    4    4    0    0  0.77023506960E+01 -0.10105976410E+03  0.19396473003E+02  0.13044971494E+03  0.79802899921E+02 0.  0.
         11    1    3    3    0    0 -0.55217298458E+02  0.11115944741E+03 -0.24665151172E+03  0.27612015687E+03  0.00000000000E+00 0. -1.
        -11    1    3    3    0    0  0.23525286086E+02  0.94097147661E+02 -0.11023359043E+03  0.14683036723E+03  0.00000000000E+00 0.  1.
          2    1    6    6  502    0  0.12991158518E+02  0.10865912397E+02  0.31681755871E+01  0.17230078015E+02  0.00000000000E+00 0. -1.
          3    1    5    5  503    0  0.27806590892E+02 -0.19571030750E+02  0.44321579582E+03  0.44451824867E+03  0.00000000000E+00 0. -1.
         -4    1    5    5    0  503 -0.38169292161E+01 -0.84625800226E+02  0.32519587202E+04  0.32530618827E+04  0.00000000000E+00 0.  1.
         -1    1    6    6    0  502 -0.52888078218E+01 -0.11192567650E+03  0.16228297416E+02  0.11321963692E+03  0.00000000000E+00 0.  1.
<mgrwt>
<rscale>  0 0.26070634E+04</rscale>
<asrwt>0</asrwt>
<pdfrwt beam="1">  1        1 0.58528200E+00 0.26070634E+04</pdfrwt>
<pdfrwt beam="2">  1       -1 0.68714963E-01 0.26070634E+04</pdfrwt>
<totfact> 0.26691993E-01</totfact>
</mgrwt>
</event>
<event>
12    1  0.1549527E-007  0.2534501E+04  0.7818608E-02  0.8390796E-01
         -2   -1    0    0    0  501 -0.00000000000E+00  0.00000000000E+00  0.16023570280E+04  0.16023570280E+04  0.00000000000E+00 0.  1.
          2   -1    0    0  501    0  0.00000000000E+00 -0.00000000000E+00 -0.10022262961E+04  0.10022262961E+04  0.00000000000E+00 0. -1.
         23    2    1    2    0    0 -0.61130328441E+02  0.16282362825E+02  0.13981096552E+04  0.14024937517E+04  0.90972980522E+02 0.  0.
        254    2    1    2    0    0  0.61130328441E+02 -0.16282362825E+02 -0.79797892324E+03  0.12020895725E+04  0.89679816345E+03 0.  0.
        -24    2    4    4    0    0 -0.25741098539E+03  0.13485875457E+03  0.25885827242E+02  0.30227187172E+03  0.79062692211E+02 0.  0.
         24    2    4    4    0    0  0.31854131383E+03 -0.15114111739E+03 -0.82386475049E+03  0.89981770078E+03  0.81280757557E+02 0.  0.
         13    1    3    3    0    0 -0.73990676721E+02 -0.14611611905E+02  0.10795498038E+04  0.10821810839E+04  0.00000000000E+00 0. -1.
        -13    1    3    3    0    0  0.12860348279E+02  0.30893974730E+02  0.31855985139E+03  0.32031266780E+03  0.00000000000E+00 0.  1.
          4    1    6    6  502    0  0.33479542574E+01 -0.20241890109E+02 -0.44776188534E+02  0.49252918417E+02  0.00000000000E+00 0. -1.
          1    1    5    5  503    0 -0.16254494617E+03  0.46904844097E+02  0.34351751807E+02  0.17262956519E+03  0.00000000000E+00 0. -1.
         -2    1    5    5    0  503 -0.94866039216E+02  0.87953910471E+02 -0.84659245644E+01  0.12964230653E+03  0.00000000000E+00 0.  1.
         -3    1    6    6    0  502  0.31519335957E+03 -0.13089922728E+03 -0.77908856195E+03  0.85056478236E+03  0.00000000000E+00 0.  1.
<mgrwt>
<rscale>  0 0.25345014E+04</rscale>
<asrwt>0</asrwt>
<pdfrwt beam="1">  1        2 0.15418866E+00 0.25345014E+04</pdfrwt>
<pdfrwt beam="2">  1       -2 0.24651647E+00 0.25345014E+04</pdfrwt>
<totfact> 0.15073328E+00</totfact>
</mgrwt>
</event>
<event>
12    1  0.1549527E-007  0.2375520E+04  0.7818608E-02  0.8448726E-01
         -2   -1    0    0    0  501 -0.00000000000E+00  0.00000000000E+00  0.90297788760E+03  0.90297788760E+03  0.00000000000E+00 0.  1.
          2   -1    0    0  501    0  0.00000000000E+00 -0.00000000000E+00 -0.15623566538E+04  0.15623566538E+04  0.00000000000E+00 0. -1.
         23    2    1    2    0    0  0.98229990110E+03  0.15659483160E+03 -0.51777592036E+03  0.11250182629E+04  0.90217244723E+02 0.  0.
        254    2    1    2    0    0 -0.98229990110E+03 -0.15659483160E+03 -0.14160284589E+03  0.13403162785E+04  0.88710840571E+03 0.  0.
        -24    2    4    4    0    0 -0.96219241051E+03 -0.19839785205E+03  0.18376855881E+03  0.10024185470E+04  0.76786180799E+02 0.  0.
         24    2    4    4    0    0 -0.20107490593E+02  0.41803020442E+02 -0.32537140470E+03  0.33789773154E+03  0.78463509302E+02 0.  0.
         13    1    3    3    0    0  0.58277697191E+03  0.13256151236E+03 -0.33312742056E+03  0.68423346299E+03  0.00000000000E+00 0. -1.
        -13    1    3    3    0    0  0.39952292919E+03  0.24033319243E+02 -0.18464849980E+03  0.44078479994E+03  0.00000000000E+00 0.  1.
          4    1    6    6  502    0 -0.64856305169E+01 -0.97997613769E+01 -0.21478479468E+03  0.21510603606E+03  0.00000000000E+00 0. -1.
          1    1    5    5  503    0 -0.93488893477E+03 -0.19916198550E+03  0.16693860988E+03  0.97033567196E+03  0.00000000000E+00 0. -1.
         -2    1    5    5    0  503 -0.27303475739E+02  0.76413345042E+00  0.16829948932E+02  0.32082875002E+02  0.00000000000E+00 0.  1.
         -3    1    6    6    0  502 -0.13621860076E+02  0.51602781819E+02 -0.11058661002E+03  0.12279169548E+03  0.00000000000E+00 0.  1.
<mgrwt>
<rscale>  0 0.23755197E+04</rscale>
<asrwt>0</asrwt>
<pdfrwt beam="1">  1        2 0.24036256E+00 0.23755197E+04</pdfrwt>
<pdfrwt beam="2">  1       -2 0.13891968E+00 0.23755197E+04</pdfrwt>
<totfact> 0.38663969E+00</totfact>
</mgrwt>
</event>
<event>
12    1  0.1549527E-007  0.2000072E+04  0.7818608E-02  0.8606587E-01
          1   -1    0    0  501    0  0.00000000000E+00  0.00000000000E+00  0.13333007734E+04  0.13333007734E+04  0.00000000000E+00 0. -1.
         -1   -1    0    0    0  501 -0.00000000000E+00 -0.00000000000E+00 -0.75007267909E+03  0.75007267909E+03  0.00000000000E+00 0.  1.
         23    2    1    2    0    0 -0.68403444297E+03  0.38867296276E+03  0.15077794573E+03  0.80505597222E+03  0.80070833321E+02 0.  0.
        254    2    1    2    0    0  0.68403444297E+03 -0.38867296276E+03  0.43245014862E+03  0.12783174803E+04  0.91000695507E+03 0.  0.
        -24    2    4    4    0    0  0.10309438379E+03 -0.20073064127E+03 -0.25850175432E+03  0.35273148913E+03  0.81701310423E+02 0.  0.
         24    2    4    4    0    0  0.58094005918E+03 -0.18794232148E+03  0.69095190294E+03  0.92558599117E+03  0.80506063881E+02 0.  0.
         11    1    3    3    0    0 -0.20788222944E+03  0.14646071964E+03  0.77465771797E+02  0.26583210775E+03  0.00000000000E+00 0. -1.
        -11    1    3    3    0    0 -0.47615221353E+03  0.24221224312E+03  0.73312173932E+02  0.53922386447E+03  0.00000000000E+00 0.  1.
          2    1    6    6  502    0  0.57185916870E+03 -0.17172914598E+03  0.67391656059E+03  0.90037622083E+03  0.00000000000E+00 0. -1.
          1    1    5    5  503    0  0.96315144923E+02 -0.19963040114E+03 -0.26343354012E+03  0.34427624702E+03  0.00000000000E+00 0. -1.
         -2    1    5    5    0  503  0.67792388673E+01 -0.11002401363E+01  0.49317858047E+01  0.84552421136E+01  0.00000000000E+00 0.  1.
         -1    1    6    6    0  502  0.90808904812E+01 -0.16213175501E+02  0.17035342344E+02  0.25209770339E+02  0.00000000000E+00 0.  1.
<mgrwt>
<rscale>  0 0.20000725E+04</rscale>
<asrwt>0</asrwt>
<pdfrwt beam="1">  1        1 0.20512320E+00 0.20000725E+04</pdfrwt>
<pdfrwt beam="2">  1       -1 0.11539580E+00 0.20000725E+04</pdfrwt>
<totfact> 0.54084826E+00</totfact>
</mgrwt>
</event>
<event>
12    1  0.1549527E-007  0.1609147E+04  0.7818608E-02  0.8814948E-01
         -1   -1    0    0    0  501 -0.00000000000E+00  0.00000000000E+00  0.50080430510E+03  0.50080430510E+03  0.00000000000E+00 0.  1.
          1   -1    0    0  501    0  0.00000000000E+00 -0.00000000000E+00 -0.12925973055E+04  0.12925973055E+04  0.00000000000E+00 0. -1.
         23    2    1    2    0    0 -0.14796277503E+02  0.56692883875E+03 -0.39039063487E+03  0.69462769956E+03  0.92062778389E+02 0.  0.
        254    2    1    2    0    0  0.14796277503E+02 -0.56692883875E+03 -0.40140236555E+03  0.10987739111E+04  0.85120679658E+03 0.  0.
        -24    2    4    4    0    0 -0.19623743592E+03 -0.25828227600E+03 -0.58684052541E+03  0.67540985788E+03  0.81103689812E+02 0.  0.
         24    2    4    4    0    0  0.21103371342E+03 -0.30864656275E+03  0.18543815986E+03  0.42336405319E+03  0.71076589012E+02 0.  0.
         13    1    3    3    0    0  0.11800701630E+02  0.44962439134E+03 -0.34174453181E+03  0.56488111570E+03  0.00000000000E+00 0. -1.
        -13    1    3    3    0    0 -0.26596979133E+02  0.11730444741E+03 -0.48646103059E+02  0.12974658386E+03  0.00000000000E+00 0.  1.
          2    1    6    6  502    0  0.20664935179E+03 -0.26550492705E+03  0.17261573202E+03  0.37814416804E+03  0.00000000000E+00 0. -1.
          1    1    5    5  503    0 -0.11636727087E+03 -0.15340906281E+03 -0.26456742061E+03  0.32721797373E+03  0.00000000000E+00 0. -1.
         -2    1    5    5    0  503 -0.79870165050E+02 -0.10487321319E+03 -0.32227310480E+03  0.34819188415E+03  0.00000000000E+00 0.  1.
         -1    1    6    6    0  502  0.43843616390E+01 -0.43141635694E+02  0.12822427839E+02  0.45219885150E+02  0.00000000000E+00 0.  1.
<mgrwt>
<rscale>  0 0.16091467E+04</rscale>
<asrwt>0</asrwt>
<pdfrwt beam="1">  1        1 0.19886113E+00 0.16091467E+04</pdfrwt>
<pdfrwt beam="2">  1       -1 0.77046815E-01 0.16091467E+04</pdfrwt>
<totfact> 0.14833525E+01</totfact>
</mgrwt>
</event>
<event>
12    1  0.1715999E-007  0.1879622E+04  0.7818608E-02  0.8665067E-01
          2   -1    0    0  501    0  0.00000000000E+00  0.00000000000E+00  0.15924495453E+04  0.15924495453E+04  0.00000000000E+00 0. -1.
         -2   -1    0    0    0  501 -0.00000000000E+00 -0.00000000000E+00 -0.55464520187E+03  0.55464520187E+03  0.00000000000E+00 0.  1.
         23    2    1    2    0    0 -0.34558590170E+03 -0.26773744875E+03  0.10664802894E+04  0.11562671508E+04  0.91981298828E+02 0.  0.
        254    2    1    2    0    0  0.34558590170E+03  0.26773744875E+03 -0.28675945923E+02  0.99082759645E+03  0.88870920952E+03 0.  0.
        -24    2    4    4    0    0  0.61480549612E+03  0.22988629750E+03  0.11800043559E+03  0.67160045122E+03  0.79306717504E+02 0.  0.
         24    2    4    4    0    0 -0.26921959442E+03  0.37851151242E+02 -0.14667638151E+03  0.31922714522E+03  0.80499128474E+02 0.  0.
         11    1    3    3    0    0 -0.23230206580E+03 -0.22225549787E+03  0.70813210433E+03  0.77769713468E+03  0.00000000000E+00 0. -1.
        -11    1    3    3    0    0 -0.11328383591E+03 -0.45481950878E+02  0.35834818507E+03  0.37857001608E+03  0.00000000000E+00 0.  1.
          4    1    6    6  502    0 -0.73555014568E+02  0.31410084597E+01 -0.82107645747E+02  0.11028087591E+03  0.00000000000E+00 0. -1.
          3    1    5    5  503    0  0.67913812266E+02  0.30033862047E+02  0.39374792721E+02  0.84051728523E+02  0.00000000000E+00 0. -1.
         -4    1    5    5    0  503  0.54689168386E+03  0.19985243546E+03  0.78625642867E+02  0.58754872270E+03  0.00000000000E+00 0.  1.
         -3    1    6    6    0  502 -0.19566457985E+03  0.34710142782E+02 -0.64568735763E+02  0.20894626931E+03  0.00000000000E+00 0.  1.
<mgrwt>
<rscale>  0 0.18796218E+04</rscale>
<asrwt>0</asrwt>
<pdfrwt beam="1">  1        2 0.24499224E+00 0.18796218E+04</pdfrwt>
<pdfrwt beam="2">  1       -2 0.85330032E-01 0.18796218E+04</pdfrwt>
<totfact> 0.12616402E+01</totfact>
</mgrwt>
</event>
<event>
12    1  0.1549527E-007  0.1393098E+04  0.7818608E-02  0.8958830E-01
          1   -1    0    0  501    0  0.00000000000E+00  0.00000000000E+00  0.49623327789E+03  0.49623327789E+03  0.00000000000E+00 0. -1.
         -1   -1    0    0    0  501 -0.00000000000E+00 -0.00000000000E+00 -0.97772635709E+03  0.97772635709E+03  0.00000000000E+00 0.  1.
         23    2    1    2    0    0  0.32818804673E+02 -0.32967852774E+03  0.62081856235E+02  0.35109814074E+03  0.98238189951E+02 0.  0.
        254    2    1    2    0    0 -0.32818804673E+02  0.32967852774E+03 -0.54357493543E+03  0.11228614942E+04  0.92497525330E+03 0.  0.
        -24    2    4    4    0    0 -0.16844829110E+03 -0.16671297805E+03  0.12192567118E+03  0.27797314906E+03  0.78963019683E+02 0.  0.
         24    2    4    4    0    0  0.13562948643E+03  0.49639150579E+03 -0.66550060661E+03  0.84488834518E+03  0.78392434677E+02 0.  0.
         11    1    3    3    0    0  0.11115440657E+02  0.23045831649E+00  0.12583362438E+02  0.16791281734E+02  0.00000000000E+00 0. -1.
        -11    1    3    3    0    0  0.21703364017E+02 -0.32990898606E+03  0.49498493797E+02  0.33430685901E+03  0.00000000000E+00 0.  1.
          2    1    6    6  502    0  0.75217058355E+02  0.38590753792E+03 -0.47624471707E+03  0.61756883360E+03  0.00000000000E+00 0. -1.
          1    1    5    5  503    0 -0.91129817651E+02 -0.14172004891E+03  0.79445842352E+02  0.18628166253E+03  0.00000000000E+00 0. -1.
         -2    1    5    5    0  503 -0.77318473452E+02 -0.24992929140E+02  0.42479828827E+02  0.91691486525E+02  0.00000000000E+00 0.  1.
         -1    1    6    6    0  502  0.60412428075E+02  0.11048396787E+03 -0.18925588954E+03  0.22731951158E+03  0.00000000000E+00 0.  1.
<mgrwt>
<rscale>  0 0.13930978E+04</rscale>
<asrwt>0</asrwt>
<pdfrwt beam="1">  1        1 0.76343581E-01 0.13930978E+04</pdfrwt>
<pdfrwt beam="2">  1       -1 0.15041944E+00 0.13930978E+04</pdfrwt>
<totfact> 0.15131550E+01</totfact>
</mgrwt>
</event>
<event>
12    1  0.1549527E-007  0.2072822E+04  0.7818608E-02  0.8573311E-01
          2   -1    0    0  501    0  0.00000000000E+00  0.00000000000E+00  0.93246029480E+03  0.93246029480E+03  0.00000000000E+00 0. -1.
         -2   -1    0    0    0  501 -0.00000000000E+00 -0.00000000000E+00 -0.11519503996E+04  0.11519503996E+04  0.00000000000E+00 0.  1.
         23    2    1    2    0    0 -0.16598718360E+03  0.63768434067E+03 -0.61043333558E+03  0.90330185738E+03  0.95563198455E+02 0.  0.
        254    2    1    2    0    0  0.16598718360E+03 -0.63768434067E+03  0.39094323083E+03  0.11811088370E+04  0.89888175619E+03 0.  0.
        -24    2    4    4    0    0  0.27211203915E+03 -0.53596771069E+02  0.49570313060E+03  0.57369852624E+03  0.80565685046E+02 0.  0.
         24    2    4    4    0    0 -0.10612485555E+03 -0.58408756960E+03 -0.10475989977E+03  0.60741031074E+03  0.74510905662E+02 0.  0.
         13    1    3    3    0    0 -0.13753851834E+03  0.35422892979E+03 -0.37267576856E+03  0.53224262062E+03  0.00000000000E+00 0.  1.
        -13    1    3    3    0    0 -0.28448665265E+02  0.28345541088E+03 -0.23775756702E+03  0.37105923676E+03  0.00000000000E+00 0. -1.
          4    1    6    6  502    0 -0.78750893525E+02 -0.54383219595E+03 -0.99582698866E+02  0.55845489925E+03  0.00000000000E+00 0. -1.
          3    1    5    5  503    0  0.25193999567E+03 -0.58473756926E+02  0.48654109238E+03  0.55101286395E+03  0.00000000000E+00 0. -1.
         -4    1    5    5    0  503  0.20172043484E+02  0.48769858564E+01  0.91620382247E+01  0.22685662296E+02  0.00000000000E+00 0.  1.
         -3    1    6    6    0  502 -0.27373962025E+02 -0.40255373649E+02 -0.51772009089E+01  0.48955411487E+02  0.00000000000E+00 0.  1.
<mgrwt>
<rscale>  0 0.20728222E+04</rscale>
<asrwt>0</asrwt>
<pdfrwt beam="1">  1        2 0.14345543E+00 0.20728222E+04</pdfrwt>
<pdfrwt beam="2">  1       -2 0.17722314E+00 0.20728222E+04</pdfrwt>
<totfact> 0.48807803E+00</totfact>
</mgrwt>
</event>
<event>
12    1  0.1549527E-007  0.1755846E+04  0.7818608E-02  0.8730139E-01
          1   -1    0    0  501    0  0.00000000000E+00  0.00000000000E+00  0.90337418110E+03  0.90337418110E+03  0.00000000000E+00 0. -1.
         -1   -1    0    0    0  501 -0.00000000000E+00 -0.00000000000E+00 -0.85318882018E+03  0.85318882018E+03  0.00000000000E+00 0.  1.
         23    2    1    2    0    0 -0.24457738305E+03  0.59268535297E+03  0.98304657679E+02  0.65502103555E+03  0.91075393915E+02 0.  0.
        254    2    1    2    0    0  0.24457738305E+03 -0.59268535297E+03 -0.48119296759E+02  0.11015419657E+04  0.89441892400E+03 0.  0.
        -24    2    4    4    0    0  0.34983829389E+03 -0.15067236775E+03  0.32654285385E+03  0.50756440191E+03  0.76827029126E+02 0.  0.
         24    2    4    4    0    0 -0.10526091084E+03 -0.44201298522E+03 -0.37466215061E+03  0.59397756382E+03  0.77345205161E+02 0.  0.
         13    1    3    3    0    0 -0.12673428155E+03  0.23786300499E+03  0.45126012243E+01  0.26955658187E+03  0.00000000000E+00 0. -1.
        -13    1    3    3    0    0 -0.11784310149E+03  0.35482234798E+03  0.93792056455E+02  0.38546445368E+03  0.00000000000E+00 0.  1.
          4    1    6    6  502    0 -0.49358783828E+02 -0.11206231568E+03 -0.13560606899E+03  0.18271085924E+03  0.00000000000E+00 0. -1.
          3    1    5    5  503    0  0.25605771184E+02 -0.36993937937E+02  0.37348178489E+02  0.58473014276E+02  0.00000000000E+00 0. -1.
         -4    1    5    5    0  503  0.32423252271E+03 -0.11367842981E+03  0.28919467536E+03  0.44909138763E+03  0.00000000000E+00 0.  1.
         -3    1    6    6    0  502 -0.55902127017E+02 -0.32995066954E+03 -0.23905608162E+03  0.41126670458E+03  0.00000000000E+00 0.  1.
<mgrwt>
<rscale>  0 0.17558460E+04</rscale>
<asrwt>0</asrwt>
<pdfrwt beam="1">  1        1 0.13898064E+00 0.17558460E+04</pdfrwt>
<pdfrwt beam="2">  1       -1 0.13125982E+00 0.17558460E+04</pdfrwt>
<totfact> 0.84767620E+00</totfact>
</mgrwt>
</event>
<event>
12    1  0.1549527E-007  0.2513097E+04  0.7818608E-02  0.8398334E-01
         -1   -1    0    0    0  501 -0.00000000000E+00  0.00000000000E+00  0.65050790641E+03  0.65050790641E+03  0.00000000000E+00 0.  1.
          1   -1    0    0  501    0  0.00000000000E+00 -0.00000000000E+00 -0.24272028574E+04  0.24272028574E+04  0.00000000000E+00 0. -1.
         23    2    1    2    0    0  0.87142848952E+03  0.38607214759E+03 -0.12073224305E+03  0.96512924500E+03  0.91972112900E+02 0.  0.
        254    2    1    2    0    0 -0.87142848952E+03 -0.38607214759E+03 -0.16559627079E+04  0.21125815188E+04  0.90130398203E+03 0.  0.
        -24    2    4    4    0    0 -0.68086749350E+03 -0.37460769915E+03 -0.17255929662E+04  0.18941872634E+04  0.79767360076E+02 0.  0.
         24    2    4    4    0    0 -0.19056099601E+03 -0.11464448437E+02  0.69630258330E+02  0.21839425538E+03  0.80017192695E+02 0.  0.
         11    1    3    3    0    0  0.16190238612E+03  0.71481719691E+02 -0.58922714149E+02  0.18653124436E+03  0.00000000000E+00 0. -1.
        -11    1    3    3    0    0  0.70952610339E+03  0.31459042790E+03 -0.61809528897E+02  0.77859800063E+03  0.00000000000E+00 0.  1.
          4    1    6    6  502    0 -0.14962577200E+03  0.18598004634E+02  0.72950018933E+02  0.16749764979E+03  0.00000000000E+00 0. -1.
          3    1    5    5  503    0 -0.56437970324E+03 -0.29201351142E+03 -0.14686984571E+04  0.16002723200E+04  0.00000000000E+00 0. -1.
         -4    1    5    5    0  503 -0.11648779026E+03 -0.82594187729E+02 -0.25689450911E+03  0.29391494337E+03  0.00000000000E+00 0.  1.
         -3    1    6    6    0  502 -0.40935224014E+02 -0.30062453072E+02 -0.33197606032E+01  0.50896605586E+02  0.00000000000E+00 0.  1.
<mgrwt>
<rscale>  0 0.25130974E+04</rscale>
<asrwt>0</asrwt>
<pdfrwt beam="1">  1        1 0.37341583E+00 0.25130974E+04</pdfrwt>
<pdfrwt beam="2">  1       -1 0.10007814E+00 0.25130974E+04</pdfrwt>
<totfact> 0.12841594E+00</totfact>
</mgrwt>
</event>
<event>
12    1  0.1549527E-007  0.1525736E+04  0.7818608E-02  0.8867517E-01
          2   -1    0    0  501    0  0.00000000000E+00  0.00000000000E+00  0.13939266539E+04  0.13939266539E+04  0.00000000000E+00 0. -1.
         -2   -1    0    0    0  501 -0.00000000000E+00 -0.00000000000E+00 -0.41750205414E+03  0.41750205414E+03  0.00000000000E+00 0.  1.
         23    2    1    2    0    0  0.37960438067E+03  0.28842174571E+03  0.20800467970E+03  0.52814901042E+03  0.91590617456E+02 0.  0.
        254    2    1    2    0    0 -0.37960438067E+03 -0.28842174571E+03  0.76841992002E+03  0.12832796976E+04  0.91052238827E+03 0.  0.
        -24    2    4    4    0    0 -0.35500949311E+03 -0.45320731170E+03  0.99860789712E+02  0.59013398814E+03  0.82809051837E+02 0.  0.
         24    2    4    4    0    0 -0.24594887562E+02  0.16478556599E+03  0.66855913031E+03  0.69314570944E+03  0.75633805589E+02 0.  0.
         11    1    3    3    0    0  0.11638890203E+03  0.80671615361E+02  0.18048964535E+02  0.14275871659E+03  0.00000000000E+00 0. -1.
        -11    1    3    3    0    0  0.26321547864E+03  0.20775013034E+03  0.18995571516E+03  0.38539029383E+03  0.00000000000E+00 0.  1.
          2    1    6    6  502    0 -0.86559107718E+01  0.15761507137E+03  0.64360301481E+03  0.66267810903E+03  0.00000000000E+00 0. -1.
          1    1    5    5  503    0 -0.29546500052E+03 -0.38066124946E+03  0.51684451786E+02  0.48463783996E+03  0.00000000000E+00 0. -1.
         -2    1    5    5    0  503 -0.59544492594E+02 -0.72546062240E+02  0.48176337926E+02  0.10549614818E+03  0.00000000000E+00 0.  1.
         -1    1    6    6    0  502 -0.15938976791E+02  0.71704946228E+01  0.24956115501E+02  0.30467600417E+02  0.00000000000E+00 0.  1.
<mgrwt>
<rscale>  0 0.15257355E+04</rscale>
<asrwt>0</asrwt>
<pdfrwt beam="1">  1        2 0.21445025E+00 0.15257355E+04</pdfrwt>
<pdfrwt beam="2">  1       -2 0.64231086E-01 0.15257355E+04</pdfrwt>
<totfact> 0.31503488E+01</totfact>
</mgrwt>
</event>
<event>
12    1  0.1549527E-007  0.1808189E+04  0.7818608E-02  0.8701956E-01
         -2   -1    0    0    0  501 -0.00000000000E+00  0.00000000000E+00  0.43995749861E+04  0.43995749861E+04  0.00000000000E+00 0.  1.
          2   -1    0    0  501    0  0.00000000000E+00 -0.00000000000E+00 -0.18578778832E+03  0.18578778832E+03  0.00000000000E+00 0. -1.
         23    2    1    2    0    0 -0.41740319851E+03 -0.51132954383E+03  0.12156695646E+04  0.13866120481E+04  0.95692993192E+02 0.  0.
        254    2    1    2    0    0  0.41740319851E+03  0.51132954383E+03  0.29981176331E+04  0.31987507264E+04  0.89867320794E+03 0.  0.
        -24    2    4    4    0    0  0.57780144990E+03  0.64043232664E+02  0.11799186220E+04  0.13178205705E+04  0.80542227307E+02 0.  0.
         24    2    4    4    0    0 -0.16039825139E+03  0.44728631117E+03  0.18181990112E+04  0.18809301558E+04  0.79107292984E+02 0.  0.
         13    1    3    3    0    0 -0.19693820414E+03 -0.28434080665E+03  0.71613709573E+03  0.79529031835E+03  0.00000000000E+00 0.  1.
        -13    1    3    3    0    0 -0.22046499437E+03 -0.22698873719E+03  0.49953246892E+03  0.59132172973E+03  0.00000000000E+00 0. -1.
          2    1    6    6  502    0 -0.13491745026E+03  0.30073653960E+03  0.13507368118E+04  0.13903722952E+04  0.00000000000E+00 0. -1.
          1    1    5    5  503    0  0.47088316093E+03  0.58628782135E+02  0.88698569003E+03  0.10059383180E+04  0.00000000000E+00 0. -1.
         -2    1    5    5    0  503  0.10691828897E+03  0.54144505289E+01  0.29293293196E+03  0.31188225249E+03  0.00000000000E+00 0.  1.
         -1    1    6    6    0  502 -0.25480801132E+02  0.14654977157E+03  0.46746219940E+03  0.49055786064E+03  0.00000000000E+00 0.  1.
<mgrwt>
<rscale>  0 0.18081895E+04</rscale>
<asrwt>0</asrwt>
<pdfrwt beam="1">  1        2 0.28582740E-01 0.18081895E+04</pdfrwt>
<pdfrwt beam="2">  1       -2 0.67685761E+00 0.18081895E+04</pdfrwt>
<totfact> 0.47918780E-02</totfact>
</mgrwt>
</event>
<event>
12    1  0.1549527E-007  0.2841851E+04  0.7818608E-02  0.8290392E-01
          2   -1    0    0  501    0  0.00000000000E+00  0.00000000000E+00  0.23729745993E+04  0.23729745993E+04  0.00000000000E+00 0. -1.
         -2   -1    0    0    0  501 -0.00000000000E+00 -0.00000000000E+00 -0.85084336358E+03  0.85084336358E+03  0.00000000000E+00 0.  1.
         23    2    1    2    0    0 -0.21155471941E+03  0.10320931907E+04 -0.10907316312E+03  0.10629929660E+04  0.89918503623E+02 0.  0.
        254    2    1    2    0    0  0.21155471941E+03 -0.10320931907E+04  0.16312043988E+04  0.21608249968E+04  0.94782125038E+03 0.  0.
        -24    2    4    4    0    0  0.46582536878E+03 -0.10007197440E+04  0.10720987767E+04  0.15404525637E+04  0.71868170443E+02 0.  0.
         24    2    4    4    0    0 -0.25427064937E+03 -0.31373446727E+02  0.55910562212E+03  0.62037243312E+03  0.81394120142E+02 0.  0.
         13    1    3    3    0    0 -0.19845979069E+03  0.83009011487E+03 -0.11014920306E+03  0.86056303329E+03  0.00000000000E+00 0.  1.
        -13    1    3    3    0    0 -0.13094928717E+02  0.20200307582E+03  0.10760399355E+01  0.20242993272E+03  0.00000000000E+00 0. -1.
          2    1    6    6  502    0 -0.24952241613E+02 -0.10220084053E+02  0.18333628954E+02  0.32606539684E+02  0.00000000000E+00 0. -1.
          3    1    5    5  503    0  0.49585026497E+02 -0.16802740983E+03  0.16494188388E+03  0.24061943057E+03  0.00000000000E+00 0. -1.
         -4    1    5    5    0  503  0.41624034228E+03 -0.83269233413E+03  0.90715689282E+03  0.12998331332E+04  0.00000000000E+00 0.  1.
         -1    1    6    6    0  502 -0.22931840776E+03 -0.21153362673E+02  0.54077199317E+03  0.58776589343E+03  0.00000000000E+00 0.  1.
<mgrwt>
<rscale>  0 0.28418513E+04</rscale>
<asrwt>0</asrwt>
<pdfrwt beam="1">  1        2 0.36507301E+00 0.28418513E+04</pdfrwt>
<pdfrwt beam="2">  1       -2 0.13089898E+00 0.28418513E+04</pdfrwt>
<totfact> 0.15244455E+00</totfact>
</mgrwt>
</event>
<event>
12    1  0.1549527E-007  0.1455404E+04  0.7818608E-02  0.8914663E-01
          2   -1    0    0  501    0  0.00000000000E+00  0.00000000000E+00  0.11613478773E+04  0.11613478773E+04  0.00000000000E+00 0. -1.
         -2   -1    0    0    0  501 -0.00000000000E+00 -0.00000000000E+00 -0.45597886392E+03  0.45597886392E+03  0.00000000000E+00 0.  1.
         23    2    1    2    0    0  0.17154797258E+03 -0.13914958617E+03 -0.19805345834E+03  0.31028893219E+03  0.90899586628E+02 0.  0.
        254    2    1    2    0    0 -0.17154797258E+03  0.13914958617E+03  0.90342247168E+03  0.13070378090E+04  0.91835960147E+03 0.  0.
        -24    2    4    4    0    0 -0.15760167765E+03  0.28197494087E+03  0.10412814476E+04  0.10931271515E+04  0.79446586348E+02 0.  0.
         24    2    4    4    0    0 -0.13946294933E+02 -0.14282535470E+03 -0.13785897594E+03  0.21391065752E+03  0.78479876823E+02 0.  0.
         13    1    3    3    0    0  0.95261453195E+01 -0.10337177754E+02  0.96556343078E+01  0.17053913406E+02  0.00000000000E+00 0. -1.
        -13    1    3    3    0    0  0.16202182726E+03 -0.12881240842E+03 -0.20770909264E+03  0.29323501878E+03  0.00000000000E+00 0.  1.
          4    1    6    6  502    0 -0.27199825724E+02 -0.12772088836E+03 -0.81148030768E+02  0.15374478443E+03  0.00000000000E+00 0. -1.
          1    1    5    5  503    0 -0.95412230983E+02  0.23124649215E+03  0.73027519125E+03  0.77193282668E+03  0.00000000000E+00 0. -1.
         -2    1    5    5    0  503 -0.62189446666E+02  0.50728448727E+02  0.31100625638E+03  0.32119432481E+03  0.00000000000E+00 0.  1.
         -3    1    6    6    0  502  0.13253530792E+02 -0.15104466336E+02 -0.56710945172E+02  0.60165873085E+02  0.00000000000E+00 0.  1.
<mgrwt>
<rscale>  0 0.14554038E+04</rscale>
<asrwt>0</asrwt>
<pdfrwt beam="1">  1        2 0.17866890E+00 0.14554038E+04</pdfrwt>
<pdfrwt beam="2">  1       -2 0.70150595E-01 0.14554038E+04</pdfrwt>
<totfact> 0.35845430E+01</totfact>
</mgrwt>
</event>
<event>
12    1  0.1549527E-007  0.1232512E+04  0.7818608E-02  0.9084865E-01
         -2   -1    0    0    0  501 -0.00000000000E+00  0.00000000000E+00  0.22836992171E+03  0.22836992171E+03  0.00000000000E+00 0.  1.
          2   -1    0    0  501    0  0.00000000000E+00 -0.00000000000E+00 -0.16629657663E+04  0.16629657663E+04  0.00000000000E+00 0. -1.
         23    2    1    2    0    0  0.56123686859E+02  0.26901258549E+02  0.75863874869E+02  0.13448300086E+03  0.91960883379E+02 0.  0.
        254    2    1    2    0    0 -0.56123686859E+02 -0.26901258549E+02 -0.15104597194E+04  0.17568526871E+04  0.89508058535E+03 0.  0.
        -24    2    4    4    0    0  0.10854178663E+03  0.23290381890E+03 -0.65771335267E+02  0.27762272614E+03  0.81993909684E+02 0.  0.
         24    2    4    4    0    0 -0.16466547349E+03 -0.25980507745E+03 -0.14446883842E+04  0.14792299610E+04  0.79895892720E+02 0.  0.
         11    1    3    3    0    0 -0.17062290804E+02  0.25152337239E+02  0.19565270643E+01  0.30456359504E+02  0.00000000000E+00 0. -1.
        -11    1    3    3    0    0  0.73185977663E+02  0.17489213103E+01  0.73907347804E+02  0.10402664136E+03  0.00000000000E+00 0.  1.
          2    1    6    6  502    0 -0.12524275778E+03 -0.18693533077E+03 -0.11994925531E+04  0.12204150733E+04  0.00000000000E+00 0. -1.
          3    1    5    5  503    0  0.52332620417E+02  0.18664136007E+03 -0.28778765506E+02  0.19596407271E+03  0.00000000000E+00 0. -1.
         -4    1    5    5    0  503  0.56209166211E+02  0.46262458832E+02 -0.36992569761E+02  0.81658653435E+02  0.00000000000E+00 0.  1.
         -1    1    6    6    0  502 -0.39422715711E+02 -0.72869746677E+02 -0.24519583106E+03  0.25881488764E+03  0.00000000000E+00 0.  1.
<mgrwt>
<rscale>  0 0.12325118E+04</rscale>
<asrwt>0</asrwt>
<pdfrwt beam="1">  1        2 0.25584088E+00 0.12325118E+04</pdfrwt>
<pdfrwt beam="2">  1       -2 0.35133835E-01 0.12325118E+04</pdfrwt>
<totfact> 0.76989756E+01</totfact>
</mgrwt>
</event>
<event>
12    1  0.1549527E-007  0.1016289E+04  0.7818608E-02  0.9290857E-01
         -1   -1    0    0    0  501 -0.00000000000E+00  0.00000000000E+00  0.55122637998E+03  0.55122637998E+03  0.00000000000E+00 0.  1.
          1   -1    0    0  501    0  0.00000000000E+00 -0.00000000000E+00 -0.46843004787E+03  0.46843004787E+03  0.00000000000E+00 0. -1.
         23    2    1    2    0    0  0.11164596792E+02 -0.70507731120E+01  0.82602575067E+02  0.12410476039E+03  0.91675757537E+02 0.  0.
        254    2    1    2    0    0 -0.11164596792E+02  0.70507731120E+01  0.19375704796E+00  0.89555166747E+03  0.89545429249E+03 0.  0.
        -24    2    4    4    0    0  0.73003568864E+00  0.95933320856E+02  0.43071992804E+03  0.44845821411E+03  0.79946096803E+02 0.  0.
         24    2    4    4    0    0 -0.11894632481E+02 -0.88882547744E+02 -0.43052617099E+03  0.44709345335E+03  0.80611305351E+02 0.  0.
         11    1    3    3    0    0 -0.22898286959E+02  0.37596440450E+01 -0.96808337197E+01  0.25143289572E+02  0.00000000000E+00 0. -1.
        -11    1    3    3    0    0  0.34062883751E+02 -0.10810417157E+02  0.92283408786E+02  0.98961470814E+02  0.00000000000E+00 0.  1.
          2    1    6    6  502    0  0.23820923651E+02 -0.13569832112E+02 -0.45273789428E+02  0.52927240211E+02  0.00000000000E+00 0. -1.
          3    1    5    5  503    0  0.18890616816E+02 -0.69674674668E+01  0.80737487162E+02  0.83210232783E+02  0.00000000000E+00 0. -1.
         -4    1    5    5    0  503 -0.18160581127E+02  0.10290078832E+03  0.34998244087E+03  0.36524798133E+03  0.00000000000E+00 0.  1.
         -1    1    6    6    0  502 -0.35715556131E+02 -0.75312715632E+02 -0.38525238156E+03  0.39416621314E+03  0.00000000000E+00 0.  1.
<mgrwt>
<rscale>  0 0.10162893E+04</rscale>
<asrwt>0</asrwt>
<pdfrwt beam="1">  1        1 0.72066161E-01 0.10162893E+04</pdfrwt>
<pdfrwt beam="2">  1       -1 0.84804059E-01 0.10162893E+04</pdfrwt>
<totfact> 0.66860576E+01</totfact>
</mgrwt>
</event>
<event>
12    1  0.1549527E-007  0.2695984E+04  0.7818608E-02  0.8336309E-01
         -4   -1    0    0    0  501 -0.00000000000E+00  0.00000000000E+00  0.18139968560E+04  0.18139968560E+04  0.00000000000E+00 0.  1.
          4   -1    0    0  501    0  0.00000000000E+00 -0.00000000000E+00 -0.10017006633E+04  0.10017006633E+04  0.00000000000E+00 0. -1.
         23    2    1    2    0    0 -0.41531534809E+03 -0.54947432726E+03  0.13832051129E+04  0.15478099535E+04  0.89723983819E+02 0.  0.
        254    2    1    2    0    0  0.41531534809E+03  0.54947432726E+03 -0.57090892015E+03  0.12678875658E+04  0.89843920753E+03 0.  0.
        -24    2    4    4    0    0  0.16383343166E+02  0.42132589832E+03 -0.70122643856E+03  0.82216231468E+03  0.80302098507E+02 0.  0.
         24    2    4    4    0    0  0.39893200492E+03  0.12814842894E+03  0.13031751840E+03  0.44572525108E+03  0.78227740955E+02 0.  0.
         11    1    3    3    0    0 -0.41177115295E+03 -0.55201602619E+03  0.13803149300E+04  0.15425778689E+04  0.00000000000E+00 0.  1.
        -11    1    3    3    0    0 -0.35441951411E+01  0.25416989351E+01  0.28901828712E+01  0.52320846423E+01  0.00000000000E+00 0. -1.
          4    1    6    6  502    0  0.15147550437E+03  0.39824739849E+02  0.87820211796E+02  0.17956399396E+03  0.00000000000E+00 0. -1.
          1    1    5    5  503    0  0.43159355000E+02  0.25429157202E+03 -0.46275837885E+03  0.52978509862E+03  0.00000000000E+00 0. -1.
         -2    1    5    5    0  503 -0.26776011834E+02  0.16703432630E+03 -0.23846805971E+03  0.29237721607E+03  0.00000000000E+00 0.  1.
         -3    1    6    6    0  502  0.24745650055E+03  0.88323689089E+02  0.42497306608E+02  0.26616125711E+03  0.00000000000E+00 0.  1.
<mgrwt>
<rscale>  0 0.26959836E+04</rscale>
<asrwt>0</asrwt>
<pdfrwt beam="1">  1        4 0.15410780E+00 0.26959836E+04</pdfrwt>
<pdfrwt beam="2">  1       -4 0.27907644E+00 0.26959836E+04</pdfrwt>
<totfact> 0.20185168E-02</totfact>
</mgrwt>
</event>
<event>
12    1  0.1549527E-007  0.1372456E+04  0.7818608E-02  0.8974001E-01
         -2   -1    0    0    0  501 -0.00000000000E+00  0.00000000000E+00  0.11818579123E+03  0.11818579123E+03  0.00000000000E+00 0.  1.
          2   -1    0    0  501    0  0.00000000000E+00 -0.00000000000E+00 -0.39844786848E+04  0.39844786848E+04  0.00000000000E+00 0. -1.
         23    2    1    2    0    0 -0.79659398483E+02  0.13031681032E+03 -0.21666066610E+04  0.21739595369E+04  0.92669055018E+02 0.  0.
        254    2    1    2    0    0  0.79659398483E+02 -0.13031681032E+03 -0.16996862326E+04  0.19287049391E+04  0.89868869038E+03 0.  0.
        -24    2    4    4    0    0  0.12404205848E+03  0.26463224777E+03 -0.17268967752E+03  0.34883014998E+03  0.80275089423E+02 0.  0.
         24    2    4    4    0    0 -0.44382659995E+02 -0.39494905809E+03 -0.15269965550E+04  0.15798747891E+04  0.79569411573E+02 0.  0.
         11    1    3    3    0    0 -0.75815037338E+02  0.91274850934E+02 -0.19645276073E+04  0.19681076541E+04  0.00000000000E+00 0. -1.
        -11    1    3    3    0    0 -0.38443611456E+01  0.39041959389E+02 -0.20207905375E+03  0.20585188284E+03  0.00000000000E+00 0.  1.
          4    1    6    6  502    0 -0.56617115238E+02 -0.34394998951E+03 -0.12370728637E+04  0.12852456431E+04  0.00000000000E+00 0. -1.
          3    1    5    5  503    0  0.13211802183E+03  0.26333248675E+03 -0.17035604486E+03  0.34032389321E+03  0.00000000000E+00 0. -1.
         -4    1    5    5    0  503 -0.80759633545E+01  0.12997610218E+01 -0.23336326564E+01  0.85062567673E+01  0.00000000000E+00 0.  1.
         -3    1    6    6    0  502  0.12234455243E+02 -0.50999068579E+02 -0.28992369136E+03  0.29462914605E+03  0.00000000000E+00 0.  1.
<mgrwt>
<rscale>  0 0.13724559E+04</rscale>
<asrwt>0</asrwt>
<pdfrwt beam="1">  1        2 0.61299658E+00 0.13724559E+04</pdfrwt>
<pdfrwt beam="2">  1       -2 0.18182434E-01 0.13724559E+04</pdfrwt>
<totfact> 0.89274136E+00</totfact>
</mgrwt>
</event>
<event>
12    1  0.1549527E-007  0.1296618E+04  0.7818608E-02  0.9032252E-01
          2   -1    0    0  501    0  0.00000000000E+00  0.00000000000E+00  0.94491527592E+03  0.94491527592E+03  0.00000000000E+00 0. -1.
         -2   -1    0    0    0  501 -0.00000000000E+00 -0.00000000000E+00 -0.44480631577E+03  0.44480631577E+03  0.00000000000E+00 0.  1.
         23    2    1    2    0    0 -0.15797638475E+02  0.11007346250E+03  0.47924253714E+03  0.50015852066E+03  0.90107734718E+02 0.  0.
        254    2    1    2    0    0  0.15797638475E+02 -0.11007346250E+03  0.20866423010E+02  0.88956307103E+03  0.88233855022E+03 0.  0.
        -24    2    4    4    0    0  0.22039232322E+02  0.35371943087E+03  0.16191617450E+03  0.39784630867E+03  0.80384539689E+02 0.  0.
         24    2    4    4    0    0 -0.62415938468E+01 -0.46379289336E+03 -0.14104975149E+03  0.49171676236E+03  0.82143390270E+02 0.  0.
         13    1    3    3    0    0  0.11946782152E+02  0.11435752687E+03  0.37869130317E+03  0.39576188884E+03  0.00000000000E+00 0. -1.
        -13    1    3    3    0    0 -0.27744420627E+02 -0.42840643790E+01  0.10055123397E+03  0.10439663182E+03  0.00000000000E+00 0.  1.
          2    1    6    6  502    0  0.13261912760E+02 -0.42150903046E+03 -0.11026200274E+03  0.43589385215E+03  0.00000000000E+00 0. -1.
          1    1    5    5  503    0  0.21519431502E+02  0.35687361002E+03  0.16467491346E+03  0.39362378813E+03  0.00000000000E+00 0. -1.
         -2    1    5    5    0  503  0.51980082008E+00 -0.31541791531E+01 -0.27587389588E+01  0.42225205346E+01  0.00000000000E+00 0.  1.
         -1    1    6    6    0  502 -0.19503506607E+02 -0.42283862898E+02 -0.30787748750E+02  0.55822910213E+02  0.00000000000E+00 0.  1.
<mgrwt>
<rscale>  0 0.12966176E+04</rscale>
<asrwt>0</asrwt>
<pdfrwt beam="1">  1        2 0.14537158E+00 0.12966176E+04</pdfrwt>
<pdfrwt beam="2">  1       -2 0.68431741E-01 0.12966176E+04</pdfrwt>
<totfact> 0.52405598E+01</totfact>
</mgrwt>
</event>
<event>
12    1  0.1549527E-007  0.1859307E+04  0.7818608E-02  0.8675381E-01
         -2   -1    0    0    0  501 -0.00000000000E+00  0.00000000000E+00  0.30919069570E+03  0.30919069570E+03  0.00000000000E+00 0.  1.
          2   -1    0    0  501    0  0.00000000000E+00 -0.00000000000E+00 -0.27952201719E+04  0.27952201719E+04  0.00000000000E+00 0. -1.
         23    2    1    2    0    0 -0.31104633740E+03 -0.59850269066E+03 -0.12161890068E+04  0.13937444379E+04  0.91937821950E+02 0.  0.
        254    2    1    2    0    0  0.31104633740E+03  0.59850269066E+03 -0.12698404694E+04  0.17106664297E+04  0.92678450642E+03 0.  0.
        -24    2    4    4    0    0  0.31036786634E+02  0.75353051870E+02  0.13950789453E+03  0.17944004782E+03  0.78069927461E+02 0.  0.
         24    2    4    4    0    0  0.28000955077E+03  0.52314963879E+03 -0.14093483639E+04  0.15312263819E+04  0.79375869574E+02 0.  0.
         13    1    3    3    0    0 -0.71314352258E+02 -0.91748713235E+02 -0.15672764958E+03  0.19510796847E+03  0.00000000000E+00 0. -1.
        -13    1    3    3    0    0 -0.23973198514E+03 -0.50675397742E+03 -0.10594613573E+04  0.11986364694E+04  0.00000000000E+00 0.  1.
          2    1    6    6  502    0  0.18043738478E+03  0.34935947565E+03 -0.10247422219E+04  0.10975911417E+04  0.00000000000E+00 0. -1.
          3    1    5    5  503    0  0.56340423761E+02  0.39455172740E+02  0.80535838456E+02  0.10591022274E+03  0.00000000000E+00 0. -1.
         -4    1    5    5    0  503 -0.25303637127E+02  0.35897879130E+02  0.58972056078E+02  0.73529825077E+02  0.00000000000E+00 0.  1.
         -1    1    6    6    0  502  0.99572165991E+02  0.17379016314E+03 -0.38460614198E+03  0.43363524014E+03  0.00000000000E+00 0.  1.
<mgrwt>
<rscale>  0 0.18593075E+04</rscale>
<asrwt>0</asrwt>
<pdfrwt beam="1">  1        2 0.43003386E+00 0.18593075E+04</pdfrwt>
<pdfrwt beam="2">  1       -2 0.47567801E-01 0.18593075E+04</pdfrwt>
<totfact> 0.91807350E+00</totfact>
</mgrwt>
</event>
<event>
12    1  0.1549527E-007  0.3229146E+04  0.7818608E-02  0.8181162E-01
          1   -1    0    0  501    0  0.00000000000E+00  0.00000000000E+00  0.21695730156E+04  0.21695730156E+04  0.00000000000E+00 0. -1.
         -1   -1    0    0    0  501 -0.00000000000E+00 -0.00000000000E+00 -0.12015482123E+04  0.12015482123E+04  0.00000000000E+00 0.  1.
         23    2    1    2    0    0  0.75016163070E+03 -0.29387711952E+03 -0.85216108345E+03  0.11759384950E+04  0.86871159062E+02 0.  0.
        254    2    1    2    0    0 -0.75016163070E+03  0.29387711952E+03  0.18201858868E+04  0.21951827329E+04  0.92555082776E+03 0.  0.
        -24    2    4    4    0    0  0.14751132240E+03 -0.13556606586E+03  0.21111322671E+03  0.30160344886E+03  0.79108137552E+02 0.  0.
         24    2    4    4    0    0 -0.89767295310E+03  0.42944318537E+03  0.16090726601E+04  0.18935792840E+04  0.79306363517E+02 0.  0.
         11    1    3    3    0    0  0.10772176172E+03 -0.59786071881E+02 -0.93821512119E+02  0.15485744566E+03  0.00000000000E+00 0. -1.
        -11    1    3    3    0    0  0.64243986898E+03 -0.23409104764E+03 -0.75833957133E+03  0.10210810493E+04  0.00000000000E+00 0.  1.
          4    1    6    6  502    0 -0.14653083228E+03  0.80735941647E+02  0.22010842621E+03  0.27647295776E+03  0.00000000000E+00 0. -1.
          1    1    5    5  503    0  0.42817832275E+02 -0.13234705434E+02  0.88562011563E+02  0.99256002744E+02  0.00000000000E+00 0. -1.
         -2    1    5    5    0  503  0.10469349012E+03 -0.12233136042E+03  0.12255121515E+03  0.20234744612E+03  0.00000000000E+00 0.  1.
         -3    1    6    6    0  502 -0.75114212082E+03  0.34870724373E+03  0.13889642339E+04  0.16171063263E+04  0.00000000000E+00 0.  1.
<mgrwt>
<rscale>  0 0.32291464E+04</rscale>
<asrwt>0</asrwt>
<pdfrwt beam="1">  1        1 0.33378046E+00 0.32291464E+04</pdfrwt>
<pdfrwt beam="2">  1       -1 0.18485357E+00 0.32291464E+04</pdfrwt>
<totfact> 0.36640551E-01</totfact>
</mgrwt>
</event>
<event>
12    1  0.1549527E-007  0.1471078E+04  0.7818608E-02  0.8903917E-01
          1   -1    0    0  501    0  0.00000000000E+00  0.00000000000E+00  0.17135419275E+04  0.17135419275E+04  0.00000000000E+00 0. -1.
         -1   -1    0    0    0  501 -0.00000000000E+00 -0.00000000000E+00 -0.31573075732E+03  0.31573075732E+03  0.00000000000E+00 0.  1.
         23    2    1    2    0    0 -0.32950353646E+03  0.17914037129E+03  0.87960289847E+02  0.39683303757E+03  0.95265911800E+02 0.  0.
        254    2    1    2    0    0  0.32950353646E+03 -0.17914037129E+03  0.13098508803E+04  0.16324396473E+04  0.89915850664E+03 0.  0.
        -24    2    4    4    0    0 -0.24427414403E+03  0.83898231323E+02  0.70296356950E+03  0.75324071331E+03  0.80653713397E+02 0.  0.
         24    2    4    4    0    0  0.57377768048E+03 -0.26303860261E+03  0.60688731084E+03  0.87919893396E+03  0.79173381385E+02 0.  0.
         13    1    3    3    0    0 -0.30705544379E+03  0.17716593874E+03  0.10368689546E+03  0.36935320183E+03  0.00000000000E+00 0.  1.
        -13    1    3    3    0    0 -0.22448092667E+02  0.19744325473E+01 -0.15726605608E+02  0.27479835739E+02  0.00000000000E+00 0. -1.
          4    1    6    6  502    0  0.27312810584E+03 -0.96835817026E+02  0.23667768213E+03  0.37415566664E+03  0.00000000000E+00 0. -1.
          1    1    5    5  503    0 -0.96188108741E+02  0.41217014277E+01  0.33678608149E+03  0.35027704089E+03  0.00000000000E+00 0. -1.
         -2    1    5    5    0  503 -0.14808603529E+03  0.79776529895E+02  0.36617748800E+03  0.40296367242E+03  0.00000000000E+00 0.  1.
         -1    1    6    6    0  502  0.30064957464E+03 -0.16620278559E+03  0.37020962871E+03  0.50504326731E+03  0.00000000000E+00 0.  1.
<mgrwt>
<rscale>  0 0.14710784E+04</rscale>
<asrwt>0</asrwt>
<pdfrwt beam="1">  1        1 0.26362183E+00 0.14710784E+04</pdfrwt>
<pdfrwt beam="2">  1       -1 0.48573964E-01 0.14710784E+04</pdfrwt>
<totfact> 0.19187161E+01</totfact>
</mgrwt>
</event>
<event>
12    1  0.1549527E-007  0.2441929E+04  0.7818608E-02  0.8423971E-01
          2   -1    0    0  501    0  0.00000000000E+00  0.00000000000E+00  0.10092787073E+04  0.10092787073E+04  0.00000000000E+00 0. -1.
         -2   -1    0    0    0  501 -0.00000000000E+00 -0.00000000000E+00 -0.14770486573E+04  0.14770486573E+04  0.00000000000E+00 0.  1.
         23    2    1    2    0    0 -0.67520832638E+03 -0.51331149819E+03 -0.84809691042E+03  0.12029438040E+04  0.91708494452E+02 0.  0.
        254    2    1    2    0    0  0.67520832638E+03  0.51331149819E+03  0.38032696051E+03  0.12833835606E+04  0.88488970417E+03 0.  0.
        -24    2    4    4    0    0 -0.48604049471E+02 -0.16104591018E+03  0.20314567503E+03  0.27519314680E+03  0.78517284414E+02 0.  0.
         24    2    4    4    0    0  0.72381237585E+03  0.67435740837E+03  0.17718128548E+03  0.10081904138E+04  0.79952691644E+02 0.  0.
         11    1    3    3    0    0 -0.52886555351E+03 -0.36956414464E+03 -0.68368947291E+03  0.94005729935E+03  0.00000000000E+00 0.  1.
        -11    1    3    3    0    0 -0.14634277287E+03 -0.14374735355E+03 -0.16440743751E+03  0.26288650466E+03  0.00000000000E+00 0. -1.
          4    1    6    6  502    0  0.31732293973E+03  0.33985810733E+03  0.59389582886E+02  0.46874780399E+03  0.00000000000E+00 0. -1.
          3    1    5    5  503    0 -0.14891163285E+02 -0.31656159449E+02  0.10113099209E+03  0.10701091877E+03  0.00000000000E+00 0. -1.
         -4    1    5    5    0  503 -0.33712886186E+02 -0.12938975073E+03  0.10201468294E+03  0.16818222803E+03  0.00000000000E+00 0.  1.
         -3    1    6    6    0  502  0.40648943612E+03  0.33449930105E+03  0.11779170259E+03  0.53944260981E+03  0.00000000000E+00 0.  1.
<mgrwt>
<rscale>  0 0.24419285E+04</rscale>
<asrwt>0</asrwt>
<pdfrwt beam="1">  1        2 0.15527365E+00 0.24419285E+04</pdfrwt>
<pdfrwt beam="2">  1       -2 0.22723826E+00 0.24419285E+04</pdfrwt>
<totfact> 0.19806898E+00</totfact>
</mgrwt>
</event>
<event>
12    1  0.1549527E-007  0.2508814E+04  0.7818608E-02  0.8399852E-01
         -4   -1    0    0    0  501 -0.00000000000E+00  0.00000000000E+00  0.25782895206E+04  0.25782895206E+04  0.00000000000E+00 0.  1.
          4   -1    0    0  501    0  0.00000000000E+00 -0.00000000000E+00 -0.61030288936E+03  0.61030288936E+03  0.00000000000E+00 0. -1.
         23    2    1    2    0    0 -0.12624940514E+03  0.54588482622E+03  0.20077632354E+04  0.20864376923E+04  0.90442682104E+02 0.  0.
        254    2    1    2    0    0  0.12624940514E+03 -0.54588482622E+03 -0.39776604180E+02  0.11021547176E+04  0.94827932990E+03 0.  0.
        -24    2    4    4    0    0  0.22660504618E+03 -0.18707481419E+03  0.41089979713E+03  0.51180694811E+03  0.82224544954E+02 0.  0.
         24    2    4    4    0    0 -0.10035564104E+03 -0.35881001203E+03 -0.45067640131E+03  0.59034776950E+03  0.81150421009E+02 0.  0.
         13    1    3    3    0    0 -0.52861678227E+02  0.31746057156E+03  0.12943756780E+04  0.13337855777E+04  0.00000000000E+00 0.  1.
        -13    1    3    3    0    0 -0.73387726909E+02  0.22842425466E+03  0.71338755736E+03  0.75265211458E+03  0.00000000000E+00 0. -1.
          4    1    6    6  502    0 -0.65138357664E+02 -0.15918587530E+03 -0.15295754830E+03  0.23017202288E+03  0.00000000000E+00 0. -1.
          3    1    5    5  503    0  0.23387535266E+02 -0.47585457415E+02  0.11542858020E+03  0.12702405163E+03  0.00000000000E+00 0. -1.
         -4    1    5    5    0  503  0.20321751091E+03 -0.13948935677E+03  0.29547121693E+03  0.38478289648E+03  0.00000000000E+00 0.  1.
         -3    1    6    6    0  502 -0.35217283377E+02 -0.19962413673E+03 -0.29771885301E+03  0.36017574662E+03  0.00000000000E+00 0.  1.
<mgrwt>
<rscale>  0 0.25088145E+04</rscale>
<asrwt>0</asrwt>
<pdfrwt beam="1">  1        4 0.93892753E-01 0.25088145E+04</pdfrwt>
<pdfrwt beam="2">  1       -4 0.39665992E+00 0.25088145E+04</pdfrwt>
<totfact> 0.12263082E-02</totfact>
</mgrwt>
</event>
<event>
12    1  0.1549527E-007  0.1535699E+04  0.7818608E-02  0.8861055E-01
         -1   -1    0    0    0  501 -0.00000000000E+00  0.00000000000E+00  0.26464095851E+03  0.26464095851E+03  0.00000000000E+00 0.  1.
          1   -1    0    0  501    0  0.00000000000E+00 -0.00000000000E+00 -0.22278968559E+04  0.22278968559E+04  0.00000000000E+00 0. -1.
         23    2    1    2    0    0  0.46587128043E+03 -0.16196964255E+02 -0.64207241273E+03  0.79886616329E+03  0.92907330593E+02 0.  0.
        254    2    1    2    0    0 -0.46587128043E+03  0.16196964255E+02 -0.13211834847E+04  0.16936716511E+04  0.95168244183E+03 0.  0.
        -24    2    4    4    0    0 -0.32476047856E+03 -0.21047232474E+03 -0.13561667143E+04  0.14126467287E+04  0.81330529354E+02 0.  0.
         24    2    4    4    0    0 -0.14111080187E+03  0.22666928900E+03  0.34983229679E+02  0.28102492246E+03  0.80373849634E+02 0.  0.
         11    1    3    3    0    0  0.21627709469E+02 -0.17869713119E+02 -0.20009593722E+02  0.34459661994E+02  0.00000000000E+00 0.  1.
        -11    1    3    3    0    0  0.44424357096E+03  0.16727488639E+01 -0.62206281901E+03  0.76440650130E+03  0.00000000000E+00 0. -1.
          2    1    6    6  502    0 -0.36299524349E+01  0.38864947157E+02 -0.16947249454E+02  0.42554317481E+02  0.00000000000E+00 0. -1.
          3    1    5    5  503    0 -0.23975570617E+01 -0.14970735998E+02 -0.26149602078E+02  0.30227022762E+02  0.00000000000E+00 0. -1.
         -4    1    5    5    0  503 -0.32236292150E+03 -0.19550158874E+03 -0.13300171123E+04  0.13824197059E+04  0.00000000000E+00 0.  1.
         -1    1    6    6    0  502 -0.13748084944E+03  0.18780434184E+03  0.51930479133E+02  0.23847060498E+03  0.00000000000E+00 0.  1.
<mgrwt>
<rscale>  0 0.15356989E+04</rscale>
<asrwt>0</asrwt>
<pdfrwt beam="1">  1        1 0.34275335E+00 0.15356989E+04</pdfrwt>
<pdfrwt beam="2">  1       -1 0.40713995E-01 0.15356989E+04</pdfrwt>
<totfact> 0.11872768E+01</totfact>
</mgrwt>
</event>
<event>
12    1  0.1549527E-007  0.3170746E+04  0.7818608E-02  0.8196586E-01
          2   -1    0    0  501    0  0.00000000000E+00  0.00000000000E+00  0.13315338913E+04  0.13315338913E+04  0.00000000000E+00 0. -1.
         -2   -1    0    0    0  501 -0.00000000000E+00 -0.00000000000E+00 -0.18876026116E+04  0.18876026116E+04  0.00000000000E+00 0.  1.
         23    2    1    2    0    0  0.11254682852E+04 -0.93326366559E+03 -0.20152614017E+03  0.14786090237E+04  0.89509380593E+02 0.  0.
        254    2    1    2    0    0 -0.11254682852E+04  0.93326366559E+03 -0.35454258012E+03  0.17405274792E+04  0.87525741018E+03 0.  0.
        -24    2    4    4    0    0 -0.11732801648E+04  0.96371233440E+03 -0.46775765938E+03  0.15907743458E+04  0.80237041380E+02 0.  0.
         24    2    4    4    0    0  0.47811879639E+02 -0.30448668810E+02  0.11321507926E+03  0.14975313331E+03  0.79970303853E+02 0.  0.
         13    1    3    3    0    0  0.91114174008E+03 -0.77758269414E+03 -0.19516138369E+03  0.12136317738E+04  0.00000000000E+00 0.  1.
        -13    1    3    3    0    0  0.21432654512E+03 -0.15568097145E+03 -0.63647564832E+01  0.26497724985E+03  0.00000000000E+00 0. -1.
          4    1    6    6  502    0 -0.19013807640E+02  0.80758762688E+01  0.28252357230E+02  0.34999147811E+02  0.00000000000E+00 0. -1.
          3    1    5    5  503    0 -0.69865299744E+03  0.55322831230E+03 -0.23656530281E+03  0.92203075809E+03  0.00000000000E+00 0. -1.
         -4    1    5    5    0  503 -0.47462716740E+03  0.41048402210E+03 -0.23119235657E+03  0.66874358776E+03  0.00000000000E+00 0.  1.
         -3    1    6    6    0  502  0.66825687279E+02 -0.38524545079E+02  0.84962722030E+02  0.11475398550E+03  0.00000000000E+00 0.  1.
<mgrwt>
<rscale>  0 0.31707456E+04</rscale>
<asrwt>0</asrwt>
<pdfrwt beam="1">  1        2 0.20485137E+00 0.31707456E+04</pdfrwt>
<pdfrwt beam="2">  1       -2 0.29040040E+00 0.31707456E+04</pdfrwt>
<totfact> 0.48666268E-01</totfact>
</mgrwt>
</event>
<event>
12    1  0.1549527E-007  0.2690841E+04  0.7818608E-02  0.8337983E-01
         -1   -1    0    0    0  501 -0.00000000000E+00  0.00000000000E+00  0.60519667445E+03  0.60519667445E+03  0.00000000000E+00 0.  1.
          1   -1    0    0  501    0  0.00000000000E+00 -0.00000000000E+00 -0.29910211413E+04  0.29910211413E+04  0.00000000000E+00 0. -1.
         23    2    1    2    0    0 -0.63987259939E+03 -0.78766692337E+03 -0.23071309762E+03  0.10447994627E+04  0.92310660979E+02 0.  0.
        254    2    1    2    0    0  0.63987259939E+03  0.78766692337E+03 -0.21551113692E+04  0.25514183531E+04  0.91398822369E+03 0.  0.
        -24    2    4    4    0    0  0.83646777298E+02  0.79140285152E+03 -0.11728867466E+04  0.14196720901E+04  0.80562189651E+02 0.  0.
         24    2    4    4    0    0  0.55622582210E+03 -0.37359281460E+01 -0.98222462262E+03  0.11317462629E+04  0.81751281846E+02 0.  0.
         13    1    3    3    0    0 -0.13801740653E+03 -0.12710775206E+03 -0.18702346925E+02  0.18856023685E+03  0.00000000000E+00 0. -1.
        -13    1    3    3    0    0 -0.50185519286E+03 -0.66055917132E+03 -0.21201075070E+03  0.85623922581E+03  0.00000000000E+00 0.  1.
          4    1    6    6  502    0  0.53660206624E+03  0.12460574191E+02 -0.93984780063E+03  0.10823173896E+04  0.00000000000E+00 0. -1.
          1    1    5    5  503    0  0.18277304114E+02  0.40981107585E+03 -0.65946451413E+03  0.77664188861E+03  0.00000000000E+00 0. -1.
         -2    1    5    5    0  503  0.65369473184E+02  0.38159177567E+03 -0.51342223245E+03  0.64303020151E+03  0.00000000000E+00 0.  1.
         -3    1    6    6    0  502  0.19623755859E+02 -0.16196502337E+02 -0.42376821990E+02  0.49428873384E+02  0.00000000000E+00 0.  1.
<mgrwt>
<rscale>  0 0.26908408E+04</rscale>
<asrwt>0</asrwt>
<pdfrwt beam="1">  1        1 0.46015710E+00 0.26908408E+04</pdfrwt>
<pdfrwt beam="2">  1       -1 0.93107180E-01 0.26908408E+04</pdfrwt>
<totfact> 0.59373094E-01</totfact>
</mgrwt>
</event>
<event>
12    1  0.1549527E-007  0.9945782E+03  0.7818608E-02  0.9314511E-01
          1   -1    0    0  501    0  0.00000000000E+00  0.00000000000E+00  0.36425417511E+03  0.36425417511E+03  0.00000000000E+00 0. -1.
         -1   -1    0    0    0  501 -0.00000000000E+00 -0.00000000000E+00 -0.67891172557E+03  0.67891172557E+03  0.00000000000E+00 0.  1.
         23    2    1    2    0    0 -0.24315356131E+02  0.52006949335E+02 -0.48007357208E+02  0.11843794497E+03  0.91798045404E+02 0.  0.
        254    2    1    2    0    0  0.24315356131E+02 -0.52006949335E+02 -0.26665019325E+03  0.92472795570E+03  0.88358559697E+03 0.  0.
        -24    2    4    4    0    0  0.28325158458E+03 -0.28855537490E+02 -0.49034581523E+03  0.57293131155E+03  0.82141140916E+02 0.  0.
         24    2    4    4    0    0 -0.25893622845E+03 -0.23151411845E+02  0.22369562198E+03  0.35179664415E+03  0.78340214888E+02 0.  0.
         13    1    3    3    0    0 -0.41018711296E+02  0.53477672409E+02 -0.65657971488E+02  0.94092323505E+02  0.00000000000E+00 0.  1.
        -13    1    3    3    0    0  0.16703355164E+02 -0.14707230742E+01  0.17650614280E+02  0.24345621466E+02  0.00000000000E+00 0. -1.
          2    1    6    6  502    0 -0.13139012529E+02  0.12590605092E+02  0.36458011213E+02  0.40747313634E+02  0.00000000000E+00 0. -1.
          3    1    5    5  503    0  0.13552492575E+03 -0.15935190095E+02 -0.31500385748E+03  0.34329049799E+03  0.00000000000E+00 0. -1.
         -4    1    5    5    0  503  0.14772665883E+03 -0.12920347395E+02 -0.17534195775E+03  0.22964081356E+03  0.00000000000E+00 0.  1.
         -1    1    6    6    0  502 -0.24579721592E+03 -0.35742016937E+02  0.18723761076E+03  0.31104933051E+03  0.00000000000E+00 0.  1.
<mgrwt>
<rscale>  0 0.99457816E+03</rscale>
<asrwt>0</asrwt>
<pdfrwt beam="1">  1        1 0.56039105E-01 0.99457816E+03</pdfrwt>
<pdfrwt beam="2">  1       -1 0.10444796E+00 0.99457816E+03</pdfrwt>
<totfact> 0.58761882E+01</totfact>
</mgrwt>
</event>
<event>
12    1  0.1549527E-007  0.3305511E+04  0.7818608E-02  0.8161495E-01
         -2   -1    0    0    0  501 -0.00000000000E+00  0.00000000000E+00  0.11871605560E+04  0.11871605560E+04  0.00000000000E+00 0. -1.
          2   -1    0    0  501    0  0.00000000000E+00 -0.00000000000E+00 -0.23009526234E+04  0.23009526234E+04  0.00000000000E+00 0.  1.
         23    2    1    2    0    0 -0.82907711380E+03  0.10922306484E+04  0.18345996147E+03  0.13864967115E+04  0.91536459838E+02 0.  0.
        254    2    1    2    0    0  0.82907711380E+03 -0.10922306484E+04 -0.12972520289E+04  0.21016164679E+04  0.92390059084E+03 0.  0.
        -24    2    4    4    0    0  0.36089687645E+03 -0.33036066716E+03 -0.10641682443E+04  0.11739858905E+04  0.80025577008E+02 0.  0.
         24    2    4    4    0    0  0.46818023735E+03 -0.76186998127E+03 -0.23308378455E+03  0.92763057743E+03  0.80819765779E+02 0.  0.
         11    1    3    3    0    0 -0.35722579494E+03  0.51907696523E+03  0.48977809953E+02  0.63202056159E+03  0.00000000000E+00 0.  1.
        -11    1    3    3    0    0 -0.47185131886E+03  0.57315368320E+03  0.13448215151E+03  0.75447614989E+03  0.00000000000E+00 0. -1.
          2    1    6    6  502    0  0.42899305950E+03 -0.71428648877E+03 -0.19692629902E+03  0.85616598881E+03  0.00000000000E+00 0. -1.
          3    1    5    5  503    0  0.30860132468E+03 -0.31117075003E+03 -0.97307942976E+03  0.10672139382E+04  0.00000000000E+00 0. -1.
         -4    1    5    5    0  503  0.52295551772E+02 -0.19189917129E+02 -0.91088814582E+02  0.10677195229E+03  0.00000000000E+00 0.  1.
         -1    1    6    6    0  502  0.39187177846E+02 -0.47583492504E+02 -0.36157485534E+02  0.71464588619E+02  0.00000000000E+00 0.  1.
<mgrwt>
<rscale>  0 0.33055107E+04</rscale>
<asrwt>0</asrwt>
<pdfrwt beam="1">  1        2 0.35399271E+00 0.33055107E+04</pdfrwt>
<pdfrwt beam="2">  1       -2 0.18264009E+00 0.33055107E+04</pdfrwt>
<totfact> 0.65730691E-01</totfact>
</mgrwt>
</event>
<event>
12    1  0.1549527E-007  0.2785225E+04  0.7818608E-02  0.8307870E-01
          1   -1    0    0  501    0  0.00000000000E+00  0.00000000000E+00  0.15428536154E+04  0.15428536154E+04  0.00000000000E+00 0. -1.
         -1   -1    0    0    0  501 -0.00000000000E+00 -0.00000000000E+00 -0.12570012723E+04  0.12570012723E+04  0.00000000000E+00 0.  1.
         23    2    1    2    0    0  0.10204813917E+04 -0.23897113393E+03  0.82490551287E+03  0.13367920630E+04  0.89746537133E+02 0.  0.
        254    2    1    2    0    0 -0.10204813917E+04  0.23897113393E+03 -0.53905316984E+03  0.14630628247E+04  0.86688236539E+03 0.  0.
        -24    2    4    4    0    0 -0.63007796924E+03  0.81215043017E+02  0.14422040367E+03  0.65647192572E+03  0.81004530054E+02 0.  0.
         24    2    4    4    0    0 -0.39040342247E+03  0.15775609091E+03 -0.68327357351E+03  0.80659089898E+03  0.80151640997E+02 0.  0.
         13    1    3    3    0    0  0.91734361499E+03 -0.20410687843E+03  0.70490241490E+03  0.11747622484E+04  0.00000000000E+00 0. -1.
        -13    1    3    3    0    0  0.10313777672E+03 -0.34864255496E+02  0.12000309797E+03  0.16202981461E+03  0.00000000000E+00 0.  1.
          4    1    6    6  502    0 -0.51833264214E+02  0.27747062167E+02 -0.51688381335E+02  0.78283302836E+02  0.00000000000E+00 0. -1.
          1    1    5    5  503    0 -0.17602692490E+02  0.83990792379E+01 -0.81551894330E+01  0.21140161533E+02  0.00000000000E+00 0. -1.
         -2    1    5    5    0  503 -0.61247527675E+03  0.72815963779E+02  0.15237559311E+03  0.63533176419E+03  0.00000000000E+00 0.  1.
         -3    1    6    6    0  502 -0.33857015826E+03  0.13000902875E+03 -0.63158519218E+03  0.72830759614E+03  0.00000000000E+00 0.  1.
<mgrwt>
<rscale>  0 0.27852246E+04</rscale>
<asrwt>0</asrwt>
<pdfrwt beam="1">  1        1 0.23736210E+00 0.27852246E+04</pdfrwt>
<pdfrwt beam="2">  1       -1 0.19338481E+00 0.27852246E+04</pdfrwt>
<totfact> 0.88609920E-01</totfact>
</mgrwt>
</event>
<event>
12    1  0.1573608E-007  0.2014923E+04  0.7818608E-02  0.8599675E-01
         -2   -1    0    0    0  501 -0.00000000000E+00  0.00000000000E+00  0.13319783413E+04  0.13319783413E+04  0.00000000000E+00 0.  1.
          2   -1    0    0  501    0  0.00000000000E+00 -0.00000000000E+00 -0.76200817669E+03  0.76200817669E+03  0.00000000000E+00 0. -1.
         23    2    1    2    0    0  0.10004155031E+02 -0.59561610435E+02 -0.60496955296E+03  0.61421673173E+03  0.87329061452E+02 0.  0.
        254    2    1    2    0    0 -0.10004155031E+02  0.59561610435E+02  0.11749397176E+04  0.14797697863E+04  0.89754532581E+03 0.  0.
        -24    2    4    4    0    0  0.32271903929E+03 -0.26188319324E+03  0.46395750818E+03  0.62799286085E+03  0.79925456908E+02 0.  0.
         24    2    4    4    0    0 -0.33272319432E+03  0.32144480367E+03  0.71098220939E+03  0.85177692542E+03  0.77438638714E+02 0.  0.
         11    1    3    3    0    0  0.21957180839E+02 -0.64319959613E+02 -0.59220951478E+03  0.59609670725E+03  0.00000000000E+00 0. -1.
        -11    1    3    3    0    0 -0.11953025808E+02  0.47583491779E+01 -0.12760038173E+02  0.18120024477E+02  0.00000000000E+00 0.  1.
          2    1    6    6  502    0 -0.31525344591E+03  0.28917339820E+03  0.61620101258E+03  0.75013977184E+03  0.00000000000E+00 0. -1.
          3    1    5    5  503    0  0.26101646148E+03 -0.21693577830E+03  0.41968288056E+03  0.53974479646E+03  0.00000000000E+00 0. -1.
         -4    1    5    5    0  503  0.61702577803E+02 -0.44947414936E+02  0.44274627617E+02  0.88248064384E+02  0.00000000000E+00 0.  1.
         -1    1    6    6    0  502 -0.17469748411E+02  0.32271405479E+02  0.94781196807E+02  0.10163715359E+03  0.00000000000E+00 0.  1.
<mgrwt>
<rscale>  0 0.20149227E+04</rscale>
<asrwt>0</asrwt>
<pdfrwt beam="1">  1        2 0.11723203E+00 0.20149227E+04</pdfrwt>
<pdfrwt beam="2">  1       -2 0.20491974E+00 0.20149227E+04</pdfrwt>
<totfact> 0.42074190E+00</totfact>
</mgrwt>
</event>
<event>
12    1  0.1549527E-007  0.1532968E+04  0.7818608E-02  0.8862821E-01
         -1   -1    0    0    0  501 -0.00000000000E+00  0.00000000000E+00  0.82416440276E+03  0.82416440276E+03  0.00000000000E+00 0.  1.
          1   -1    0    0  501    0  0.00000000000E+00 -0.00000000000E+00 -0.71284000176E+03  0.71284000176E+03  0.00000000000E+00 0. -1.
         23    2    1    2    0    0  0.37923265720E+03  0.26000271773E+03  0.22828717987E+03  0.52123447757E+03  0.90285782929E+02 0.  0.
        254    2    1    2    0    0 -0.37923265720E+03 -0.26000271773E+03 -0.11696277887E+03  0.10157699270E+04  0.89815891208E+03 0.  0.
        -24    2    4    4    0    0  0.92206705761E+02  0.25829015028E+03  0.52267373972E+02  0.29075035615E+03  0.81166575029E+02 0.  0.
         24    2    4    4    0    0 -0.47143936296E+03 -0.51829286801E+03 -0.16923015284E+03  0.72501957080E+03  0.78306854348E+02 0.  0.
         13    1    3    3    0    0  0.29701604422E+03  0.15506107983E+03  0.17038179514E+03  0.37588884676E+03  0.00000000000E+00 0.  1.
        -13    1    3    3    0    0  0.82216612974E+02  0.10494163789E+03  0.57905384737E+02  0.14534563081E+03  0.00000000000E+00 0. -1.
          2    1    6    6  502    0 -0.15009078589E+03 -0.12234112590E+03 -0.67232562465E+02  0.20497515106E+03  0.00000000000E+00 0. -1.
          1    1    5    5  503    0 -0.88376688533E+01  0.28989422704E+01 -0.44356392159E+01  0.10304520964E+02  0.00000000000E+00 0. -1.
         -2    1    5    5    0  503  0.10104437461E+03  0.25539120801E+03  0.56703013188E+02  0.28044583519E+03  0.00000000000E+00 0.  1.
         -1    1    6    6    0  502 -0.32134857707E+03 -0.39595174211E+03 -0.10199759037E+03  0.52004441974E+03  0.00000000000E+00 0.  1.
<mgrwt>
<rscale>  0 0.15329675E+04</rscale>
<asrwt>0</asrwt>
<pdfrwt beam="1">  1        1 0.10966769E+00 0.15329675E+04</pdfrwt>
<pdfrwt beam="2">  1       -1 0.12679452E+00 0.15329675E+04</pdfrwt>
<totfact> 0.13809428E+01</totfact>
</mgrwt>
</event>
<event>
12    1  0.1549527E-007  0.1560517E+04  0.7818608E-02  0.8845178E-01
          2   -1    0    0  501    0  0.00000000000E+00  0.00000000000E+00  0.27708472488E+04  0.27708472488E+04  0.00000000000E+00 0. -1.
         -2   -1    0    0    0  501 -0.00000000000E+00 -0.00000000000E+00 -0.21971729014E+03  0.21971729014E+03  0.00000000000E+00 0.  1.
         23    2    1    2    0    0 -0.40484301295E+02  0.51817978310E+02 -0.12762682813E+03  0.16402981603E+03  0.79329009576E+02 0.  0.
        254    2    1    2    0    0  0.40484301295E+02 -0.51817978310E+02  0.26787567868E+04  0.28265347229E+04  0.89957575307E+03 0.  0.
        -24    2    4    4    0    0  0.39168867971E+02  0.37126676064E+03  0.18883218246E+04  0.19264823819E+04  0.78751804596E+02 0.  0.
         24    2    4    4    0    0  0.13154333238E+01 -0.42308473895E+03  0.79043496220E+03  0.90005234102E+03  0.79400002634E+02 0.  0.
         11    1    3    3    0    0 -0.40409258977E+02 -0.93821434198E+01 -0.44965243394E+02  0.61178476114E+02  0.00000000000E+00 0. -1.
        -11    1    3    3    0    0 -0.75042318406E-01  0.61200121730E+02 -0.82661584737E+02  0.10285133992E+03  0.00000000000E+00 0.  1.
          2    1    6    6  502    0  0.38128834447E+02 -0.27552622169E+03  0.49654911078E+03  0.56914807060E+03  0.00000000000E+00 0. -1.
          3    1    5    5  503    0 -0.14679917160E+02  0.18994543411E+03  0.10430910538E+04  0.10603460352E+04  0.00000000000E+00 0. -1.
         -4    1    5    5    0  503  0.53848785131E+02  0.18132132653E+03  0.84523077081E+03  0.86613634668E+03  0.00000000000E+00 0.  1.
         -1    1    6    6    0  502 -0.36813401123E+02 -0.14755851726E+03  0.29388585141E+03  0.33090427042E+03  0.00000000000E+00 0.  1.
<mgrwt>
<rscale>  0 0.15605166E+04</rscale>
<asrwt>0</asrwt>
<pdfrwt beam="1">  1        2 0.42628417E+00 0.15605166E+04</pdfrwt>
<pdfrwt beam="2">  1       -2 0.33802662E-01 0.15605166E+04</pdfrwt>
<totfact> 0.19046063E+01</totfact>
</mgrwt>
</event>
<event>
12    1  0.1549527E-007  0.1966085E+04  0.7818608E-02  0.8622643E-01
         -2   -1    0    0    0  501 -0.00000000000E+00  0.00000000000E+00  0.53037456213E+03  0.53037456213E+03  0.00000000000E+00 0.  1.
          2   -1    0    0  501    0  0.00000000000E+00 -0.00000000000E+00 -0.18220574209E+04  0.18220574209E+04  0.00000000000E+00 0. -1.
         23    2    1    2    0    0  0.88445041681E+02  0.38885510119E+03  0.28354658908E+03  0.49756792440E+03  0.90246086310E+02 0.  0.
        254    2    1    2    0    0 -0.88445041681E+02 -0.38885510119E+03 -0.15752294479E+04  0.18548640587E+04  0.89450659445E+03 0.  0.
        -24    2    4    4    0    0 -0.38833829159E+03 -0.41187349279E+03 -0.59020562565E+03  0.82189241355E+03  0.81963748810E+02 0.  0.
         24    2    4    4    0    0  0.29989324991E+03  0.23018391593E+02 -0.98502382223E+03  0.10329716451E+04  0.79326424031E+02 0.  0.
         11    1    3    3    0    0  0.58455471125E+02  0.14548648017E+03  0.15597057604E+03  0.22115645730E+03  0.00000000000E+00 0. -1.
        -11    1    3    3    0    0  0.29989570556E+02  0.24336862102E+03  0.12757601304E+03  0.27641146710E+03  0.00000000000E+00 0.  1.
          2    1    6    6  502    0  0.18917865487E+03 -0.17881466680E+01 -0.72489284421E+03  0.74917380928E+03  0.00000000000E+00 0. -1.
          1    1    5    5  503    0 -0.38855002796E+03 -0.39458679311E+03 -0.56338315957E+03  0.78998129472E+03  0.00000000000E+00 0. -1.
         -2    1    5    5    0  503  0.21173636535E+00 -0.17286699682E+02 -0.26822466083E+02  0.31911118830E+02  0.00000000000E+00 0.  1.
         -1    1    6    6    0  502  0.11071459505E+03  0.24806538261E+02 -0.26013097803E+03  0.28379783584E+03  0.00000000000E+00 0.  1.
<mgrwt>
<rscale>  0 0.19660854E+04</rscale>
<asrwt>0</asrwt>
<pdfrwt beam="1">  1        2 0.28031652E+00 0.19660854E+04</pdfrwt>
<pdfrwt beam="2">  1       -2 0.81596087E-01 0.19660854E+04</pdfrwt>
<totfact> 0.10331220E+01</totfact>
</mgrwt>
</event>
<event>
12    1  0.1549527E-007  0.1542947E+04  0.7818608E-02  0.8856386E-01
         -1   -1    0    0    0  501 -0.00000000000E+00  0.00000000000E+00  0.25392667846E+03  0.25392667846E+03  0.00000000000E+00 0.  1.
          1   -1    0    0  501    0  0.00000000000E+00 -0.00000000000E+00 -0.23438705499E+04  0.23438705499E+04  0.00000000000E+00 0. -1.
         23    2    1    2    0    0  0.25699571234E+03  0.26169905992E+03 -0.12031422436E+04  0.12612321051E+04  0.92854567278E+02 0.  0.
        254    2    1    2    0    0 -0.25699571234E+03 -0.26169905992E+03 -0.88680162790E+03  0.13365651232E+04  0.93029888062E+03 0.  0.
        -24    2    4    4    0    0 -0.20002100063E+03  0.23140410360E+03 -0.75161908270E+03  0.81595340057E+03  0.85395822856E+02 0.  0.
         24    2    4    4    0    0 -0.56974711718E+02 -0.49310316352E+03 -0.13518254520E+03  0.52061172267E+03  0.79783441924E+02 0.  0.
         13    1    3    3    0    0  0.15075095967E+02  0.46618378867E+02 -0.96617013772E+02  0.10832995485E+03  0.00000000000E+00 0.  1.
        -13    1    3    3    0    0  0.24192061638E+03  0.21508068105E+03 -0.11065252298E+04  0.11529021503E+04  0.00000000000E+00 0. -1.
          4    1    6    6  502    0  0.16679463056E+02 -0.51486242078E+02 -0.24550078234E+02  0.59428477622E+02  0.00000000000E+00 0. -1.
          3    1    5    5  503    0 -0.25443877472E+02  0.35432073054E+02 -0.20502543594E+03  0.20961453214E+03  0.00000000000E+00 0. -1.
         -4    1    5    5    0  503 -0.17457712315E+03  0.19597203055E+03 -0.54659364676E+03  0.60633886842E+03  0.00000000000E+00 0.  1.
         -3    1    6    6    0  502 -0.73654174774E+02 -0.44161692144E+03 -0.11063246696E+03  0.46118324505E+03  0.00000000000E+00 0.  1.
<mgrwt>
<rscale>  0 0.15429469E+04</rscale>
<asrwt>0</asrwt>
<pdfrwt beam="1">  1        1 0.36059547E+00 0.15429469E+04</pdfrwt>
<pdfrwt beam="2">  1       -1 0.39065643E-01 0.15429469E+04</pdfrwt>
<totfact> 0.10664060E+01</totfact>
</mgrwt>
</event>
<event>
12    1  0.1549527E-007  0.1881301E+04  0.7818608E-02  0.8664221E-01
         -2   -1    0    0    0  501 -0.00000000000E+00  0.00000000000E+00  0.12377809216E+04  0.12377809216E+04  0.00000000000E+00 0. -1.
          2   -1    0    0  501    0  0.00000000000E+00 -0.00000000000E+00 -0.71484616343E+03  0.71484616343E+03  0.00000000000E+00 0.  1.
         23    2    1    2    0    0 -0.65959839567E+03  0.29152356343E+03  0.29625565507E+03  0.78494903214E+03  0.91222465946E+02 0.  0.
        254    2    1    2    0    0  0.65959839567E+03 -0.29152356343E+03  0.22667910314E+03  0.11676780529E+04  0.88996212723E+03 0.  0.
        -24    2    4    4    0    0  0.82178702499E+03 -0.33433670949E+02  0.12125662721E+03  0.83536446093E+03  0.81724464765E+02 0.  0.
         24    2    4    4    0    0 -0.16218862932E+03 -0.25808989248E+03  0.10542247593E+03  0.33231359200E+03  0.80018003708E+02 0.  0.
         13    1    3    3    0    0 -0.50548711006E+03  0.25276069365E+03  0.25925731738E+03  0.62178737789E+03  0.00000000000E+00 0. -1.
        -13    1    3    3    0    0 -0.15411128561E+03  0.38762869781E+02  0.36998337696E+02  0.16316165425E+03  0.00000000000E+00 0.  1.
          4    1    6    6  502    0 -0.44995279036E+02 -0.23680013464E+02  0.29907697496E+01  0.50933906947E+02  0.00000000000E+00 0. -1.
          3    1    5    5  503    0  0.29819023225E+01 -0.58558925706E+01 -0.20139118659E+01  0.68730677476E+01  0.00000000000E+00 0. -1.
         -4    1    5    5    0  503  0.81880512267E+03 -0.27577778378E+02  0.12327053908E+03  0.82849139318E+03  0.00000000000E+00 0.  1.
         -3    1    6    6    0  502 -0.11719335029E+03 -0.23440987902E+03  0.10243170618E+03  0.28137968506E+03  0.00000000000E+00 0.  1.
<mgrwt>
<rscale>  0 0.18813006E+04</rscale>
<asrwt>0</asrwt>
<pdfrwt beam="1">  1        2 0.10997633E+00 0.18813006E+04</pdfrwt>
<pdfrwt beam="2">  1       -2 0.19042783E+00 0.18813006E+04</pdfrwt>
<totfact> 0.57576529E+00</totfact>
</mgrwt>
</event>
<event>
12    1  0.1549527E-007  0.2570187E+04  0.7818608E-02  0.8378399E-01
          2   -1    0    0  501    0  0.00000000000E+00  0.00000000000E+00  0.20116757019E+04  0.20116757019E+04  0.00000000000E+00 0. -1.
         -2   -1    0    0    0  501 -0.00000000000E+00 -0.00000000000E+00 -0.82094019640E+03  0.82094019640E+03  0.00000000000E+00 0.  1.
         23    2    1    2    0    0 -0.84473590584E+03 -0.69459455711E+03  0.22988735181E+03  0.11209855243E+04  0.87863540927E+02 0.  0.
        254    2    1    2    0    0  0.84473590584E+03  0.69459455711E+03  0.96084815368E+03  0.17116303740E+04  0.90022720094E+03 0.  0.
        -24    2    4    4    0    0  0.77317205996E+02  0.18375335843E+02 -0.15789612711E+03  0.19375280145E+03  0.79330686389E+02 0.  0.
         24    2    4    4    0    0  0.76741869984E+03  0.67621922126E+03  0.11187442808E+04  0.15178775725E+04  0.78483522459E+02 0.  0.
         13    1    3    3    0    0 -0.79529817371E+03 -0.64950995159E+03  0.23664243989E+03  0.10537371620E+04  0.00000000000E+00 0.  1.
        -13    1    3    3    0    0 -0.49437732132E+02 -0.45084605513E+02 -0.67550880827E+01  0.67248362267E+02  0.00000000000E+00 0. -1.
          2    1    6    6  502    0  0.28256827490E+03  0.26617123230E+03  0.37211385544E+03  0.53773662354E+03  0.00000000000E+00 0. -1.
          1    1    5    5  503    0  0.30444232404E+02 -0.27560630380E+02 -0.92003843230E+02  0.10075289972E+03  0.00000000000E+00 0. -1.
         -2    1    5    5    0  503  0.46872973592E+02  0.45935966223E+02 -0.65892283881E+02  0.92999901727E+02  0.00000000000E+00 0.  1.
         -1    1    6    6    0  502  0.48485042494E+03  0.41004798896E+03  0.74663042535E+03  0.98014094899E+03  0.00000000000E+00 0.  1.
<mgrwt>
<rscale>  0 0.25701871E+04</rscale>
<asrwt>0</asrwt>
<pdfrwt beam="1">  1        2 0.30948857E+00 0.25701871E+04</pdfrwt>
<pdfrwt beam="2">  1       -2 0.12629849E+00 0.25701871E+04</pdfrwt>
<totfact> 0.27267232E+00</totfact>
</mgrwt>
</event>
<event>
12    1  0.1549527E-007  0.2462444E+04  0.7818608E-02  0.8416488E-01
          2   -1    0    0  501    0  0.00000000000E+00  0.00000000000E+00  0.30594533396E+04  0.30594533396E+04  0.00000000000E+00 0. -1.
         -2   -1    0    0    0  501 -0.00000000000E+00 -0.00000000000E+00 -0.49548320041E+03  0.49548320041E+03  0.00000000000E+00 0.  1.
         23    2    1    2    0    0 -0.65437187695E+03 -0.79674924481E+03  0.15059988062E+04  0.18274201574E+04  0.91761183494E+02 0.  0.
        254    2    1    2    0    0  0.65437187695E+03  0.79674924481E+03  0.10579713330E+04  0.17275163826E+04  0.89554318625E+03 0.  0.
        -24    2    4    4    0    0  0.36336932343E+03  0.34253661524E+03 -0.34075686462E+02  0.50662067635E+03  0.78324704319E+02 0.  0.
         24    2    4    4    0    0  0.29100255353E+03  0.45421262957E+03  0.10920470194E+04  0.12208957063E+04  0.83833370272E+02 0.  0.
         13    1    3    3    0    0 -0.23424717773E+03 -0.30149941169E+03  0.48293807756E+03  0.61563205105E+03  0.00000000000E+00 0.  1.
        -13    1    3    3    0    0 -0.42012469922E+03 -0.49524983312E+03  0.10230607287E+04  0.12117881063E+04  0.00000000000E+00 0. -1.
          2    1    6    6  502    0  0.22298166578E+03  0.39697522991E+03  0.87568939570E+03  0.98698635967E+03  0.00000000000E+00 0. -1.
          1    1    5    5  503    0  0.35240406936E+03  0.30571202881E+03 -0.25328916116E+02  0.46721518239E+03  0.00000000000E+00 0. -1.
         -2    1    5    5    0  503  0.10965254062E+02  0.36824586435E+02 -0.87467703468E+01  0.39405493960E+02  0.00000000000E+00 0.  1.
         -1    1    6    6    0  502  0.68020887741E+02  0.57237399662E+02  0.21635762373E+03  0.23390934662E+03  0.00000000000E+00 0.  1.
<mgrwt>
<rscale>  0 0.24624441E+04</rscale>
<asrwt>0</asrwt>
<pdfrwt beam="1">  1        2 0.47068512E+00 0.24624441E+04</pdfrwt>
<pdfrwt beam="2">  1       -2 0.76228186E-01 0.24624441E+04</pdfrwt>
<totfact> 0.22014247E+00</totfact>
</mgrwt>
</event>
<event>
12    1  0.1549527E-007  0.1616790E+04  0.7818608E-02  0.8810299E-01
         -4   -1    0    0    0  501 -0.00000000000E+00  0.00000000000E+00  0.82424826325E+03  0.82424826325E+03  0.00000000000E+00 0.  1.
          4   -1    0    0  501    0  0.00000000000E+00 -0.00000000000E+00 -0.79284634212E+03  0.79284634212E+03  0.00000000000E+00 0. -1.
         23    2    1    2    0    0 -0.45521086385E+03  0.26236509889E+03  0.18304597643E+03  0.56380216068E+03  0.91184818980E+02 0.  0.
        254    2    1    2    0    0  0.45521086385E+03 -0.26236509889E+03 -0.15164405529E+03  0.10532924447E+04  0.90020924172E+03 0.  0.
        -24    2    4    4    0    0 -0.19278162864E+03  0.14802513940E+03  0.39302391418E+02  0.25944608249E+03  0.81800938318E+02 0.  0.
         24    2    4    4    0    0  0.64799249250E+03 -0.41039023828E+03 -0.19094644671E+03  0.79384636222E+03  0.73600837471E+02 0.  0.
         11    1    3    3    0    0 -0.24903623471E+03  0.11903241311E+03  0.53150900706E+02  0.28109211980E+03  0.00000000000E+00 0. -1.
        -11    1    3    3    0    0 -0.20617462915E+03  0.14333268577E+03  0.12989507572E+03  0.28271004088E+03  0.00000000000E+00 0.  1.
          2    1    6    6  502    0  0.60733796223E+03 -0.36089284504E+03 -0.17641595368E+03  0.72816593897E+03  0.00000000000E+00 0. -1.
          1    1    5    5  503    0 -0.66330629600E+02  0.68043156366E+01  0.56061642721E+01  0.66913976210E+02  0.00000000000E+00 0. -1.
         -2    1    5    5    0  503 -0.12645099904E+03  0.14122082376E+03  0.33696227146E+02  0.19253210628E+03  0.00000000000E+00 0.  1.
         -3    1    6    6    0  502  0.40654530265E+02 -0.49497393248E+02 -0.14530493033E+02  0.65680423242E+02  0.00000000000E+00 0.  1.
<mgrwt>
<rscale>  0 0.16167897E+04</rscale>
<asrwt>0</asrwt>
<pdfrwt beam="1">  1        4 0.12197636E+00 0.16167897E+04</pdfrwt>
<pdfrwt beam="2">  1       -4 0.12680743E+00 0.16167897E+04</pdfrwt>
<totfact> 0.44859040E-01</totfact>
</mgrwt>
</event>
<event>
12    1  0.1549527E-007  0.2896434E+04  0.7818608E-02  0.8273939E-01
         -2   -1    0    0    0  501 -0.00000000000E+00  0.00000000000E+00  0.76488684959E+03  0.76488684959E+03  0.00000000000E+00 0.  1.
          2   -1    0    0  501    0  0.00000000000E+00 -0.00000000000E+00 -0.27420167834E+04  0.27420167834E+04  0.00000000000E+00 0. -1.
         23    2    1    2    0    0 -0.20012753501E+03  0.12911681897E+04 -0.85356807575E+03  0.15633529285E+04  0.91255655099E+02 0.  0.
        254    2    1    2    0    0  0.20012753501E+03 -0.12911681897E+04 -0.11235618580E+04  0.19435507045E+04  0.89879461926E+03 0.  0.
        -24    2    4    4    0    0  0.54399642148E+03 -0.65469879853E+03 -0.66550228133E+03  0.10835099778E+04  0.80857665492E+02 0.  0.
         24    2    4    4    0    0 -0.34386888647E+03 -0.63646939121E+03 -0.45805957670E+03  0.86004072672E+03  0.80699310913E+02 0.  0.
         11    1    3    3    0    0 -0.71423635122E+02  0.40484392449E+03 -0.31882359092E+03  0.52023881149E+03  0.00000000000E+00 0.  1.
        -11    1    3    3    0    0 -0.12870389989E+03  0.88632426525E+03 -0.53474448483E+03  0.10431141170E+04  0.00000000000E+00 0. -1.
          2    1    6    6  502    0 -0.13382715282E+03 -0.18333006268E+03 -0.11808172569E+03  0.25585721146E+03  0.00000000000E+00 0. -1.
          1    1    5    5  503    0  0.10109796113E+03 -0.17514583404E+03 -0.15368614719E+03  0.25400057631E+03  0.00000000000E+00 0. -1.
         -2    1    5    5    0  503  0.44289846035E+03 -0.47955296448E+03 -0.51181613414E+03  0.82950940145E+03  0.00000000000E+00 0.  1.
         -1    1    6    6    0  502 -0.21004173365E+03 -0.45313932854E+03 -0.33997785101E+03  0.60418351527E+03  0.00000000000E+00 0.  1.
<mgrwt>
<rscale>  0 0.28964341E+04</rscale>
<asrwt>0</asrwt>
<pdfrwt beam="1">  1        2 0.42184873E+00 0.28964341E+04</pdfrwt>
<pdfrwt beam="2">  1       -2 0.11767490E+00 0.28964341E+04</pdfrwt>
<totfact> 0.12054710E+00</totfact>
</mgrwt>
</event>
<event>
12    1  0.1549527E-007  0.1445983E+04  0.7818608E-02  0.8921190E-01
          2   -1    0    0  501    0  0.00000000000E+00  0.00000000000E+00  0.89335870012E+03  0.89335870012E+03  0.00000000000E+00 0. -1.
         -2   -1    0    0    0  501 -0.00000000000E+00 -0.00000000000E+00 -0.58511405032E+03  0.58511405032E+03  0.00000000000E+00 0.  1.
         23    2    1    2    0    0  0.74334331122E+02 -0.77922121916E+02  0.53402184958E+03  0.55219375872E+03  0.90228385121E+02 0.  0.
        254    2    1    2    0    0 -0.74334331122E+02  0.77922121916E+02 -0.22577719977E+03  0.92627899171E+03  0.89186320514E+03 0.  0.
        -24    2    4    4    0    0 -0.43175637045E+03 -0.15067928979E+03 -0.92338707298E+02  0.47331659592E+03  0.79902135789E+02 0.  0.
         24    2    4    4    0    0  0.35742203933E+03  0.22860141171E+03 -0.13343849247E+03  0.45296239580E+03  0.85790332186E+02 0.  0.
         13    1    3    3    0    0  0.23543671932E+02 -0.38973302894E+02  0.68248044598E+02  0.82042784070E+02  0.00000000000E+00 0.  1.
        -13    1    3    3    0    0  0.50790659190E+02 -0.38948819022E+02  0.46577380498E+03  0.47015097465E+03  0.00000000000E+00 0. -1.
          2    1    6    6  502    0  0.23226007734E+03  0.10122601721E+03 -0.63657544569E+02  0.26123501501E+03  0.00000000000E+00 0. -1.
          3    1    5    5  503    0 -0.10535609250E+03 -0.38626578633E+02 -0.58543756043E+02  0.12656733455E+03  0.00000000000E+00 0. -1.
         -4    1    5    5    0  503 -0.32640027795E+03 -0.11205271116E+03 -0.33794951255E+02  0.34674926136E+03  0.00000000000E+00 0.  1.
         -1    1    6    6    0  502  0.12516196199E+03  0.12737539450E+03 -0.69780947901E+02  0.19172738079E+03  0.00000000000E+00 0.  1.
<mgrwt>
<rscale>  0 0.14459830E+04</rscale>
<asrwt>0</asrwt>
<pdfrwt beam="1">  1        2 0.13743980E+00 0.14459830E+04</pdfrwt>
<pdfrwt beam="2">  1       -2 0.90017546E-01 0.14459830E+04</pdfrwt>
<totfact> 0.30368473E+01</totfact>
</mgrwt>
</event>
<event>
12    1  0.1549527E-007  0.1870925E+04  0.7818608E-02  0.8669466E-01
          2   -1    0    0  501    0  0.00000000000E+00  0.00000000000E+00  0.19530939535E+04  0.19530939535E+04  0.00000000000E+00 0. -1.
         -2   -1    0    0    0  501 -0.00000000000E+00 -0.00000000000E+00 -0.44805344010E+03  0.44805344010E+03  0.00000000000E+00 0.  1.
         23    2    1    2    0    0  0.19076339067E+03  0.26188252855E+03  0.13808786385E+04  0.14213293163E+04  0.91531858967E+02 0.  0.
        254    2    1    2    0    0 -0.19076339067E+03 -0.26188252855E+03  0.12416187491E+03  0.97981807728E+03  0.91632645024E+03 0.  0.
        -24    2    4    4    0    0  0.14375221735E+03 -0.34411180159E+03  0.38427127605E+03  0.54082706765E+03  0.75841093860E+02 0.  0.
         24    2    4    4    0    0 -0.33451560802E+03  0.82229273034E+02 -0.26010940114E+03  0.43899100963E+03  0.79961619707E+02 0.  0.
         13    1    3    3    0    0  0.18952157656E+03  0.20778674413E+03  0.12009697647E+04  0.12334594176E+04  0.00000000000E+00 0. -1.
        -13    1    3    3    0    0  0.12418141100E+01  0.54095784424E+02  0.17990887374E+03  0.18786989872E+03  0.00000000000E+00 0.  1.
          4    1    6    6  502    0 -0.11039506053E+03  0.10777112861E+02 -0.43267564750E+02  0.11906005926E+03  0.00000000000E+00 0. -1.
          1    1    5    5  503    0  0.23824320159E+02 -0.90559314183E+02  0.56246458726E+02  0.10923484671E+03  0.00000000000E+00 0. -1.
         -4    1    5    5    0  503  0.11992789719E+03 -0.25355248740E+03  0.32802481733E+03  0.43159222094E+03  0.00000000000E+00 0.  1.
         -3    1    6    6    0  502 -0.22412054749E+03  0.71452160173E+02 -0.21684183639E+03  0.31993095038E+03  0.00000000000E+00 0.  1.
<mgrwt>
<rscale>  0 0.18709254E+04</rscale>
<asrwt>0</asrwt>
<pdfrwt beam="1">  1        2 0.30047599E+00 0.18709254E+04</pdfrwt>
<pdfrwt beam="2">  1       -2 0.68931300E-01 0.18709254E+04</pdfrwt>
<totfact> 0.12802758E+01</totfact>
</mgrwt>
</event>
<event>
12    1  0.1549527E-007  0.1633905E+04  0.7818608E-02  0.8799985E-01
         -1   -1    0    0    0  501 -0.00000000000E+00  0.00000000000E+00  0.35217793418E+03  0.35217793418E+03  0.00000000000E+00 0.  1.
          1   -1    0    0  501    0  0.00000000000E+00 -0.00000000000E+00 -0.18950974932E+04  0.18950974932E+04  0.00000000000E+00 0. -1.
         23    2    1    2    0    0  0.43248289634E+03 -0.25804400728E+02 -0.10439545176E+04  0.11339589042E+04  0.91183544688E+02 0.  0.
        254    2    1    2    0    0 -0.43248289634E+03  0.25804400728E+02 -0.49896504140E+03  0.11133165232E+04  0.89599120838E+03 0.  0.
        -24    2    4    4    0    0 -0.52214766983E+03  0.34655141782E+03 -0.21086781529E+03  0.66605537277E+03  0.80177613934E+02 0.  0.
         24    2    4    4    0    0  0.89664773486E+02 -0.32074701709E+03 -0.28809722611E+03  0.44726115040E+03  0.78256657143E+02 0.  0.
         11    1    3    3    0    0  0.42027424249E+03 -0.13744281315E+02 -0.95670466245E+03  0.10450373942E+04  0.00000000000E+00 0.  1.
        -11    1    3    3    0    0  0.12208653849E+02 -0.12060119413E+02 -0.87249855133E+02  0.88921509938E+02  0.00000000000E+00 0. -1.
          2    1    6    6  502    0  0.83732123728E+02 -0.15427543768E+03 -0.14891556334E+03  0.23019084304E+03  0.00000000000E+00 0. -1.
          1    1    5    5  503    0 -0.46304838161E+03  0.27355225080E+03 -0.18267597195E+03  0.56799220801E+03  0.00000000000E+00 0. -1.
         -2    1    5    5    0  503 -0.59099288223E+02  0.72999167016E+02 -0.28191843333E+02  0.98063164766E+02  0.00000000000E+00 0.  1.
         -1    1    6    6    0  502  0.59326497575E+01 -0.16647157941E+03 -0.13918166277E+03  0.21707030736E+03  0.00000000000E+00 0.  1.
<mgrwt>
<rscale>  0 0.16339052E+04</rscale>
<asrwt>0</asrwt>
<pdfrwt beam="1">  1        1 0.29155346E+00 0.16339052E+04</pdfrwt>
<pdfrwt beam="2">  1       -1 0.54181222E-01 0.16339052E+04</pdfrwt>
<totfact> 0.11557988E+01</totfact>
</mgrwt>
</event>
<event>
12    1  0.1549527E-007  0.2309011E+04  0.7818608E-02  0.8474377E-01
          2   -1    0    0  501    0  0.00000000000E+00  0.00000000000E+00  0.99087086149E+03  0.99087086149E+03  0.00000000000E+00 0. -1.
         -2   -1    0    0    0  501 -0.00000000000E+00 -0.00000000000E+00 -0.13451631862E+04  0.13451631862E+04  0.00000000000E+00 0.  1.
         23    2    1    2    0    0  0.18957456399E+03 -0.58043144528E+03 -0.92477864201E+03  0.11114376160E+04  0.85081487961E+02 0.  0.
        254    2    1    2    0    0 -0.18957456399E+03  0.58043144528E+03  0.57048631729E+03  0.12245964317E+04  0.89517741500E+03 0.  0.
        -24    2    4    4    0    0  0.28400800917E+03  0.14091894314E+03  0.45990641741E+03  0.56419348367E+03  0.79257027683E+02 0.  0.
         24    2    4    4    0    0 -0.47358257316E+03  0.43951250214E+03  0.11057989988E+03  0.66040294803E+03  0.80327121009E+02 0.  0.
         11    1    3    3    0    0  0.16111425259E+03 -0.55128082915E+03 -0.88057670971E+03  0.10513247342E+04  0.00000000000E+00 0.  1.
        -11    1    3    3    0    0  0.28460311398E+02 -0.29150616130E+02 -0.44201932298E+02  0.60112881852E+02  0.00000000000E+00 0. -1.
          2    1    6    6  502    0 -0.42354436775E+03  0.39581064193E+03  0.73566614863E+02  0.58435258410E+03  0.00000000000E+00 0. -1.
          1    1    5    5  503    0  0.23960971571E+03  0.14534809792E+03  0.37352069292E+03  0.46696530221E+03  0.00000000000E+00 0. -1.
         -2    1    5    5    0  503  0.44398293454E+02 -0.44291547840E+01  0.86385724489E+02  0.97228181456E+02  0.00000000000E+00 0.  1.
         -1    1    6    6    0  502 -0.50038205406E+02  0.43701860211E+02  0.37013285018E+02  0.76050363931E+02  0.00000000000E+00 0.  1.
<mgrwt>
<rscale>  0 0.23090110E+04</rscale>
<asrwt>0</asrwt>
<pdfrwt beam="1">  1        2 0.15244167E+00 0.23090110E+04</pdfrwt>
<pdfrwt beam="2">  1       -2 0.20694818E+00 0.23090110E+04</pdfrwt>
<totfact> 0.27709467E+00</totfact>
</mgrwt>
</event>
<event>
12    1  0.1549527E-007  0.2037434E+04  0.7818608E-02  0.8589316E-01
         -1   -1    0    0    0  501 -0.00000000000E+00  0.00000000000E+00  0.10977189104E+04  0.10977189104E+04  0.00000000000E+00 0.  1.
          1   -1    0    0  501    0  0.00000000000E+00 -0.00000000000E+00 -0.94540108024E+03  0.94540108024E+03  0.00000000000E+00 0. -1.
         23    2    1    2    0    0 -0.30477878395E+03 -0.23177693848E+03 -0.67230960815E+03  0.77887162052E+03  0.89611024324E+02 0.  0.
        254    2    1    2    0    0  0.30477878395E+03  0.23177693848E+03  0.82462743831E+03  0.12642483701E+04  0.87846620479E+03 0.  0.
        -24    2    4    4    0    0  0.15406011023E+03  0.30783981064E+03  0.96652637953E+03  0.10291230823E+04  0.80132450228E+02 0.  0.
         24    2    4    4    0    0  0.15071867372E+03 -0.76062872161E+02 -0.14189894122E+03  0.23512528783E+03  0.81528598213E+02 0.  0.
         11    1    3    3    0    0 -0.21870142117E+03 -0.11645641210E+03 -0.39110835081E+03  0.46298828237E+03  0.00000000000E+00 0. -1.
        -11    1    3    3    0    0 -0.86077362774E+02 -0.11532052638E+03 -0.28120125734E+03  0.31588333814E+03  0.00000000000E+00 0.  1.
          4    1    6    6  502    0  0.23045109823E+02  0.11005134117E+02 -0.47800065434E+02  0.54194430703E+02  0.00000000000E+00 0. -1.
          1    1    5    5  503    0  0.21283220402E+02  0.17616098146E+02  0.35958366879E+02  0.45346516219E+02  0.00000000000E+00 0. -1.
         -2    1    5    5    0  503  0.13277688983E+03  0.29022371250E+03  0.93056801265E+03  0.98377656606E+03  0.00000000000E+00 0.  1.
         -3    1    6    6    0  502  0.12767356389E+03 -0.87068006278E+02 -0.94098875790E+02  0.18093085712E+03  0.00000000000E+00 0.  1.
<mgrwt>
<rscale>  0 0.20374343E+04</rscale>
<asrwt>0</asrwt>
<pdfrwt beam="1">  1        1 0.14544632E+00 0.20374343E+04</pdfrwt>
<pdfrwt beam="2">  1       -1 0.16887983E+00 0.20374343E+04</pdfrwt>
<totfact> 0.38764234E+00</totfact>
</mgrwt>
</event>
<event>
12    1  0.1549527E-007  0.2141160E+04  0.7818608E-02  0.8543326E-01
          1   -1    0    0  501    0  0.00000000000E+00  0.00000000000E+00  0.27971303539E+04  0.27971303539E+04  0.00000000000E+00 0. -1.
         -1   -1    0    0    0  501 -0.00000000000E+00 -0.00000000000E+00 -0.40975617017E+03  0.40975617017E+03  0.00000000000E+00 0.  1.
         23    2    1    2    0    0  0.25775609329E+03  0.81874265620E+03  0.12679634710E+04  0.15336297911E+04  0.86667362179E+02 0.  0.
        254    2    1    2    0    0 -0.25775609329E+03 -0.81874265620E+03  0.11194107127E+04  0.16732567329E+04  0.89996111577E+03 0.  0.
        -24    2    4    4    0    0  0.28150018956E+03 -0.51075529729E+03  0.72283383411E+03  0.93221380369E+03  0.80127982782E+02 0.  0.
         24    2    4    4    0    0 -0.53925628285E+03 -0.30798735891E+03  0.39657687860E+03  0.74104292925E+03  0.78853348128E+02 0.  0.
         13    1    3    3    0    0  0.21648246844E+03  0.70690595142E+03  0.11400004831E+04  0.13587427221E+04  0.00000000000E+00 0.  1.
        -13    1    3    3    0    0  0.41273624852E+02  0.11183670478E+03  0.12796298787E+03  0.17488706902E+03  0.00000000000E+00 0. -1.
          2    1    6    6  502    0 -0.54143162902E+03 -0.30404254726E+03  0.39604585448E+03  0.73650688951E+03  0.00000000000E+00 0. -1.
          1    1    5    5  503    0  0.25223525663E+03 -0.43444824161E+03  0.57704981833E+03  0.76508456536E+03  0.00000000000E+00 0. -1.
         -2    1    5    5    0  503  0.29264932927E+02 -0.76307055682E+02  0.14578401579E+03  0.16712923833E+03  0.00000000000E+00 0.  1.
         -1    1    6    6    0  502  0.21753461695E+01 -0.39448116475E+01  0.53102411981E+00  0.45360397383E+01  0.00000000000E+00 0.  1.
<mgrwt>
<rscale>  0 0.21411599E+04</rscale>
<asrwt>0</asrwt>
<pdfrwt beam="1">  1        1 0.43032774E+00 0.21411599E+04</pdfrwt>
<pdfrwt beam="2">  1       -1 0.63039412E-01 0.21411599E+04</pdfrwt>
<totfact> 0.19597277E+00</totfact>
</mgrwt>
</event>
<event>
12    1  0.1549527E-007  0.2795830E+04  0.7818608E-02  0.8304564E-01
         -2   -1    0    0    0  501 -0.00000000000E+00  0.00000000000E+00  0.16300355198E+04  0.16300355198E+04  0.00000000000E+00 0.  1.
          2   -1    0    0  501    0  0.00000000000E+00 -0.00000000000E+00 -0.11988487943E+04  0.11988487943E+04  0.00000000000E+00 0. -1.
         23    2    1    2    0    0  0.95574644543E+03 -0.81014650222E+03  0.24014039155E+03  0.12788968583E+04  0.90117387973E+02 0.  0.
        254    2    1    2    0    0 -0.95574644543E+03  0.81014650222E+03  0.19104633397E+03  0.15499874558E+04  0.89228571011E+03 0.  0.
        -24    2    4    4    0    0 -0.31468949724E+03  0.74150663893E+03  0.34899496108E+03  0.88145091417E+03  0.79351471198E+02 0.  0.
         24    2    4    4    0    0 -0.64105694819E+03  0.68639863290E+02 -0.15794862712E+03  0.66853654165E+03  0.79548080153E+02 0.  0.
         13    1    3    3    0    0  0.54731276519E+03 -0.42616746540E+03  0.97835486216E+02  0.70052962383E+03  0.00000000000E+00 0. -1.
        -13    1    3    3    0    0  0.40843368024E+03 -0.38397903683E+03  0.14230490533E+03  0.57836723451E+03  0.00000000000E+00 0.  1.
          2    1    6    6  502    0 -0.12971123230E+03 -0.11859678687E+02 -0.12520506458E+02  0.13085266083E+03  0.00000000000E+00 0. -1.
          3    1    5    5  503    0 -0.49495596298E+02  0.76602376439E+02  0.61700046591E+02  0.11011191524E+03  0.00000000000E+00 0. -1.
         -4    1    5    5    0  503 -0.26519390094E+03  0.66490426249E+03  0.28729491449E+03  0.77133899893E+03  0.00000000000E+00 0.  1.
         -1    1    6    6    0  502 -0.51134571589E+03  0.80499541977E+02 -0.14542812066E+03  0.53768388082E+03  0.00000000000E+00 0.  1.
<mgrwt>
<rscale>  0 0.27958298E+04</rscale>
<asrwt>0</asrwt>
<pdfrwt beam="1">  1        2 0.18443828E+00 0.27958298E+04</pdfrwt>
<pdfrwt beam="2">  1       -2 0.25077470E+00 0.27958298E+04</pdfrwt>
<totfact> 0.10495658E+00</totfact>
</mgrwt>
</event>
<event>
12    1  0.1549527E-007  0.1632824E+04  0.7818608E-02  0.8800633E-01
          1   -1    0    0  501    0  0.00000000000E+00  0.00000000000E+00  0.12603420299E+04  0.12603420299E+04  0.00000000000E+00 0. -1.
         -1   -1    0    0    0  501 -0.00000000000E+00 -0.00000000000E+00 -0.52884754624E+03  0.52884754624E+03  0.00000000000E+00 0.  1.
         23    2    1    2    0    0 -0.25567973372E+03  0.40221409323E+03  0.59580698129E+03  0.76779732595E+03  0.85898031197E+02 0.  0.
        254    2    1    2    0    0  0.25567973372E+03 -0.40221409323E+03  0.13568750236E+03  0.10213922502E+04  0.89313085682E+03 0.  0.
        -24    2    4    4    0    0  0.43832423537E+03  0.66900052322E+00  0.30579726237E+03  0.54056550262E+03  0.81058707554E+02 0.  0.
         24    2    4    4    0    0 -0.18264450165E+03 -0.40288309375E+03 -0.17010976001E+03  0.48082674756E+03  0.81137103150E+02 0.  0.
         13    1    3    3    0    0 -0.89156966762E+01 -0.25400501328E+01  0.19371591091E+02  0.21475568521E+02  0.00000000000E+00 0. -1.
        -13    1    3    3    0    0 -0.24676403704E+03  0.40475414336E+03  0.57643539020E+03  0.74632175743E+03  0.00000000000E+00 0.  1.
          2    1    6    6  502    0 -0.11277055483E+03 -0.23167202707E+03 -0.56460605406E+02  0.26377438489E+03  0.00000000000E+00 0. -1.
          1    1    5    5  503    0  0.17338864783E+02 -0.13573141682E+02  0.29484249805E+02  0.36799285233E+02  0.00000000000E+00 0. -1.
         -2    1    5    5    0  503  0.42098537059E+03  0.14242142206E+02  0.27631301256E+03  0.50376621738E+03  0.00000000000E+00 0.  1.
         -1    1    6    6    0  502 -0.69873946829E+02 -0.17121106668E+03 -0.11364915460E+03  0.21705236267E+03  0.00000000000E+00 0.  1.
<mgrwt>
<rscale>  0 0.16328243E+04</rscale>
<asrwt>0</asrwt>
<pdfrwt beam="1">  1        1 0.19389877E+00 0.16328243E+04</pdfrwt>
<pdfrwt beam="2">  1       -1 0.81361161E-01 0.16328243E+04</pdfrwt>
<totfact> 0.13908552E+01</totfact>
</mgrwt>
</event>
<event>
12    1  0.1549527E-007  0.1844541E+04  0.7818608E-02  0.8682965E-01
         -1   -1    0    0    0  501 -0.00000000000E+00  0.00000000000E+00  0.27404423928E+03  0.27404423928E+03  0.00000000000E+00 0.  1.
          1   -1    0    0  501    0  0.00000000000E+00 -0.00000000000E+00 -0.31038142518E+04  0.31038142518E+04  0.00000000000E+00 0. -1.
         23    2    1    2    0    0 -0.60186389226E+03  0.25246812199E+03 -0.58986837490E+03  0.88461092867E+03  0.92798157248E+02 0.  0.
        254    2    1    2    0    0  0.60186389226E+03 -0.25246812199E+03 -0.22399016376E+04  0.24932475624E+04  0.87928593975E+03 0.  0.
        -24    2    4    4    0    0  0.80152218129E+02 -0.31800675191E+03 -0.17044384214E+04  0.17376750916E+04  0.82775112233E+02 0.  0.
         24    2    4    4    0    0  0.52171167413E+03  0.65538629925E+02 -0.53546321614E+03  0.75557247077E+03  0.87695608804E+02 0.  0.
         11    1    3    3    0    0 -0.44204848090E+03  0.18883544587E+03 -0.48651704645E+03  0.68393312653E+03  0.00000000000E+00 0. -1.
        -11    1    3    3    0    0 -0.15981541136E+03  0.63632676114E+02 -0.10335132845E+03  0.20067780214E+03  0.00000000000E+00 0.  1.
          2    1    6    6  502    0  0.51914487150E+03  0.54895248620E+02 -0.52243694897E+03  0.73855619392E+03  0.00000000000E+00 0. -1.
          3    1    5    5  503    0  0.87559002527E+01 -0.94803323789E+00 -0.11577229535E+03  0.11610679966E+03  0.00000000000E+00 0. -1.
         -4    1    5    5    0  503  0.71396317876E+02 -0.31705871867E+03 -0.15886661261E+04  0.16215682920E+04  0.00000000000E+00 0.  1.
         -1    1    6    6    0  502  0.25668026290E+01  0.10643381305E+02 -0.13026267171E+02  0.17016276847E+02  0.00000000000E+00 0.  1.
<mgrwt>
<rscale>  0 0.18445405E+04</rscale>
<asrwt>0</asrwt>
<pdfrwt beam="1">  1        1 0.47750986E+00 0.18445405E+04</pdfrwt>
<pdfrwt beam="2">  1       -1 0.42160654E-01 0.18445405E+04</pdfrwt>
<totfact> 0.26144573E+00</totfact>
</mgrwt>
</event>
<event>
12    1  0.1549527E-007  0.1703385E+04  0.7818608E-02  0.8759436E-01
          2   -1    0    0  501    0  0.00000000000E+00  0.00000000000E+00  0.10492675428E+04  0.10492675428E+04  0.00000000000E+00 0. -1.
         -2   -1    0    0    0  501 -0.00000000000E+00 -0.00000000000E+00 -0.69132008518E+03  0.69132008518E+03  0.00000000000E+00 0.  1.
         23    2    1    2    0    0  0.34201262978E+03 -0.32791690626E+03 -0.25754762010E+03  0.54703742664E+03  0.91744390504E+02 0.  0.
        254    2    1    2    0    0 -0.34201262978E+03  0.32791690626E+03  0.61549507771E+03  0.11935502013E+04  0.90621507163E+03 0.  0.
        -24    2    4    4    0    0 -0.11637671531E+03 -0.30994459267E+03  0.22614036876E+03  0.40879757576E+03  0.79792237550E+02 0.  0.
         24    2    4    4    0    0 -0.22563591447E+03  0.63786149893E+03  0.38935470894E+03  0.78475262556E+03  0.80378705111E+02 0.  0.
         11    1    3    3    0    0  0.34432493125E+03 -0.32476393273E+03 -0.26209458816E+03  0.54104051921E+03  0.00000000000E+00 0.  1.
        -11    1    3    3    0    0 -0.23123014740E+01 -0.31529735310E+01  0.45469680617E+01  0.59969074320E+01  0.00000000000E+00 0. -1.
          4    1    6    6  502    0 -0.15955910461E+03  0.46059211710E+03  0.32076329122E+03  0.58351803331E+03  0.00000000000E+00 0. -1.
          1    1    5    5  503    0 -0.74486646540E+02 -0.18374932099E+03  0.18075445661E+03  0.26829880183E+03  0.00000000000E+00 0. -1.
         -2    1    5    5    0  503 -0.41890068770E+02 -0.12619527167E+03  0.45385912153E+02  0.14049877393E+03  0.00000000000E+00 0.  1.
         -1    1    6    6    0  502 -0.66076809852E+02  0.17726938183E+03  0.68591417722E+02  0.20123459225E+03  0.00000000000E+00 0.  1.
<mgrwt>
<rscale>  0 0.17033845E+04</rscale>
<asrwt>0</asrwt>
<pdfrwt beam="1">  1        2 0.16142578E+00 0.17033845E+04</pdfrwt>
<pdfrwt beam="2">  1       -2 0.10635694E+00 0.17033845E+04</pdfrwt>
<totfact> 0.15890638E+01</totfact>
</mgrwt>
</event>
<event>
12    1  0.1549527E-007  0.1713001E+04  0.7818608E-02  0.8753984E-01
          1   -1    0    0  501    0  0.00000000000E+00  0.00000000000E+00  0.15661527007E+04  0.15661527007E+04  0.00000000000E+00 0. -1.
         -1   -1    0    0    0  501 -0.00000000000E+00 -0.00000000000E+00 -0.46840439876E+03  0.46840439876E+03  0.00000000000E+00 0.  1.
         23    2    1    2    0    0  0.35523554003E+03 -0.35593778743E+03  0.82384760689E+03  0.96955600349E+03  0.91814852317E+02 0.  0.
        254    2    1    2    0    0 -0.35523554003E+03  0.35593778743E+03  0.27390069509E+03  0.10650010960E+04  0.89795420056E+03 0.  0.
        -24    2    4    4    0    0 -0.42322891141E+03  0.27624648538E+03  0.55484395899E+03  0.75424366927E+03  0.74812176016E+02 0.  0.
         24    2    4    4    0    0  0.67993371373E+02  0.79691302056E+02 -0.28094326389E+03  0.31075742674E+03  0.81653282670E+02 0.  0.
         13    1    3    3    0    0  0.36001217566E+03 -0.35368743870E+03  0.80621641617E+03  0.95115113448E+03  0.00000000000E+00 0. -1.
        -13    1    3    3    0    0 -0.47766356256E+01 -0.22503487372E+01  0.17631190716E+02  0.18404869013E+02  0.00000000000E+00 0.  1.
          4    1    6    6  502    0  0.12349646414E+02 -0.15860624255E+02 -0.25971053114E+02  0.32841570732E+02  0.00000000000E+00 0. -1.
          3    1    5    5  503    0 -0.69274720363E+02  0.79803698203E+02  0.10269062154E+03  0.14735325202E+03  0.00000000000E+00 0. -1.
         -4    1    5    5    0  503 -0.35395419104E+03  0.19644278717E+03  0.45215333745E+03  0.60689041726E+03  0.00000000000E+00 0.  1.
         -3    1    6    6    0  502  0.55643724960E+02  0.95551926310E+02 -0.25497221078E+03  0.27791585601E+03  0.00000000000E+00 0.  1.
<mgrwt>
<rscale>  0 0.17130007E+04</rscale>
<asrwt>0</asrwt>
<pdfrwt beam="1">  1        1 0.24094657E+00 0.17130007E+04</pdfrwt>
<pdfrwt beam="2">  1       -1 0.72062216E-01 0.17130007E+04</pdfrwt>
<totfact> 0.10874597E+01</totfact>
</mgrwt>
</event>
<event>
12    1  0.1549527E-007  0.1404729E+04  0.7818608E-02  0.8950402E-01
          2   -1    0    0  501    0  0.00000000000E+00  0.00000000000E+00  0.43110597486E+03  0.43110597486E+03  0.00000000000E+00 0. -1.
         -2   -1    0    0    0  501 -0.00000000000E+00 -0.00000000000E+00 -0.11443037248E+04  0.11443037248E+04  0.00000000000E+00 0.  1.
         23    2    1    2    0    0 -0.25986532342E+03  0.60564715815E+02 -0.55841378561E+03  0.62566148415E+03  0.91805586284E+02 0.  0.
        254    2    1    2    0    0  0.25986532342E+03 -0.60564715815E+02 -0.15478396434E+03  0.94974821551E+03  0.89825693770E+03 0.  0.
        -24    2    4    4    0    0 -0.24354949984E+02  0.16077146234E+03 -0.44581965709E+03  0.48004981973E+03  0.72470932702E+02 0.  0.
         24    2    4    4    0    0  0.28422027341E+03 -0.22133617815E+03  0.29103569275E+03  0.46969839578E+03  0.78383295207E+02 0.  0.
         11    1    3    3    0    0 -0.44576152130E+02  0.17216516981E+02 -0.19737513801E+03  0.20307729292E+03  0.00000000000E+00 0. -1.
        -11    1    3    3    0    0 -0.21528917129E+03  0.43348198834E+02 -0.36103864761E+03  0.42258419124E+03  0.00000000000E+00 0.  1.
          4    1    6    6  502    0  0.26335881897E+03 -0.19020287817E+03  0.22986691790E+03  0.39796206143E+03  0.00000000000E+00 0. -1.
          3    1    5    5  503    0 -0.37941174814E+01  0.15269581141E+03 -0.41430466671E+03  0.44156399650E+03  0.00000000000E+00 0. -1.
         -4    1    5    5    0  503 -0.20560832502E+02  0.80756509314E+01 -0.31514990380E+02  0.38485823232E+02  0.00000000000E+00 0.  1.
         -3    1    6    6    0  502  0.20861454442E+02 -0.31133299984E+02  0.61168774854E+02  0.71736334354E+02  0.00000000000E+00 0.  1.
<mgrwt>
<rscale>  0 0.14047294E+04</rscale>
<asrwt>0</asrwt>
<pdfrwt beam="1">  1        2 0.66323996E-01 0.14047294E+04</pdfrwt>
<pdfrwt beam="2">  1       -2 0.17604673E+00 0.14047294E+04</pdfrwt>
<totfact> 0.13713109E+01</totfact>
</mgrwt>
</event>
<event>
12    1  0.1549527E-007  0.2006407E+04  0.7818608E-02  0.8603631E-01
         -2   -1    0    0    0  501 -0.00000000000E+00  0.00000000000E+00  0.83540861247E+03  0.83540861247E+03  0.00000000000E+00 0.  1.
          2   -1    0    0  501    0  0.00000000000E+00 -0.00000000000E+00 -0.12047000404E+04  0.12047000404E+04  0.00000000000E+00 0. -1.
         23    2    1    2    0    0 -0.64159955440E+03 -0.36061918339E+03 -0.46900342934E+03  0.87712356351E+03  0.87666101162E+02 0.  0.
        254    2    1    2    0    0  0.64159955440E+03  0.36061918339E+03  0.99712001383E+02  0.11629850894E+04  0.89492773523E+03 0.  0.
        -24    2    4    4    0    0  0.79799175556E+02  0.38787516756E+03 -0.26998319506E+03  0.48569282096E+03  0.78686318302E+02 0.  0.
         24    2    4    4    0    0  0.56180037885E+03 -0.27255984169E+02  0.36969519645E+03  0.67729226843E+03  0.75417002447E+02 0.  0.
         13    1    3    3    0    0 -0.20946988894E+03 -0.14285130786E+03 -0.12005798529E+03  0.28053172790E+03  0.00000000000E+00 0.  1.
        -13    1    3    3    0    0 -0.43212966546E+03 -0.21776787553E+03 -0.34894544406E+03  0.59659183561E+03  0.00000000000E+00 0. -1.
          2    1    6    6  502    0  0.79700063065E+02  0.17458214899E+02  0.35465794989E+02  0.88964666774E+02  0.00000000000E+00 0. -1.
          3    1    5    5  503    0  0.24968758162E+02  0.22586759395E+02 -0.30828518944E+02  0.45650828737E+02  0.00000000000E+00 0. -1.
         -2    1    5    5    0  503  0.54830417395E+02  0.36528840816E+03 -0.23915467612E+03  0.44004199222E+03  0.00000000000E+00 0.  1.
         -1    1    6    6    0  502  0.48210031578E+03 -0.44714199067E+02  0.33422940146E+03  0.58832760166E+03  0.00000000000E+00 0.  1.
<mgrwt>
<rscale>  0 0.20064065E+04</rscale>
<asrwt>0</asrwt>
<pdfrwt beam="1">  1        2 0.18533847E+00 0.20064065E+04</pdfrwt>
<pdfrwt beam="2">  1       -2 0.12852440E+00 0.20064065E+04</pdfrwt>
<totfact> 0.78128624E+00</totfact>
</mgrwt>
</event>
<event>
12    1  0.1549527E-007  0.1445928E+04  0.7818608E-02  0.8921228E-01
         -2   -1    0    0    0  501 -0.00000000000E+00  0.00000000000E+00  0.17450404945E+04  0.17450404945E+04  0.00000000000E+00 0.  1.
          2   -1    0    0  501    0  0.00000000000E+00 -0.00000000000E+00 -0.29952139180E+03  0.29952139180E+03  0.00000000000E+00 0. -1.
         23    2    1    2    0    0  0.24614171647E+03 -0.22492049031E+03  0.49395493126E+02  0.34900039126E+03  0.90478653929E+02 0.  0.
        254    2    1    2    0    0 -0.24614171647E+03  0.22492049031E+03  0.13961236096E+04  0.16955614951E+04  0.90254788169E+03 0.  0.
        -24    2    4    4    0    0  0.16802076251E+03 -0.18014968573E+03  0.87353732539E+03  0.91110878320E+03  0.79792669316E+02 0.  0.
         24    2    4    4    0    0 -0.41416247898E+03  0.40507017604E+03  0.52258628423E+03  0.78445271188E+03  0.81591826820E+02 0.  0.
         11    1    3    3    0    0  0.85645478595E+02 -0.12920990684E+03  0.47470283474E+02  0.16212271847E+03  0.00000000000E+00 0. -1.
        -11    1    3    3    0    0  0.16049623787E+03 -0.95710583464E+02  0.19252096512E+01  0.18687767280E+03  0.00000000000E+00 0.  1.
          2    1    6    6  502    0 -0.33795506369E+03  0.32162080736E+03  0.46043192795E+03  0.65547778686E+03  0.00000000000E+00 0. -1.
          3    1    5    5  503    0  0.11337232266E+03 -0.12027163553E+03  0.70462054696E+03  0.72374627119E+03  0.00000000000E+00 0. -1.
         -4    1    5    5    0  503  0.54648439846E+02 -0.59878050204E+02  0.16891677843E+03  0.18736251202E+03  0.00000000000E+00 0.  1.
         -1    1    6    6    0  502 -0.76207415289E+02  0.83449368681E+02  0.62154356279E+02  0.12897492502E+03  0.00000000000E+00 0.  1.
<mgrwt>
<rscale>  0 0.14459280E+04</rscale>
<asrwt>0</asrwt>
<pdfrwt beam="1">  1        2 0.46080215E-01 0.14459280E+04</pdfrwt>
<pdfrwt beam="2">  1       -2 0.26846776E+00 0.14459280E+04</pdfrwt>
<totfact> 0.52944580E+00</totfact>
</mgrwt>
</event>
<event>
12    1  0.1549527E-007  0.2173463E+04  0.7818608E-02  0.8529555E-01
          2   -1    0    0  501    0  0.00000000000E+00  0.00000000000E+00  0.82230450403E+03  0.82230450403E+03  0.00000000000E+00 0.  1.
         -2   -1    0    0    0  501 -0.00000000000E+00 -0.00000000000E+00 -0.14361896698E+04  0.14361896698E+04  0.00000000000E+00 0. -1.
         23    2    1    2    0    0 -0.82932796958E+03 -0.13634719180E+03  0.12513530223E+03  0.85492303294E+03  0.94122848207E+02 0.  0.
        254    2    1    2    0    0  0.82932796958E+03  0.13634719180E+03 -0.73902046796E+03  0.14035711408E+04  0.84704501505E+03 0.  0.
        -24    2    4    4    0    0  0.67690484932E+03  0.35780905956E+03 -0.80588794767E+03  0.11145698517E+04  0.81136132022E+02 0.  0.
         24    2    4    4    0    0  0.15242312026E+03 -0.22146186776E+03  0.66867479713E+02  0.28900128917E+03  0.82294099662E+02 0.  0.
         13    1    3    3    0    0 -0.58170859496E+03 -0.73596927427E+02  0.49088148609E+02  0.58839701181E+03  0.00000000000E+00 0.  1.
        -13    1    3    3    0    0 -0.24761937462E+03 -0.62750264374E+02  0.76047153618E+02  0.26652602113E+03  0.00000000000E+00 0. -1.
          4    1    6    6  502    0  0.15612520661E+03 -0.19157151762E+03  0.43617442795E+02  0.25095260074E+03  0.00000000000E+00 0. -1.
          1    1    5    5  503    0  0.65493196827E+03  0.35095832007E+03 -0.75805297197E+03  0.10614857200E+04  0.00000000000E+00 0. -1.
         -2    1    5    5    0  503  0.21972881053E+02  0.68507394872E+01 -0.47834975703E+02  0.53084131657E+02  0.00000000000E+00 0.  1.
         -3    1    6    6    0  502 -0.37020863498E+01 -0.29890350142E+02  0.23250036918E+02  0.38048688435E+02  0.00000000000E+00 0.  1.
<mgrwt>
<rscale>  0 0.21734629E+04</rscale>
<asrwt>0</asrwt>
<pdfrwt beam="1">  1        2 0.12650839E+00 0.21734629E+04</pdfrwt>
<pdfrwt beam="2">  1       -2 0.22095225E+00 0.21734629E+04</pdfrwt>
<totfact> 0.29631413E+00</totfact>
</mgrwt>
</event>
<event>
12    1  0.1549527E-007  0.2062809E+04  0.7818608E-02  0.8577805E-01
         -2   -1    0    0    0  501 -0.00000000000E+00  0.00000000000E+00  0.79077530974E+03  0.79077530974E+03  0.00000000000E+00 0.  1.
          2   -1    0    0  501    0  0.00000000000E+00 -0.00000000000E+00 -0.13452565760E+04  0.13452565760E+04  0.00000000000E+00 0. -1.
         23    2    1    2    0    0 -0.28172677101E+03 -0.30860341924E+03 -0.96801966206E+03  0.10583632254E+04  0.92003298305E+02 0.  0.
        254    2    1    2    0    0  0.28172677101E+03  0.30860341924E+03  0.41353839581E+03  0.10776686603E+04  0.90318862522E+03 0.  0.
        -24    2    4    4    0    0 -0.27902224725E+03  0.34696365374E+02  0.33411456797E+03  0.44366599635E+03  0.78420147664E+02 0.  0.
         24    2    4    4    0    0  0.56074901827E+03  0.27390705386E+03  0.79423827844E+02  0.63400266396E+03  0.78655564549E+02 0.  0.
         11    1    3    3    0    0 -0.18976762928E+03 -0.16345591932E+03 -0.65555181150E+03  0.70176760274E+03  0.00000000000E+00 0. -1.
        -11    1    3    3    0    0 -0.91959141731E+02 -0.14514749992E+03 -0.31246785056E+03  0.35659562268E+03  0.00000000000E+00 0.  1.
          2    1    6    6  502    0  0.24758076424E+03  0.15584975344E+03  0.13304338730E+02  0.29285215706E+03  0.00000000000E+00 0. -1.
          3    1    5    5  503    0 -0.70966658718E+02  0.40759725065E+02  0.72350728219E+02  0.10923483744E+03  0.00000000000E+00 0. -1.
         -4    1    5    5    0  503 -0.20805558853E+03 -0.60633596912E+01  0.26176383975E+03  0.33443115891E+03  0.00000000000E+00 0.  1.
         -1    1    6    6    0  502  0.31316825403E+03  0.11805730043E+03  0.66119489114E+02  0.34115050689E+03  0.00000000000E+00 0.  1.
<mgrwt>
<rscale>  0 0.20628094E+04</rscale>
<asrwt>0</asrwt>
<pdfrwt beam="1">  1        2 0.20696255E+00 0.20628094E+04</pdfrwt>
<pdfrwt beam="2">  1       -2 0.12165774E+00 0.20628094E+04</pdfrwt>
<totfact> 0.73818414E+00</totfact>
</mgrwt>
</event>
<event>
12    1  0.1549527E-007  0.1721182E+04  0.7818608E-02  0.8749375E-01
          2   -1    0    0  501    0  0.00000000000E+00  0.00000000000E+00  0.15217760867E+04  0.15217760867E+04  0.00000000000E+00 0.  1.
         -2   -1    0    0    0  501 -0.00000000000E+00 -0.00000000000E+00 -0.48667943547E+03  0.48667943547E+03  0.00000000000E+00 0. -1.
         23    2    1    2    0    0 -0.30706821852E+03 -0.44883185984E+03  0.38218687113E+02  0.55290649648E+03  0.92217116481E+02 0.  0.
        254    2    1    2    0    0  0.30706821852E+03  0.44883185984E+03  0.99687796416E+03  0.14555490257E+04  0.91055826924E+03 0.  0.
        -24    2    4    4    0    0  0.19485150890E+03  0.27887942329E+03 -0.78623885746E+02  0.35797322406E+03  0.78881369658E+02 0.  0.
         24    2    4    4    0    0  0.11221670962E+03  0.16995243655E+03  0.10755018499E+04  0.10975758017E+04  0.80572890494E+02 0.  0.
         11    1    3    3    0    0 -0.16864679526E+03 -0.30900986386E+03 -0.22255818640E+01  0.35204231383E+03  0.00000000000E+00 0. -1.
        -11    1    3    3    0    0 -0.13842142326E+03 -0.13982199598E+03  0.40444268977E+02  0.20086418265E+03  0.00000000000E+00 0.  1.
          2    1    6    6  502    0  0.10578786674E+03  0.17242130442E+03  0.92247834400E+03  0.94439741323E+03  0.00000000000E+00 0. -1.
          1    1    5    5  503    0  0.13878459813E+03  0.20795253071E+03 -0.21289808975E+02  0.25091567442E+03  0.00000000000E+00 0. -1.
         -2    1    5    5    0  503  0.56066910768E+02  0.70926892580E+02 -0.57334076772E+02  0.10705754963E+03  0.00000000000E+00 0.  1.
         -1    1    6    6    0  502  0.64288428755E+01 -0.24688678678E+01  0.15302350591E+03  0.15317838845E+03  0.00000000000E+00 0.  1.
<mgrwt>
<rscale>  0 0.17211823E+04</rscale>
<asrwt>0</asrwt>
<pdfrwt beam="1">  1        2 0.23411940E+00 0.17211823E+04</pdfrwt>
<pdfrwt beam="2">  1       -2 0.74873760E-01 0.17211823E+04</pdfrwt>
<totfact> 0.18787331E+01</totfact>
</mgrwt>
</event>
<event>
12    1  0.1549527E-007  0.1745437E+04  0.7818608E-02  0.8735866E-01
         -2   -1    0    0    0  501 -0.00000000000E+00  0.00000000000E+00  0.27599637341E+03  0.27599637341E+03  0.00000000000E+00 0.  1.
          2   -1    0    0  501    0  0.00000000000E+00 -0.00000000000E+00 -0.27595928918E+04  0.27595928918E+04  0.00000000000E+00 0. -1.
         23    2    1    2    0    0  0.51449108585E+03 -0.23871769951E+03 -0.13824864485E+04  0.14971657905E+04  0.92462999813E+02 0.  0.
        254    2    1    2    0    0 -0.51449108585E+03  0.23871769951E+03 -0.11011100698E+04  0.15384234747E+04  0.91247804584E+03 0.  0.
        -24    2    4    4    0    0 -0.49448378247E+03 -0.19075640823E+03 -0.92147891613E+03  0.10661336822E+04  0.81335214398E+02 0.  0.
         24    2    4    4    0    0 -0.20007303381E+02  0.42947410774E+03 -0.17963115372E+03  0.47228979248E+03  0.77084338798E+02 0.  0.
         11    1    3    3    0    0  0.20035550114E+03 -0.11243434573E+03 -0.67072911136E+03  0.70898614215E+03  0.00000000000E+00 0. -1.
        -11    1    3    3    0    0  0.31413558471E+03 -0.12628335378E+03 -0.71175733715E+03  0.78817964831E+03  0.00000000000E+00 0.  1.
          2    1    6    6  502    0  0.62909499501E+00  0.25344677333E+03 -0.66495901179E+02  0.26202550934E+03  0.00000000000E+00 0. -1.
          3    1    5    5  503    0 -0.44981929505E+03 -0.16871273122E+03 -0.87392781370E+03  0.99727188240E+03  0.00000000000E+00 0. -1.
         -4    1    5    5    0  503 -0.44664487417E+02 -0.22043677011E+02 -0.47551102426E+02  0.68861799819E+02  0.00000000000E+00 0.  1.
         -1    1    6    6    0  502 -0.20636398376E+02  0.17602733442E+03 -0.11313525254E+03  0.21026428314E+03  0.00000000000E+00 0.  1.
<mgrwt>
<rscale>  0 0.17454371E+04</rscale>
<asrwt>0</asrwt>
<pdfrwt beam="1">  1        2 0.42455275E+00 0.17454371E+04</pdfrwt>
<pdfrwt beam="2">  1       -2 0.42460980E-01 0.17454371E+04</pdfrwt>
<totfact> 0.12227133E+01</totfact>
</mgrwt>
</event>
<event>
12    1  0.1549527E-007  0.1978544E+04  0.7818608E-02  0.8616718E-01
         -1   -1    0    0    0  501 -0.00000000000E+00  0.00000000000E+00  0.81734122501E+03  0.81734122501E+03  0.00000000000E+00 0.  1.
          1   -1    0    0  501    0  0.00000000000E+00 -0.00000000000E+00 -0.11973693162E+04  0.11973693162E+04  0.00000000000E+00 0. -1.
         23    2    1    2    0    0 -0.34010758075E+03 -0.71220277510E+03 -0.17493191089E+03  0.81320972710E+03  0.88334180518E+02 0.  0.
        254    2    1    2    0    0  0.34010758075E+03  0.71220277510E+03 -0.20509618032E+03  0.12015008141E+04  0.88240229138E+03 0.  0.
        -24    2    4    4    0    0  0.47089019559E+02  0.84164689873E+03 -0.20772592110E+03  0.87175484789E+03  0.78864305065E+02 0.  0.
         24    2    4    4    0    0  0.29301856120E+03 -0.12944412363E+03  0.26297407745E+01  0.32974596624E+03  0.78165391127E+02 0.  0.
         13    1    3    3    0    0 -0.33426086048E+03 -0.64826585978E+03 -0.16929687962E+03  0.74875922783E+03  0.00000000000E+00 0. -1.
        -13    1    3    3    0    0 -0.58467202702E+01 -0.63936915319E+02 -0.56350312770E+01  0.64450499269E+02  0.00000000000E+00 0.  1.
          4    1    6    6  502    0  0.68515595715E+02  0.38852943347E+01  0.60927723896E+00  0.68628373046E+02  0.00000000000E+00 0. -1.
          3    1    5    5  503    0  0.70997203022E+00 -0.17783592489E+01 -0.82668058960E+00  0.20856708032E+01  0.00000000000E+00 0. -1.
         -4    1    5    5    0  503  0.46379047528E+02  0.84342525798E+03 -0.20689924051E+03  0.86966917708E+03  0.00000000000E+00 0.  1.
         -3    1    6    6    0  502  0.22450296548E+03 -0.13332941796E+03  0.20204635355E+01  0.26111759320E+03  0.00000000000E+00 0.  1.
<mgrwt>
<rscale>  0 0.19785442E+04</rscale>
<asrwt>0</asrwt>
<pdfrwt beam="1">  1        1 0.18421066E+00 0.19785442E+04</pdfrwt>
<pdfrwt beam="2">  1       -1 0.12574480E+00 0.19785442E+04</pdfrwt>
<totfact> 0.55006815E+00</totfact>
</mgrwt>
</event>
<event>
12    1  0.1549527E-007  0.1590519E+04  0.7818608E-02  0.8826394E-01
         -1   -1    0    0    0  501 -0.00000000000E+00  0.00000000000E+00  0.14921565971E+04  0.14921565971E+04  0.00000000000E+00 0.  1.
          1   -1    0    0  501    0  0.00000000000E+00 -0.00000000000E+00 -0.42384121936E+03  0.42384121936E+03  0.00000000000E+00 0. -1.
         23    2    1    2    0    0 -0.27305948603E+03 -0.44980511035E+03  0.31213458082E+03  0.61871998794E+03  0.92197108016E+02 0.  0.
        254    2    1    2    0    0  0.27305948603E+03  0.44980511035E+03  0.75618079693E+03  0.12972778285E+04  0.91336424636E+03 0.  0.
        -24    2    4    4    0    0  0.84455427630E+02  0.70804276512E+03  0.44489130144E+03  0.84418167132E+03  0.79102133918E+02 0.  0.
         24    2    4    4    0    0  0.18860405840E+03 -0.25823765477E+03  0.31128949549E+03  0.45309615721E+03  0.78337733492E+02 0.  0.
         11    1    3    3    0    0 -0.20475095182E+03 -0.39070040817E+03  0.28180483215E+03  0.52343454666E+03  0.00000000000E+00 0. -1.
        -11    1    3    3    0    0 -0.68308534210E+02 -0.59104702185E+02  0.30329748670E+02  0.95285441284E+02  0.00000000000E+00 0.  1.
          2    1    6    6  502    0  0.70974853132E+02 -0.13514530784E+03  0.19161062092E+03  0.24498227294E+03  0.00000000000E+00 0. -1.
          1    1    5    5  503    0  0.89254451991E+02  0.70598836699E+03  0.43824354290E+03  0.83572922315E+03  0.00000000000E+00 0. -1.
         -2    1    5    5    0  503 -0.47990243611E+01  0.20543981347E+01  0.66477585374E+01  0.84524481712E+01  0.00000000000E+00 0.  1.
         -1    1    6    6    0  502  0.11762920527E+03 -0.12309234693E+03  0.11967887457E+03  0.20811388426E+03  0.00000000000E+00 0.  1.
<mgrwt>
<rscale>  0 0.15905187E+04</rscale>
<asrwt>0</asrwt>
<pdfrwt beam="1">  1        1 0.65206342E-01 0.15905187E+04</pdfrwt>
<pdfrwt beam="2">  1       -1 0.22956255E+00 0.15905187E+04</pdfrwt>
<totfact> 0.50663155E+00</totfact>
</mgrwt>
</event>
<event>
12    1  0.1549527E-007  0.2468234E+04  0.7818608E-02  0.8414391E-01
         -2   -1    0    0    0  501 -0.00000000000E+00  0.00000000000E+00  0.98044276592E+03  0.98044276592E+03  0.00000000000E+00 0.  1.
          2   -1    0    0  501    0  0.00000000000E+00 -0.00000000000E+00 -0.15534250056E+04  0.15534250056E+04  0.00000000000E+00 0. -1.
         23    2    1    2    0    0  0.25133346840E+03 -0.76137982708E+03 -0.97757087142E+03  0.12676016581E+04  0.91112027854E+02 0.  0.
        254    2    1    2    0    0 -0.25133346840E+03  0.76137982708E+03  0.40458863174E+03  0.12662661134E+04  0.89267584013E+03 0.  0.
        -24    2    4    4    0    0  0.42041646357E+02 -0.13271573236E+03 -0.10469938752E+03  0.19323987248E+03  0.83658358384E+02 0.  0.
         24    2    4    4    0    0 -0.29337511476E+03  0.89409555944E+03  0.50928801926E+03  0.10730262409E+04  0.80840582198E+02 0.  0.
         13    1    3    3    0    0  0.73480679144E+02 -0.11450467604E+03 -0.16792363681E+03  0.21612283276E+03  0.00000000000E+00 0.  1.
        -13    1    3    3    0    0  0.17785278926E+03 -0.64687515104E+03 -0.80964723462E+03  0.10514788254E+04  0.00000000000E+00 0. -1.
          2    1    6    6  502    0 -0.12737102983E+03  0.47002558501E+03  0.22755693863E+03  0.53752171131E+03  0.00000000000E+00 0. -1.
          1    1    5    5  503    0  0.41908314262E+02 -0.13378045415E+03 -0.11595604438E+03  0.18193218777E+03  0.00000000000E+00 0. -1.
         -2    1    5    5    0  503  0.13333209448E+00  0.10647217917E+01  0.11256656864E+02  0.11307684718E+02  0.00000000000E+00 0.  1.
         -1    1    6    6    0  502 -0.16600408493E+03  0.42406997443E+03  0.28173108063E+03  0.53550452959E+03  0.00000000000E+00 0.  1.
<mgrwt>
<rscale>  0 0.24682336E+04</rscale>
<asrwt>0</asrwt>
<pdfrwt beam="1">  1        2 0.23898846E+00 0.24682336E+04</pdfrwt>
<pdfrwt beam="2">  1       -2 0.15083735E+00 0.24682336E+04</pdfrwt>
<totfact> 0.31270825E+00</totfact>
</mgrwt>
</event>
<event>
12    1  0.1549527E-007  0.1237857E+04  0.7818608E-02  0.9080351E-01
         -1   -1    0    0    0  501 -0.00000000000E+00  0.00000000000E+00  0.29705049063E+03  0.29705049063E+03  0.00000000000E+00 0.  1.
          1   -1    0    0  501    0  0.00000000000E+00 -0.00000000000E+00 -0.12895868607E+04  0.12895868607E+04  0.00000000000E+00 0. -1.
         23    2    1    2    0    0 -0.13874958643E+03  0.68942987314E+02  0.59335164719E+02  0.18889968826E+03  0.90320801688E+02 0.  0.
        254    2    1    2    0    0  0.13874958643E+03 -0.68942987314E+02 -0.10518715348E+04  0.13977376631E+04  0.90732147877E+03 0.  0.
        -24    2    4    4    0    0 -0.23621995778E+03 -0.35887988346E+02  0.24393515903E+02  0.25470644031E+03  0.84808672650E+02 0.  0.
         24    2    4    4    0    0  0.37496954421E+03 -0.33054998968E+02 -0.10762650507E+04  0.11430312228E+04  0.80493010997E+02 0.  0.
         11    1    3    3    0    0 -0.64345009492E+02  0.52563705981E+02 -0.12699612307E+02  0.84050601341E+02  0.00000000000E+00 0. -1.
        -11    1    3    3    0    0 -0.74404576937E+02  0.16379281333E+02  0.72034777026E+02  0.10484908692E+03  0.00000000000E+00 0.  1.
          2    1    6    6  502    0  0.34846289896E+03 -0.40434498798E+02 -0.10395912754E+04  0.10971833760E+04  0.00000000000E+00 0. -1.
          1    1    5    5  503    0 -0.23944824302E+03 -0.33325056377E+02  0.34111133927E+02  0.24415075246E+03  0.00000000000E+00 0. -1.
         -2    1    5    5    0  503  0.32282852445E+01 -0.25629319693E+01 -0.97176180242E+01  0.10555687849E+02  0.00000000000E+00 0.  1.
         -1    1    6    6    0  502  0.26506645250E+02  0.73794998297E+01 -0.36673775313E+02  0.45847846796E+02  0.00000000000E+00 0.  1.
<mgrwt>
<rscale>  0 0.12378569E+04</rscale>
<asrwt>0</asrwt>
<pdfrwt beam="1">  1        1 0.19839798E+00 0.12378569E+04</pdfrwt>
<pdfrwt beam="2">  1       -1 0.45700075E-01 0.12378569E+04</pdfrwt>
<totfact> 0.43201587E+01</totfact>
</mgrwt>
</event>
<event>
12    1  0.1549527E-007  0.1340232E+04  0.7818608E-02  0.8998255E-01
         -2   -1    0    0    0  501 -0.00000000000E+00  0.00000000000E+00  0.19138720174E+04  0.19138720174E+04  0.00000000000E+00 0. -1.
          2   -1    0    0  501    0  0.00000000000E+00 -0.00000000000E+00 -0.23463189754E+03  0.23463189754E+03  0.00000000000E+00 0.  1.
         23    2    1    2    0    0 -0.25851807847E+03 -0.18224753559E+03  0.19071196717E+03  0.38006957437E+03  0.89644106428E+02 0.  0.
        254    2    1    2    0    0  0.25851807847E+03  0.18224753559E+03  0.14885281527E+04  0.17684343405E+04  0.90088744826E+03 0.  0.
        -24    2    4    4    0    0  0.57272168024E+03  0.22348746032E+03  0.10850226574E+04  0.12491695667E+04  0.72067131655E+02 0.  0.
         24    2    4    4    0    0 -0.31420360178E+03 -0.41239924730E+02  0.40350549527E+03  0.51926477381E+03  0.79966154356E+02 0.  0.
         11    1    3    3    0    0 -0.65280161406E+02 -0.34554771005E+01  0.33823595757E+02  0.73603501446E+02  0.00000000000E+00 0. -1.
        -11    1    3    3    0    0 -0.19323791706E+03 -0.17879205849E+03  0.15688837141E+03  0.30646607292E+03  0.00000000000E+00 0.  1.
          2    1    6    6  502    0 -0.26521435337E+02 -0.19593397236E+02  0.17402965985E+02  0.37284728410E+02  0.00000000000E+00 0. -1.
          1    1    5    5  503    0  0.22656762027E+03  0.80987609000E+02  0.49568499354E+03  0.55099500196E+03  0.00000000000E+00 0. -1.
         -2    1    5    5    0  503  0.34615405998E+03  0.14249985132E+03  0.58933766384E+03  0.69817456476E+03  0.00000000000E+00 0.  1.
         -1    1    6    6    0  502 -0.28768216644E+03 -0.21646527494E+02  0.38610252929E+03  0.48198004540E+03  0.00000000000E+00 0.  1.
<mgrwt>
<rscale>  0 0.13402320E+04</rscale>
<asrwt>0</asrwt>
<pdfrwt beam="1">  1        2 0.36097216E-01 0.13402320E+04</pdfrwt>
<pdfrwt beam="2">  1       -2 0.29444184E+00 0.13402320E+04</pdfrwt>
<totfact> 0.48806514E+00</totfact>
</mgrwt>
</event>
<event>
12    1  0.1549527E-007  0.2106551E+04  0.7818608E-02  0.8558363E-01
          2   -1    0    0  501    0  0.00000000000E+00  0.00000000000E+00  0.11719819511E+04  0.11719819511E+04  0.00000000000E+00 0. -1.
         -2   -1    0    0    0  501 -0.00000000000E+00 -0.00000000000E+00 -0.94659209599E+03  0.94659209599E+03  0.00000000000E+00 0.  1.
         23    2    1    2    0    0 -0.18337099226E+03  0.34220687777E+03 -0.63407601796E+03  0.74916779082E+03  0.92029963940E+02 0.  0.
        254    2    1    2    0    0  0.18337099226E+03 -0.34220687777E+03  0.85946587303E+03  0.13694062562E+04  0.99290555426E+03 0.  0.
        -24    2    4    4    0    0  0.80852312257E+02  0.10447537181E+03  0.88984543729E+03  0.90315659189E+03  0.80091993985E+02 0.  0.
         24    2    4    4    0    0  0.10251868000E+03 -0.44668224958E+03 -0.30379564258E+02  0.46624966433E+03  0.80191768455E+02 0.  0.
         11    1    3    3    0    0 -0.10075196708E+03  0.27025633238E+03 -0.43492601553E+03  0.52187171129E+03  0.00000000000E+00 0.  1.
        -11    1    3    3    0    0 -0.82619025173E+02  0.71950545387E+02 -0.19915000243E+03  0.22729607953E+03  0.00000000000E+00 0. -1.
          4    1    6    6  502    0  0.64480902860E+02 -0.12144720700E+03 -0.16678570856E+02  0.13851131956E+03  0.00000000000E+00 0. -1.
          1    1    5    5  503    0 -0.15896951764E+02  0.11051801922E+02  0.87437580895E+02  0.89555490919E+02  0.00000000000E+00 0. -1.
         -4    1    5    5    0  503  0.96749264021E+02  0.93423569885E+02  0.80240785639E+03  0.81360110097E+03  0.00000000000E+00 0.  1.
         -3    1    6    6    0  502  0.38037777140E+02 -0.32523504258E+03 -0.13700993401E+02  0.32773834477E+03  0.00000000000E+00 0.  1.
<mgrwt>
<rscale>  0 0.21065506E+04</rscale>
<asrwt>0</asrwt>
<pdfrwt beam="1">  1        2 0.18030492E+00 0.21065506E+04</pdfrwt>
<pdfrwt beam="2">  1       -2 0.14562955E+00 0.21065506E+04</pdfrwt>
<totfact> 0.58756539E+00</totfact>
</mgrwt>
</event>
<event>
12    1  0.1549527E-007  0.1605875E+04  0.7818608E-02  0.8816947E-01
          1   -1    0    0  501    0  0.00000000000E+00  0.00000000000E+00  0.93267791454E+03  0.93267791454E+03  0.00000000000E+00 0. -1.
         -1   -1    0    0    0  501 -0.00000000000E+00 -0.00000000000E+00 -0.69124479849E+03  0.69124479849E+03  0.00000000000E+00 0.  1.
         23    2    1    2    0    0  0.30350250043E+03  0.42954387506E+03 -0.65083304590E+02  0.53764633009E+03  0.90587147883E+02 0.  0.
        254    2    1    2    0    0 -0.30350250043E+03 -0.42954387506E+03  0.30651642064E+03  0.10862763829E+04  0.89967902923E+03 0.  0.
        -24    2    4    4    0    0  0.19596267830E+03 -0.32881621478E+03  0.40281850285E+03  0.56150199016E+03  0.80624216812E+02 0.  0.
         24    2    4    4    0    0 -0.49946517873E+03 -0.10072766028E+03 -0.96302082206E+02  0.52477439277E+03  0.80638365333E+02 0.  0.
         13    1    3    3    0    0  0.26242774556E+03  0.41214965397E+03 -0.65919558933E+02  0.49303250112E+03  0.00000000000E+00 0. -1.
        -13    1    3    3    0    0  0.41074754866E+02  0.17394221086E+02  0.83625434262E+00  0.44613828975E+02  0.00000000000E+00 0.  1.
          4    1    6    6  502    0 -0.48192895465E+02 -0.11369010982E+02  0.14479177515E+02  0.51589302821E+02  0.00000000000E+00 0. -1.
          1    1    5    5  503    0  0.30214219115E+01 -0.61071056544E+02  0.61296624068E+02  0.86579899861E+02  0.00000000000E+00 0. -1.
         -2    1    5    5    0  503  0.19294125639E+03 -0.26774515823E+03  0.34152187878E+03  0.47492209030E+03  0.00000000000E+00 0.  1.
         -3    1    6    6    0  502 -0.45127228326E+03 -0.89358649300E+02 -0.11078125972E+03  0.47318508995E+03  0.00000000000E+00 0.  1.
<mgrwt>
<rscale>  0 0.16058752E+04</rscale>
<asrwt>0</asrwt>
<pdfrwt beam="1">  1        1 0.14348891E+00 0.16058752E+04</pdfrwt>
<pdfrwt beam="2">  1       -1 0.10634535E+00 0.16058752E+04</pdfrwt>
<totfact> 0.13568437E+01</totfact>
</mgrwt>
</event>
<event>
12    1  0.1549527E-007  0.1987210E+04  0.7818608E-02  0.8612624E-01
          1   -1    0    0  501    0  0.00000000000E+00  0.00000000000E+00  0.18146038509E+04  0.18146038509E+04  0.00000000000E+00 0. -1.
         -1   -1    0    0    0  501 -0.00000000000E+00 -0.00000000000E+00 -0.54405836804E+03  0.54405836804E+03  0.00000000000E+00 0.  1.
         23    2    1    2    0    0 -0.28981067968E+02  0.22796134246E+02 -0.42633091952E+03  0.43686062336E+03  0.87918059996E+02 0.  0.
        254    2    1    2    0    0  0.28981067968E+02 -0.22796134246E+02  0.16968764023E+04  0.19218015955E+04  0.90142791269E+03 0.  0.
        -24    2    4    4    0    0 -0.19709630060E+03 -0.37641218319E+03  0.11451909949E+04  0.12239733535E+04  0.78200203038E+02 0.  0.
         24    2    4    4    0    0  0.22607736857E+03  0.35361604894E+03  0.55168540738E+03  0.69782824205E+03  0.80325463217E+02 0.  0.
         13    1    3    3    0    0 -0.14239223029E+02  0.32958332344E+02 -0.41295043878E+03  0.41450822915E+03  0.00000000000E+00 0.  1.
        -13    1    3    3    0    0 -0.14741844938E+02 -0.10162198098E+02 -0.13380480732E+02  0.22352394212E+02  0.00000000000E+00 0. -1.
          2    1    6    6  502    0  0.21715384257E+03  0.32139125601E+03  0.53399608750E+03  0.65999996382E+03  0.00000000000E+00 0. -1.
          1    1    5    5  503    0 -0.16266372829E+03 -0.35741574407E+03  0.10381919421E+04  0.11099765814E+04  0.00000000000E+00 0. -1.
         -2    1    5    5    0  503 -0.34432572304E+02 -0.18996439124E+02  0.10699905288E+03  0.11399677211E+03  0.00000000000E+00 0.  1.
         -1    1    6    6    0  502  0.89235259997E+01  0.32224792936E+02  0.17689319880E+02  0.37828278230E+02  0.00000000000E+00 0.  1.
<mgrwt>
<rscale>  0 0.19872095E+04</rscale>
<asrwt>0</asrwt>
<pdfrwt beam="1">  1        1 0.27916982E+00 0.19872095E+04</pdfrwt>
<pdfrwt beam="2">  1       -1 0.83701288E-01 0.19872095E+04</pdfrwt>
<totfact> 0.52339476E+00</totfact>
</mgrwt>
</event>
<event>
12    1  0.1549527E-007  0.1424377E+04  0.7818608E-02  0.8936360E-01
          2   -1    0    0  501    0  0.00000000000E+00  0.00000000000E+00  0.13706423093E+04  0.13706423093E+04  0.00000000000E+00 0. -1.
         -2   -1    0    0    0  501 -0.00000000000E+00 -0.00000000000E+00 -0.37005444409E+03  0.37005444409E+03  0.00000000000E+00 0.  1.
         23    2    1    2    0    0  0.77474711388E+02 -0.37373029167E+03  0.16224670488E+03  0.42511721144E+03  0.93402293372E+02 0.  0.
        254    2    1    2    0    0 -0.77474711388E+02  0.37373029167E+03  0.83834116034E+03  0.13155795420E+04  0.93928534978E+03 0.  0.
        -24    2    4    4    0    0 -0.58732765536E+02  0.67406068354E+03  0.69431834033E+03  0.97278014325E+03  0.80099354167E+02 0.  0.
         24    2    4    4    0    0 -0.18741945851E+02 -0.30033039187E+03  0.14402282002E+03  0.34279939872E+03  0.78862223282E+02 0.  0.
         13    1    3    3    0    0  0.54114533785E+02 -0.33163625703E+03  0.10882720813E+03  0.35320581956E+03  0.00000000000E+00 0.  1.
        -13    1    3    3    0    0  0.23360177603E+02 -0.42094034642E+02  0.53419496747E+02  0.71911391885E+02  0.00000000000E+00 0. -1.
          2    1    6    6  502    0 -0.44567310882E+02 -0.25529614219E+03  0.12079178708E+03  0.28592485244E+03  0.00000000000E+00 0. -1.
          3    1    5    5  503    0 -0.70141644120E+02  0.63134886910E+03  0.66550671978E+03  0.92001110799E+03  0.00000000000E+00 0. -1.
         -4    1    5    5    0  503  0.11408878584E+02  0.42711814442E+02  0.28811620549E+02  0.52769035259E+02  0.00000000000E+00 0.  1.
         -1    1    6    6    0  502  0.25825365031E+02 -0.45034249687E+02  0.23231032932E+02  0.56874546283E+02  0.00000000000E+00 0.  1.
<mgrwt>
<rscale>  0 0.14243767E+04</rscale>
<asrwt>0</asrwt>
<pdfrwt beam="1">  1        2 0.21086805E+00 0.14243767E+04</pdfrwt>
<pdfrwt beam="2">  1       -2 0.56931454E-01 0.14243767E+04</pdfrwt>
<totfact> 0.42275290E+01</totfact>
</mgrwt>
</event>
<event>
12    1  0.1549527E-007  0.1569016E+04  0.7818608E-02  0.8839812E-01
         -2   -1    0    0    0  501 -0.00000000000E+00  0.00000000000E+00  0.88724949376E+03  0.88724949376E+03  0.00000000000E+00 0.  1.
          2   -1    0    0  501    0  0.00000000000E+00 -0.00000000000E+00 -0.69366398680E+03  0.69366398680E+03  0.00000000000E+00 0. -1.
         23    2    1    2    0    0  0.17575467389E+01 -0.41816773199E+03 -0.24787746359E+03  0.49427319721E+03  0.89417087127E+02 0.  0.
        254    2    1    2    0    0 -0.17575467389E+01  0.41816773199E+03  0.44146297054E+03  0.10866402834E+04  0.90057215702E+03 0.  0.
        -24    2    4    4    0    0  0.44075173237E+03  0.24512076668E+03  0.24196974006E+03  0.56505654878E+03  0.79957916286E+02 0.  0.
         24    2    4    4    0    0 -0.44250927911E+03  0.17304696531E+03  0.19949323048E+03  0.52158373457E+03  0.80574989055E+02 0.  0.
         11    1    3    3    0    0  0.36598789435E+02 -0.30303269080E+03 -0.15522985586E+03  0.34243917888E+03  0.00000000000E+00 0. -1.
        -11    1    3    3    0    0 -0.34841242696E+02 -0.11513504119E+03 -0.92647607729E+02  0.15183401832E+03  0.00000000000E+00 0.  1.
          2    1    6    6  502    0 -0.33934759030E+03  0.11226423068E+03  0.18024339208E+03  0.40030953638E+03  0.00000000000E+00 0. -1.
          3    1    5    5  503    0  0.39032301889E+03  0.24367692324E+03  0.21606214910E+03  0.50834373634E+03  0.00000000000E+00 0. -1.
         -4    1    5    5    0  503  0.50428713474E+02  0.14438434402E+01  0.25907590960E+02  0.56712812449E+02  0.00000000000E+00 0.  1.
         -1    1    6    6    0  502 -0.10316168881E+03  0.60782734632E+02  0.19249838400E+02  0.12127419819E+03  0.00000000000E+00 0.  1.
<mgrwt>
<rscale>  0 0.15690163E+04</rscale>
<asrwt>0</asrwt>
<pdfrwt beam="1">  1        2 0.10671754E+00 0.15690163E+04</pdfrwt>
<pdfrwt beam="2">  1       -2 0.13649992E+00 0.15690163E+04</pdfrwt>
<totfact> 0.15272349E+01</totfact>
</mgrwt>
</event>
<event>
12    1  0.1745660E-007  0.1807592E+04  0.7818608E-02  0.8702273E-01
          1   -1    0    0  501    0  0.00000000000E+00  0.00000000000E+00  0.15217377327E+04  0.15217377327E+04  0.00000000000E+00 0. -1.
         -1   -1    0    0    0  501 -0.00000000000E+00 -0.00000000000E+00 -0.53678582051E+03  0.53678582051E+03  0.00000000000E+00 0.  1.
         23    2    1    2    0    0 -0.20125755913E+03  0.34974352204E+03  0.97455629972E+03  0.10588731977E+04  0.92883427243E+02 0.  0.
        254    2    1    2    0    0  0.20125755913E+03 -0.34974352204E+03  0.10395612485E+02  0.99965035557E+03  0.91453137088E+03 0.  0.
        -24    2    4    4    0    0 -0.10722337259E+03  0.18529994651E+02  0.36976302751E+03  0.39391046986E+03  0.81243765445E+02 0.  0.
         24    2    4    4    0    0  0.30848093172E+03 -0.36827351669E+03 -0.35936741502E+03  0.60573988571E+03  0.83606230822E+02 0.  0.
         11    1    3    3    0    0 -0.20247320062E+03  0.33815213291E+03  0.88803048653E+03  0.97156595605E+03  0.00000000000E+00 0. -1.
        -11    1    3    3    0    0  0.12156414874E+01  0.11591389133E+02  0.86525813197E+02  0.87307241600E+02  0.00000000000E+00 0.  1.
          2    1    6    6  502    0  0.30633467964E+03 -0.37279731633E+03 -0.35686130926E+03  0.60014062440E+03  0.00000000000E+00 0. -1.
          3    1    5    5  503    0 -0.34461896192E+02 -0.73194656910E+01  0.24255940931E+03  0.24510459790E+03  0.00000000000E+00 0. -1.
         -4    1    5    5    0  503 -0.72761476397E+02  0.25849460342E+02  0.12720361820E+03  0.14880587196E+03  0.00000000000E+00 0.  1.
         -1    1    6    6    0  502  0.21462520787E+01  0.45237996352E+01 -0.25061057598E+01  0.55992613088E+01  0.00000000000E+00 0.  1.
<mgrwt>
<rscale>  0 0.18075920E+04</rscale>
<asrwt>0</asrwt>
<pdfrwt beam="1">  1        1 0.23411350E+00 0.18075920E+04</pdfrwt>
<pdfrwt beam="2">  1       -1 0.82582434E-01 0.18075920E+04</pdfrwt>
<totfact> 0.86823977E+00</totfact>
</mgrwt>
</event>
<event>
12    1  0.1549527E-007  0.1409512E+04  0.7818608E-02  0.8946962E-01
          2   -1    0    0  501    0  0.00000000000E+00  0.00000000000E+00  0.85199550128E+03  0.85199550128E+03  0.00000000000E+00 0. -1.
         -2   -1    0    0    0  501 -0.00000000000E+00 -0.00000000000E+00 -0.58296200754E+03  0.58296200754E+03  0.00000000000E+00 0.  1.
         23    2    1    2    0    0  0.17489790298E+03 -0.12520118509E+03  0.42901670894E+03  0.48847421906E+03  0.91033581260E+02 0.  0.
        254    2    1    2    0    0 -0.17489790298E+03  0.12520118509E+03 -0.15998321521E+03  0.94648328976E+03  0.90772869043E+03 0.  0.
        -24    2    4    4    0    0 -0.53036589938E+03  0.14206780580E+03 -0.20424132672E+02  0.55550512355E+03  0.81838550974E+02 0.  0.
         24    2    4    4    0    0  0.35546799640E+03 -0.16866620716E+02 -0.13955908253E+03  0.39097816621E+03  0.82129224854E+02 0.  0.
         11    1    3    3    0    0  0.85247724138E+02 -0.59269208045E+02  0.30329893129E+03  0.32057800177E+03  0.00000000000E+00 0.  1.
        -11    1    3    3    0    0  0.89650178845E+02 -0.65931977043E+02  0.12571777765E+03  0.16789621729E+03  0.00000000000E+00 0. -1.
          4    1    6    6  502    0  0.34413682185E+03 -0.79930860405E+01 -0.11577300120E+03  0.36317685689E+03  0.00000000000E+00 0. -1.
          3    1    5    5  503    0 -0.45228506765E+03  0.90403279683E+02 -0.10457548149E+02  0.46135007934E+03  0.00000000000E+00 0. -1.
         -4    1    5    5    0  503 -0.78080831735E+02  0.51664526121E+02 -0.99665845234E+01  0.94155044213E+02  0.00000000000E+00 0.  1.
         -3    1    6    6    0  502  0.11331174551E+02 -0.88735346759E+01 -0.23786081334E+02  0.27801309314E+02  0.00000000000E+00 0.  1.
<mgrwt>
<rscale>  0 0.14095120E+04</rscale>
<asrwt>0</asrwt>
<pdfrwt beam="1">  1        2 0.13107623E+00 0.14095120E+04</pdfrwt>
<pdfrwt beam="2">  1       -2 0.89686462E-01 0.14095120E+04</pdfrwt>
<totfact> 0.32792878E+01</totfact>
</mgrwt>
</event>
<event>
12    1  0.1549527E-007  0.1243755E+04  0.7818608E-02  0.9075397E-01
         -2   -1    0    0    0  501 -0.00000000000E+00  0.00000000000E+00  0.41592727997E+03  0.41592727997E+03  0.00000000000E+00 0.  1.
          2   -1    0    0  501    0  0.00000000000E+00 -0.00000000000E+00 -0.92980581230E+03  0.92980581230E+03  0.00000000000E+00 0. -1.
         23    2    1    2    0    0  0.12208766310E+03  0.16023705142E+03  0.10231633994E+03  0.24482544655E+03  0.94284440567E+02 0.  0.
        254    2    1    2    0    0 -0.12208766310E+03 -0.16023705142E+03 -0.61619487226E+03  0.11009076457E+04  0.88978661132E+03 0.  0.
        -24    2    4    4    0    0 -0.41941098949E+03 -0.23225196846E+03 -0.61654953671E+03  0.78523778416E+03  0.81354111782E+02 0.  0.
         24    2    4    4    0    0  0.29732332640E+03  0.72014917038E+02  0.35466444419E+00  0.31566986156E+03  0.77846175331E+02 0.  0.
         11    1    3    3    0    0  0.48822517745E+02  0.52676247701E+01  0.99343433932E+01  0.50100671536E+02  0.00000000000E+00 0. -1.
        -11    1    3    3    0    0  0.73265145350E+02  0.15496942665E+03  0.92381996544E+02  0.19472477501E+03  0.00000000000E+00 0.  1.
          2    1    6    6  502    0  0.25850186902E+03  0.80227378923E+02 -0.19369577038E+02  0.27135738267E+03  0.00000000000E+00 0. -1.
          1    1    5    5  503    0 -0.25425721912E+03 -0.15843519705E+03 -0.32400196171E+03  0.44127736893E+03  0.00000000000E+00 0. -1.
         -2    1    5    5    0  503 -0.16515377038E+03 -0.73816771402E+02 -0.29254757500E+03  0.34396041523E+03  0.00000000000E+00 0.  1.
         -1    1    6    6    0  502  0.38821457375E+02 -0.82124618844E+01  0.19724241482E+02  0.44312478885E+02  0.00000000000E+00 0.  1.
<mgrwt>
<rscale>  0 0.12437550E+04</rscale>
<asrwt>0</asrwt>
<pdfrwt beam="1">  1        2 0.14304705E+00 0.12437550E+04</pdfrwt>
<pdfrwt beam="2">  1       -2 0.63988813E-01 0.12437550E+04</pdfrwt>
<totfact> 0.62221099E+01</totfact>
</mgrwt>
</event>
<event>
12    1  0.1549527E-007  0.2862281E+04  0.7818608E-02  0.8284189E-01
         -2   -1    0    0    0  501 -0.00000000000E+00  0.00000000000E+00  0.18406203121E+04  0.18406203121E+04  0.00000000000E+00 0.  1.
          2   -1    0    0  501    0  0.00000000000E+00 -0.00000000000E+00 -0.11127572380E+04  0.11127572380E+04  0.00000000000E+00 0. -1.
         23    2    1    2    0    0  0.93867249436E+03 -0.43704204319E+03  0.11288373564E+04  0.15343828506E+04  0.89135603785E+02 0.  0.
        254    2    1    2    0    0 -0.93867249436E+03  0.43704204319E+03 -0.40097428236E+03  0.14189946995E+04  0.88354614077E+03 0.  0.
        -24    2    4    4    0    0  0.16158066441E+03  0.99894326538E+02 -0.72660454079E+02  0.21955588158E+03  0.82692538754E+02 0.  0.
         24    2    4    4    0    0 -0.11002531588E+04  0.33714771665E+03 -0.32831382828E+03  0.11994388179E+04  0.81473381081E+02 0.  0.
         13    1    3    3    0    0  0.34564356509E+02 -0.13999639850E+01  0.51303971897E+02  0.61876911465E+02  0.00000000000E+00 0. -1.
        -13    1    3    3    0    0  0.90410813785E+03 -0.43564207921E+03  0.10775333845E+04  0.14725059392E+04  0.00000000000E+00 0.  1.
          2    1    6    6  502    0 -0.10186363404E+04  0.33155657444E+03 -0.31469668779E+03  0.11165051551E+04  0.00000000000E+00 0. -1.
          3    1    5    5  503    0  0.13397553450E+03  0.85921209038E+02 -0.22671564411E+02  0.16076659429E+03  0.00000000000E+00 0. -1.
         -4    1    5    5    0  503  0.27605129905E+02  0.13973117500E+02 -0.49988889668E+02  0.58789287289E+02  0.00000000000E+00 0.  1.
         -1    1    6    6    0  502 -0.81616818397E+02  0.55911422117E+01 -0.13617140496E+02  0.82933662838E+02  0.00000000000E+00 0.  1.
<mgrwt>
<rscale>  0 0.28622813E+04</rscale>
<asrwt>0</asrwt>
<pdfrwt beam="1">  1        2 0.17119342E+00 0.28622813E+04</pdfrwt>
<pdfrwt beam="2">  1       -2 0.28317236E+00 0.28622813E+04</pdfrwt>
<totfact> 0.74601049E-01</totfact>
</mgrwt>
</event>
<event>
12    1  0.1549527E-007  0.1316140E+04  0.7818608E-02  0.9016863E-01
          1   -1    0    0  501    0  0.00000000000E+00  0.00000000000E+00  0.81311983041E+03  0.81311983041E+03  0.00000000000E+00 0. -1.
         -1   -1    0    0    0  501 -0.00000000000E+00 -0.00000000000E+00 -0.53258560313E+03  0.53258560313E+03  0.00000000000E+00 0.  1.
         23    2    1    2    0    0  0.72784161788E+02 -0.18113598538E+03  0.37693106399E+03  0.43428490361E+03  0.91752771577E+02 0.  0.
        254    2    1    2    0    0 -0.72784161788E+02  0.18113598538E+03 -0.96396836710E+02  0.91142052993E+03  0.88503517040E+03 0.  0.
        -24    2    4    4    0    0 -0.36601122759E+03  0.27636642374E+03 -0.28048096806E+03  0.54347753554E+03  0.79722263504E+02 0.  0.
         24    2    4    4    0    0  0.29322706581E+03 -0.95230438356E+02  0.18408413135E+03  0.36794299439E+03  0.80275346145E+02 0.  0.
         13    1    3    3    0    0  0.83348382754E+02 -0.18386059187E+03  0.36961348753E+03  0.42114819282E+03  0.00000000000E+00 0. -1.
        -13    1    3    3    0    0 -0.10564220966E+02  0.27246064837E+01  0.73175764607E+01  0.13136710790E+02  0.00000000000E+00 0.  1.
          2    1    6    6  502    0  0.49973314932E+02 -0.11767000912E+02 -0.56941089147E+00  0.51343147007E+02  0.00000000000E+00 0. -1.
          3    1    5    5  503    0 -0.11487815325E+03  0.95674704186E+02 -0.49856225094E+02  0.15759531179E+03  0.00000000000E+00 0. -1.
         -4    1    5    5    0  503 -0.25113307434E+03  0.18069171955E+03 -0.23062474296E+03  0.38588222375E+03  0.00000000000E+00 0.  1.
         -1    1    6    6    0  502  0.24325375087E+03 -0.83463437444E+02  0.18465354224E+03  0.31659984739E+03  0.00000000000E+00 0.  1.
<mgrwt>
<rscale>  0 0.13161397E+04</rscale>
<asrwt>0</asrwt>
<pdfrwt beam="1">  1        1 0.12509536E+00 0.13161397E+04</pdfrwt>
<pdfrwt beam="2">  1       -1 0.81936247E-01 0.13161397E+04</pdfrwt>
<totfact> 0.31335150E+01</totfact>
</mgrwt>
</event>
<event>
12    1  0.1549527E-007  0.1873443E+04  0.7818608E-02  0.8668190E-01
          2   -1    0    0  501    0  0.00000000000E+00  0.00000000000E+00  0.16402660090E+04  0.16402660090E+04  0.00000000000E+00 0. -1.
         -2   -1    0    0    0  501 -0.00000000000E+00 -0.00000000000E+00 -0.53494198475E+03  0.53494198475E+03  0.00000000000E+00 0.  1.
         23    2    1    2    0    0 -0.68590866242E+03  0.18746009195E+03  0.53754700744E+03  0.89687987771E+03  0.99119879814E+02 0.  0.
        254    2    1    2    0    0  0.68590866242E+03 -0.18746009195E+03  0.56777701682E+03  0.12783281161E+04  0.89785302374E+03 0.  0.
        -24    2    4    4    0    0  0.81062097092E+03 -0.27619249687E+03  0.65864026052E+03  0.10830852416E+04  0.76668076532E+02 0.  0.
         24    2    4    4    0    0 -0.12471230850E+03  0.88732404924E+02 -0.90863243696E+02  0.19524287447E+03  0.80231237057E+02 0.  0.
         11    1    3    3    0    0 -0.64576480743E+02  0.19561777864E+02  0.92006920955E+02  0.11409670688E+03  0.00000000000E+00 0. -1.
        -11    1    3    3    0    0 -0.62133218168E+03  0.16789831408E+03  0.44554008649E+03  0.78278317082E+03  0.00000000000E+00 0.  1.
          4    1    6    6  502    0 -0.97353571214E+02  0.51813746609E+02 -0.99444224629E+02  0.14849759587E+03  0.00000000000E+00 0. -1.
          3    1    5    5  503    0  0.41012640435E+03 -0.11405251591E+03  0.36421476496E+03  0.56023569946E+03  0.00000000000E+00 0. -1.
         -4    1    5    5    0  503  0.40049456657E+03 -0.16213998096E+03  0.29442549555E+03  0.52284954213E+03  0.00000000000E+00 0.  1.
         -3    1    6    6    0  502 -0.27358737290E+02  0.36918658314E+02  0.85809809332E+01  0.46745278602E+02  0.00000000000E+00 0.  1.
<mgrwt>
<rscale>  0 0.18734430E+04</rscale>
<asrwt>0</asrwt>
<pdfrwt beam="1">  1        2 0.25234862E+00 0.18734430E+04</pdfrwt>
<pdfrwt beam="2">  1       -2 0.82298767E-01 0.18734430E+04</pdfrwt>
<totfact> 0.12885279E+01</totfact>
</mgrwt>
</event>
<event>
12    1  0.1549527E-007  0.2190858E+04  0.7818608E-02  0.8522243E-01
          1   -1    0    0  501    0  0.00000000000E+00  0.00000000000E+00  0.14810829275E+04  0.14810829275E+04  0.00000000000E+00 0. -1.
         -1   -1    0    0    0  501 -0.00000000000E+00 -0.00000000000E+00 -0.81019436580E+03  0.81019436580E+03  0.00000000000E+00 0.  1.
         23    2    1    2    0    0 -0.70998423054E+03 -0.46655856207E+03 -0.49134479057E+02  0.85584960923E+03  0.91158417733E+02 0.  0.
        254    2    1    2    0    0  0.70998423054E+03  0.46655856207E+03  0.72002304081E+03  0.14354276841E+04  0.90568480035E+03 0.  0.
        -24    2    4    4    0    0  0.59815521200E+03  0.50626123053E+02  0.78651047557E+03  0.99246772429E+03  0.77722542452E+02 0.  0.
         24    2    4    4    0    0  0.11182901855E+03  0.41593243902E+03 -0.66487434768E+02  0.44295995982E+03  0.79293277211E+02 0.  0.
         11    1    3    3    0    0 -0.57019697678E+03 -0.37375962986E+03 -0.27997757660E+01  0.68178346415E+03  0.00000000000E+00 0.  1.
        -11    1    3    3    0    0 -0.13978725377E+03 -0.92798932208E+02 -0.46334703291E+02  0.17406614508E+03  0.00000000000E+00 0. -1.
          2    1    6    6  502    0  0.30752987402E+02  0.17405486176E+03  0.88255552858E+01  0.17697099073E+03  0.00000000000E+00 0. -1.
          3    1    5    5  503    0  0.43639429652E+03  0.70732089755E+02  0.58608991009E+03  0.73412832207E+03  0.00000000000E+00 0. -1.
         -4    1    5    5    0  503  0.16176091548E+03 -0.20105966701E+02  0.20042056548E+03  0.25833940222E+03  0.00000000000E+00 0.  1.
         -1    1    6    6    0  502  0.81076031145E+02  0.24187757726E+03 -0.75312990054E+02  0.26598896909E+03  0.00000000000E+00 0.  1.
<mgrwt>
<rscale>  0 0.21908583E+04</rscale>
<asrwt>0</asrwt>
<pdfrwt beam="1">  1        1 0.22785891E+00 0.21908583E+04</pdfrwt>
<pdfrwt beam="2">  1       -1 0.12464529E+00 0.21908583E+04</pdfrwt>
<totfact> 0.34675046E+00</totfact>
</mgrwt>
</event>
<event>
12    1  0.1549527E-007  0.1716500E+04  0.7818608E-02  0.8752009E-01
          1   -1    0    0  501    0  0.00000000000E+00  0.00000000000E+00  0.74857045099E+03  0.74857045099E+03  0.00000000000E+00 0. -1.
         -1   -1    0    0    0  501 -0.00000000000E+00 -0.00000000000E+00 -0.98400003534E+03  0.98400003534E+03  0.00000000000E+00 0.  1.
         23    2    1    2    0    0  0.55090612568E+02 -0.51502252949E+03  0.24981568107E+03  0.58246927259E+03  0.92625037304E+02 0.  0.
        254    2    1    2    0    0 -0.55090612568E+02  0.51502252949E+03 -0.48524526542E+03  0.11501012137E+04  0.90497881342E+03 0.  0.
        -24    2    4    4    0    0 -0.34021683070E+03 -0.62636661226E+02 -0.28103429955E+02  0.35616395121E+03  0.79950698219E+02 0.  0.
         24    2    4    4    0    0  0.28512621813E+03  0.57765919071E+03 -0.45714183547E+03  0.79393726252E+03  0.79816152495E+02 0.  0.
         13    1    3    3    0    0 -0.10874350812E+02 -0.88617010069E+02  0.76177245401E+02  0.11736353222E+03  0.00000000000E+00 0.  1.
        -13    1    3    3    0    0  0.65964963381E+02 -0.42640551942E+03  0.17363843567E+03  0.46510574037E+03  0.00000000000E+00 0. -1.
          4    1    6    6  502    0  0.17111171651E+03  0.35888420530E+03 -0.32831776614E+03  0.51562549191E+03  0.00000000000E+00 0. -1.
          3    1    5    5  503    0 -0.50885356648E+02  0.17843522935E+02  0.43555498029E+01  0.54098813721E+02  0.00000000000E+00 0. -1.
         -2    1    5    5    0  503 -0.28933147406E+03 -0.80480184161E+02 -0.32458979757E+02  0.30206513749E+03  0.00000000000E+00 0.  1.
         -3    1    6    6    0  502  0.11401450162E+03  0.21877498541E+03 -0.12882406932E+03  0.27831177060E+03  0.00000000000E+00 0.  1.
<mgrwt>
<rscale>  0 0.17165003E+04</rscale>
<asrwt>0</asrwt>
<pdfrwt beam="1">  1        1 0.11516469E+00 0.17165003E+04</pdfrwt>
<pdfrwt beam="2">  1       -1 0.15138462E+00 0.17165003E+04</pdfrwt>
<totfact> 0.79455469E+00</totfact>
</mgrwt>
</event>
<event>
12    1  0.1549527E-007  0.1333824E+04  0.7818608E-02  0.9003164E-01
         -2   -1    0    0    0  501 -0.00000000000E+00  0.00000000000E+00  0.78467512421E+03  0.78467512421E+03  0.00000000000E+00 0. -1.
          2   -1    0    0  501    0  0.00000000000E+00 -0.00000000000E+00 -0.56682287876E+03  0.56682287876E+03  0.00000000000E+00 0.  1.
         23    2    1    2    0    0 -0.20366282346E+03  0.17115709906E+03 -0.17597277045E+03  0.33169758825E+03  0.91014152164E+02 0.  0.
        254    2    1    2    0    0  0.20366282346E+03 -0.17115709906E+03  0.39382501590E+03  0.10198004147E+04  0.90228678616E+03 0.  0.
        -24    2    4    4    0    0 -0.41846012050E+02  0.28550176289E+03  0.39416156264E+03  0.49490945699E+03  0.79433543377E+02 0.  0.
         24    2    4    4    0    0  0.24550883551E+03 -0.45665886195E+03 -0.33654673713E+00  0.52489095772E+03  0.81844362794E+02 0.  0.
         11    1    3    3    0    0 -0.61459239779E+02  0.97872499483E+02 -0.41775092504E+02  0.12288784587E+03  0.00000000000E+00 0. -1.
        -11    1    3    3    0    0 -0.14220358368E+03  0.73284599578E+02 -0.13419767795E+03  0.20880974238E+03  0.00000000000E+00 0.  1.
          4    1    6    6  502    0  0.73016654172E+02 -0.14658225750E+03  0.37663124905E+02  0.16803660607E+03  0.00000000000E+00 0. -1.
          1    1    5    5  503    0 -0.51414609557E+01  0.66817030675E+02  0.15446163025E+03  0.16837263860E+03  0.00000000000E+00 0. -1.
         -2    1    5    5    0  503 -0.36704551094E+02  0.21868473222E+03  0.23969993239E+03  0.32653681839E+03  0.00000000000E+00 0.  1.
         -3    1    6    6    0  502  0.17249218134E+03 -0.31007660445E+03 -0.37999671642E+02  0.35685435166E+03  0.00000000000E+00 0.  1.
<mgrwt>
<rscale>  0 0.13338243E+04</rscale>
<asrwt>0</asrwt>
<pdfrwt beam="1">  1        2 0.87203520E-01 0.13338243E+04</pdfrwt>
<pdfrwt beam="2">  1       -2 0.12071925E+00 0.13338243E+04</pdfrwt>
<totfact> 0.27164052E+01</totfact>
</mgrwt>
</event>
<event>
12    1  0.1549527E-007  0.1383565E+04  0.7818608E-02  0.8965802E-01
          2   -1    0    0  501    0  0.00000000000E+00  0.00000000000E+00  0.14781612644E+04  0.14781612644E+04  0.00000000000E+00 0.  1.
         -2   -1    0    0    0  501 -0.00000000000E+00 -0.00000000000E+00 -0.32375559906E+03  0.32375559906E+03  0.00000000000E+00 0. -1.
         23    2    1    2    0    0 -0.24530704926E+02 -0.36619692086E+03  0.53291723292E+03  0.65445603993E+03  0.98030560189E+02 0.  0.
        254    2    1    2    0    0  0.24530704926E+02  0.36619692086E+03  0.62148843241E+03  0.11474608235E+04  0.89202944433E+03 0.  0.
        -24    2    4    4    0    0  0.23713743687E+03 -0.15842106674E+03 -0.73409900828E+01  0.29708657511E+03  0.82916491868E+02 0.  0.
         24    2    4    4    0    0 -0.21260673195E+03  0.52461798760E+03  0.62882942249E+03  0.85037424840E+03  0.85347901924E+02 0.  0.
         11    1    3    3    0    0 -0.48386179037E+02 -0.10344787103E+03  0.13237367915E+03  0.17482984663E+03  0.00000000000E+00 0. -1.
        -11    1    3    3    0    0  0.23855474111E+02 -0.26274904982E+03  0.40054355378E+03  0.47962619330E+03  0.00000000000E+00 0.  1.
          2    1    6    6  502    0 -0.21861602574E+03  0.51719697317E+03  0.60891799591E+03  0.82829149549E+03  0.00000000000E+00 0. -1.
          3    1    5    5  503    0  0.21579638958E+03 -0.11609468852E+03  0.13259695229E+02  0.24540146286E+03  0.00000000000E+00 0. -1.
         -4    1    5    5    0  503  0.21341047291E+02 -0.42326378223E+02 -0.20600685312E+02  0.51685112250E+02  0.00000000000E+00 0.  1.
         -1    1    6    6    0  502  0.60092937976E+01  0.74210144298E+01  0.19911426586E+02  0.22082752904E+02  0.00000000000E+00 0.  1.
<mgrwt>
<rscale>  0 0.13835649E+04</rscale>
<asrwt>0</asrwt>
<pdfrwt beam="1">  1        2 0.22740942E+00 0.13835649E+04</pdfrwt>
<pdfrwt beam="2">  1       -2 0.49808555E-01 0.13835649E+04</pdfrwt>
<totfact> 0.48528006E+01</totfact>
</mgrwt>
</event>
<event>
12    1  0.1549527E-007  0.1312880E+04  0.7818608E-02  0.9019413E-01
         -3   -1    0    0    0  501 -0.00000000000E+00  0.00000000000E+00  0.10820821138E+04  0.10820821138E+04  0.00000000000E+00 0.  1.
          3   -1    0    0  501    0  0.00000000000E+00 -0.00000000000E+00 -0.39822623079E+03  0.39822623079E+03  0.00000000000E+00 0. -1.
         23    2    1    2    0    0  0.23363406744E+03 -0.24270142155E+03  0.19929326435E+03  0.40294115563E+03  0.95681305345E+02 0.  0.
        254    2    1    2    0    0 -0.23363406744E+03  0.24270142155E+03  0.48456261871E+03  0.10773671890E+04  0.90134913935E+03 0.  0.
        -24    2    4    4    0    0 -0.50036639800E+03 -0.83822548162E+02  0.15782509183E+03  0.53796866597E+03  0.84313546510E+02 0.  0.
         24    2    4    4    0    0  0.26673233056E+03  0.32652396971E+03  0.32673752688E+03  0.53939852304E+03  0.80183017023E+02 0.  0.
         13    1    3    3    0    0  0.68156848041E+02 -0.10581706556E+03  0.29772974742E+02  0.12934077982E+03  0.00000000000E+00 0. -1.
        -13    1    3    3    0    0  0.16547721940E+03 -0.13688435599E+03  0.16952028960E+03  0.27360037581E+03  0.00000000000E+00 0.  1.
          4    1    6    6  502    0  0.57108288709E+02  0.43725945992E+02  0.26235627934E+02  0.76561238008E+02  0.00000000000E+00 0. -1.
          3    1    5    5  503    0 -0.28578927358E+03 -0.72620416688E+02  0.12636939739E+03  0.32080906847E+03  0.00000000000E+00 0. -1.
         -4    1    5    5    0  503 -0.21457712442E+03 -0.11202131474E+02  0.31455694431E+02  0.21715959750E+03  0.00000000000E+00 0.  1.
         -3    1    6    6    0  502  0.20962404185E+03  0.28279802372E+03  0.30050189895E+03  0.46283728503E+03  0.00000000000E+00 0.  1.
<mgrwt>
<rscale>  0 0.13128800E+04</rscale>
<asrwt>0</asrwt>
<pdfrwt beam="1">  1        3 0.61265574E-01 0.13128800E+04</pdfrwt>
<pdfrwt beam="2">  1       -3 0.16647417E+00 0.13128800E+04</pdfrwt>
<totfact> 0.16322770E+00</totfact>
</mgrwt>
</event>
<event>
12    1  0.1549527E-007  0.1432993E+04  0.7818608E-02  0.8930277E-01
         -2   -1    0    0    0  501 -0.00000000000E+00  0.00000000000E+00  0.50028780246E+03  0.50028780246E+03  0.00000000000E+00 0.  1.
          2   -1    0    0  501    0  0.00000000000E+00 -0.00000000000E+00 -0.10261441553E+04  0.10261441553E+04  0.00000000000E+00 0. -1.
         23    2    1    2    0    0  0.28736218830E+02 -0.38031241046E+03 -0.36654827828E+03  0.53688102620E+03  0.91762171736E+02 0.  0.
        254    2    1    2    0    0 -0.28736218830E+02  0.38031241046E+03 -0.15930807452E+03  0.98955093151E+03  0.89909325636E+03 0.  0.
        -24    2    4    4    0    0 -0.34226999347E+03  0.26029990872E+03 -0.38026017862E+03  0.57970445528E+03  0.80960861616E+02 0.  0.
         24    2    4    4    0    0  0.31353377464E+03  0.12001250174E+03  0.22095210410E+03  0.40984647623E+03  0.80298651071E+02 0.  0.
         11    1    3    3    0    0  0.31475147159E+02 -0.36775515389E+02 -0.38286159372E+02  0.61716719131E+02  0.00000000000E+00 0.  1.
        -11    1    3    3    0    0 -0.27389283290E+01 -0.34353689507E+03 -0.32826211890E+03  0.47516430707E+03  0.00000000000E+00 0. -1.
          4    1    6    6  502    0  0.29014676452E+03  0.84315473655E+02  0.18724380002E+03  0.35546376005E+03  0.00000000000E+00 0. -1.
          3    1    5    5  503    0 -0.17232694503E+03  0.17587838596E+03 -0.19023233614E+03  0.31115610928E+03  0.00000000000E+00 0. -1.
         -4    1    5    5    0  503 -0.16994304844E+03  0.84421522764E+02 -0.19002784248E+03  0.26854834599E+03  0.00000000000E+00 0.  1.
         -3    1    6    6    0  502  0.23387010114E+02  0.35697028082E+02  0.33708304074E+02  0.54382716184E+02  0.00000000000E+00 0.  1.
<mgrwt>
<rscale>  0 0.14329932E+04</rscale>
<asrwt>0</asrwt>
<pdfrwt beam="1">  1        2 0.15786833E+00 0.14329932E+04</pdfrwt>
<pdfrwt beam="2">  1       -2 0.76967355E-01 0.14329932E+04</pdfrwt>
<totfact> 0.35482225E+01</totfact>
</mgrwt>
</event>
<event>
12    1  0.1549527E-007  0.1617096E+04  0.7818608E-02  0.8810113E-01
         -1   -1    0    0    0  501 -0.00000000000E+00  0.00000000000E+00  0.10554605548E+04  0.10554605548E+04  0.00000000000E+00 0.  1.
          1   -1    0    0  501    0  0.00000000000E+00 -0.00000000000E+00 -0.61939798177E+03  0.61939798177E+03  0.00000000000E+00 0. -1.
         23    2    1    2    0    0  0.33415415070E+03  0.40911972392E+03  0.37774936505E+03  0.65592438084E+03  0.92218575438E+02 0.  0.
        254    2    1    2    0    0 -0.33415415070E+03 -0.40911972392E+03  0.58313208023E+02  0.10189341558E+04  0.86936093692E+03 0.  0.
        -24    2    4    4    0    0 -0.28614056438E+03  0.20660827906E+03  0.14414370911E+03  0.38975515311E+03  0.81044845236E+02 0.  0.
         24    2    4    4    0    0 -0.48013586318E+02 -0.61572800298E+03 -0.85830501085E+02  0.62917900266E+03  0.84101512149E+02 0.  0.
         13    1    3    3    0    0  0.11843711891E+03  0.10265956095E+03  0.73068915789E+02  0.17293178726E+03  0.00000000000E+00 0. -1.
        -13    1    3    3    0    0  0.21571703178E+03  0.30646016297E+03  0.30468044926E+03  0.48299259358E+03  0.00000000000E+00 0.  1.
          2    1    6    6  502    0 -0.21629303203E+02 -0.89073632422E+02 -0.39571193176E+02  0.99838960728E+02  0.00000000000E+00 0. -1.
          3    1    5    5  503    0 -0.19585126481E+03  0.13151295907E+03  0.54786997935E+02  0.24218792594E+03  0.00000000000E+00 0. -1.
         -4    1    5    5    0  503 -0.90289299575E+02  0.75095319996E+02  0.89356711173E+02  0.14756722717E+03  0.00000000000E+00 0.  1.
         -1    1    6    6    0  502 -0.26384283115E+02 -0.52665437056E+03 -0.46259307909E+02  0.52934004193E+03  0.00000000000E+00 0.  1.
<mgrwt>
<rscale>  0 0.16170963E+04</rscale>
<asrwt>0</asrwt>
<pdfrwt beam="1">  1        1 0.95291997E-01 0.16170963E+04</pdfrwt>
<pdfrwt beam="2">  1       -1 0.16237855E+00 0.16170963E+04</pdfrwt>
<totfact> 0.87849502E+00</totfact>
</mgrwt>
</event>
<event>
12    1  0.1549527E-007  0.1172322E+04  0.7818608E-02  0.9137434E-01
         -1   -1    0    0    0  501 -0.00000000000E+00  0.00000000000E+00  0.27469620046E+03  0.27469620046E+03  0.00000000000E+00 0.  1.
          1   -1    0    0  501    0  0.00000000000E+00 -0.00000000000E+00 -0.12507812387E+04  0.12507812387E+04  0.00000000000E+00 0. -1.
         23    2    1    2    0    0 -0.11918860726E+03  0.15531847273E+03 -0.42481983551E+02  0.21996355074E+03  0.90826717727E+02 0.  0.
        254    2    1    2    0    0  0.11918860726E+03 -0.15531847273E+03 -0.93360305473E+03  0.13055138885E+04  0.89130359423E+03 0.  0.
        -24    2    4    4    0    0  0.12402844738E+03 -0.18744179001E+03 -0.10957259522E+04  0.11214069794E+04  0.80129711747E+02 0.  0.
         24    2    4    4    0    0 -0.48398401180E+01  0.32123317283E+02  0.16212289748E+03  0.18410690906E+03  0.80970293992E+02 0.  0.
         13    1    3    3    0    0 -0.11469931925E+02 -0.11958250209E+02 -0.63781191649E+01  0.17754984948E+02  0.00000000000E+00 0. -1.
        -13    1    3    3    0    0 -0.10771867534E+03  0.16727672294E+03 -0.36103864386E+02  0.20220856579E+03  0.00000000000E+00 0.  1.
          2    1    6    6  502    0 -0.16725375116E+02  0.41192687270E+02  0.16317130037E+03  0.16911962903E+03  0.00000000000E+00 0. -1.
          3    1    5    5  503    0  0.67568817854E+02 -0.40205857969E+02 -0.29478617669E+03  0.30509170118E+03  0.00000000000E+00 0. -1.
         -4    1    5    5    0  503  0.56459629528E+02 -0.14723593204E+03 -0.80093977551E+03  0.81631527822E+03  0.00000000000E+00 0.  1.
         -1    1    6    6    0  502  0.11885534998E+02 -0.90693699873E+01 -0.10484028877E+01  0.14987280032E+02  0.00000000000E+00 0.  1.
<mgrwt>
<rscale>  0 0.11723222E+04</rscale>
<asrwt>0</asrwt>
<pdfrwt beam="1">  1        1 0.19242788E+00 0.11723222E+04</pdfrwt>
<pdfrwt beam="2">  1       -1 0.42260954E-01 0.11723222E+04</pdfrwt>
<totfact> 0.53541911E+01</totfact>
</mgrwt>
</event>
<event>
12    1  0.1549527E-007  0.1217868E+04  0.7818608E-02  0.9097359E-01
         -1   -1    0    0    0  501 -0.00000000000E+00  0.00000000000E+00  0.14164301201E+03  0.14164301201E+03  0.00000000000E+00 0.  1.
          1   -1    0    0  501    0  0.00000000000E+00 -0.00000000000E+00 -0.26178519409E+04  0.26178519409E+04  0.00000000000E+00 0. -1.
         23    2    1    2    0    0 -0.38625371851E+02  0.90908632494E+02 -0.10950345809E+04  0.11032126851E+04  0.90670813861E+02 0.  0.
        254    2    1    2    0    0  0.38625371851E+02 -0.90908632494E+02 -0.13811743479E+04  0.16562822677E+04  0.90877503935E+03 0.  0.
        -24    2    4    4    0    0 -0.57303135786E+02 -0.67243054544E+02 -0.14867380002E+04  0.14915451880E+04  0.80696275147E+02 0.  0.
         24    2    4    4    0    0  0.95928507637E+02 -0.23665577950E+02  0.10556365224E+03  0.16473707975E+03  0.78944807372E+02 0.  0.
         13    1    3    3    0    0 -0.18568704554E+02 -0.74852504260E+01 -0.44662617849E+03  0.44707467953E+03  0.00000000000E+00 0.  1.
        -13    1    3    3    0    0 -0.20056667297E+02  0.98393882920E+02 -0.64840840241E+03  0.65613800561E+03  0.00000000000E+00 0. -1.
          2    1    6    6  502    0  0.86093748015E+02  0.79005049925E+01  0.98254954816E+02  0.13087622997E+03  0.00000000000E+00 0. -1.
          1    1    5    5  503    0 -0.75247976740E+02 -0.63851716542E+02 -0.11150052886E+04  0.11193641469E+04  0.00000000000E+00 0. -1.
         -2    1    5    5    0  503  0.17944840954E+02 -0.33913380022E+01 -0.37173271156E+03  0.37218104108E+03  0.00000000000E+00 0.  1.
         -1    1    6    6    0  502  0.98347596213E+01 -0.31566082942E+02  0.73086974279E+01  0.33860849771E+02  0.00000000000E+00 0.  1.
<mgrwt>
<rscale>  0 0.12178677E+04</rscale>
<asrwt>0</asrwt>
<pdfrwt beam="1">  1        1 0.40274643E+00 0.12178677E+04</pdfrwt>
<pdfrwt beam="2">  1       -1 0.21791234E-01 0.12178677E+04</pdfrwt>
<totfact> 0.19762354E+01</totfact>
</mgrwt>
</event>
<event>
12    1  0.1549527E-007  0.1895200E+04  0.7818608E-02  0.8657249E-01
         -2   -1    0    0    0  501 -0.00000000000E+00  0.00000000000E+00  0.13781248756E+04  0.13781248756E+04  0.00000000000E+00 0.  1.
          2   -1    0    0  501    0  0.00000000000E+00 -0.00000000000E+00 -0.65157087948E+03  0.65157087948E+03  0.00000000000E+00 0. -1.
         23    2    1    2    0    0  0.35158552282E+03 -0.45184067173E+03  0.75950580213E+03  0.95611557688E+03  0.97650194017E+02 0.  0.
        254    2    1    2    0    0 -0.35158552282E+03  0.45184067173E+03 -0.32951805989E+02  0.10735801782E+04  0.90758812523E+03 0.  0.
        -24    2    4    4    0    0  0.17668065886E+03 -0.77528626994E+01  0.24764811980E+03  0.31496929340E+03  0.81239783656E+02 0.  0.
         24    2    4    4    0    0 -0.52826618168E+03  0.45959353443E+03 -0.28059992579E+03  0.75861088482E+03  0.80391421312E+02 0.  0.
         13    1    3    3    0    0  0.34258305353E+03 -0.41388054081E+03  0.67251222741E+03  0.86077462012E+03  0.00000000000E+00 0. -1.
        -13    1    3    3    0    0  0.90024692925E+01 -0.37960130924E+02  0.86993574726E+02  0.95340956764E+02  0.00000000000E+00 0.  1.
          2    1    6    6  502    0 -0.12957843645E+03  0.16050913018E+03 -0.88568781924E+02  0.22449539237E+03  0.00000000000E+00 0. -1.
          3    1    5    5  503    0  0.31498811096E+02 -0.34366435888E+02  0.68320778698E+02  0.82710070838E+02  0.00000000000E+00 0. -1.
         -4    1    5    5    0  503  0.14518184776E+03  0.26613573188E+02  0.17932734110E+03  0.23225922256E+03  0.00000000000E+00 0.  1.
         -1    1    6    6    0  502 -0.39868774523E+03  0.29908440425E+03 -0.19203114386E+03  0.53411549245E+03  0.00000000000E+00 0.  1.
<mgrwt>
<rscale>  0 0.18952003E+04</rscale>
<asrwt>0</asrwt>
<pdfrwt beam="1">  1        2 0.10024167E+00 0.18952003E+04</pdfrwt>
<pdfrwt beam="2">  1       -2 0.21201921E+00 0.18952003E+04</pdfrwt>
<totfact> 0.46645133E+00</totfact>
</mgrwt>
</event>
<event>
12    1  0.1549527E-007  0.1388835E+04  0.7818608E-02  0.8961940E-01
          4   -1    0    0  501    0  0.00000000000E+00  0.00000000000E+00  0.69884997346E+03  0.69884997346E+03  0.00000000000E+00 0. -1.
         -4   -1    0    0    0  501 -0.00000000000E+00 -0.00000000000E+00 -0.69001336633E+03  0.69001336633E+03  0.00000000000E+00 0.  1.
         23    2    1    2    0    0  0.22180470788E+03  0.18899120673E+03  0.25716075296E+03  0.39954871133E+03  0.92695820872E+02 0.  0.
        254    2    1    2    0    0 -0.22180470788E+03 -0.18899120673E+03 -0.24832414582E+03  0.98931462845E+03  0.91222998636E+03 0.  0.
        -24    2    4    4    0    0  0.30923971130E+03  0.67362814607E+02  0.38329329993E+02  0.32872786049E+03  0.80161841860E+02 0.  0.
         24    2    4    4    0    0 -0.53104441918E+03 -0.25635402134E+03 -0.28665347582E+03  0.66058676796E+03  0.80492878004E+02 0.  0.
         13    1    3    3    0    0  0.13599374441E+03  0.86168837484E+02  0.86974339091E+02  0.18298607251E+03  0.00000000000E+00 0.  1.
        -13    1    3    3    0    0  0.85810963465E+02  0.10282236925E+03  0.17018641386E+03  0.21656263882E+03  0.00000000000E+00 0. -1.
          4    1    6    6  502    0 -0.47627907717E+03 -0.25310375588E+03 -0.27056799631E+03  0.60341553777E+03  0.00000000000E+00 0. -1.
          3    1    5    5  503    0  0.24527313558E+03  0.83305239370E+02  0.17639325063E+02  0.25963401112E+03  0.00000000000E+00 0. -1.
         -4    1    5    5    0  503  0.63966575722E+02 -0.15942424764E+02  0.20690004930E+02  0.69093849372E+02  0.00000000000E+00 0.  1.
         -3    1    6    6    0  502 -0.54765342011E+02 -0.32502654588E+01 -0.16085479505E+02  0.57171230195E+02  0.00000000000E+00 0.  1.
<mgrwt>
<rscale>  0 0.13888352E+04</rscale>
<asrwt>0</asrwt>
<pdfrwt beam="1">  1        4 0.10751538E+00 0.13888352E+04</pdfrwt>
<pdfrwt beam="2">  1       -4 0.10615590E+00 0.13888352E+04</pdfrwt>
<totfact> 0.96478441E-01</totfact>
</mgrwt>
</event>
<event>
12    1  0.1549527E-007  0.1650933E+04  0.7818608E-02  0.8789855E-01
          2   -1    0    0  501    0  0.00000000000E+00  0.00000000000E+00  0.11150434193E+04  0.11150434193E+04  0.00000000000E+00 0. -1.
         -2   -1    0    0    0  501 -0.00000000000E+00 -0.00000000000E+00 -0.61109249464E+03  0.61109249464E+03  0.00000000000E+00 0.  1.
         23    2    1    2    0    0  0.42468474451E+02  0.21897707572E+03  0.70834041093E+03  0.74817502548E+03  0.90913145240E+02 0.  0.
        254    2    1    2    0    0 -0.42468474451E+02 -0.21897707572E+03 -0.20438948624E+03  0.97796088849E+03  0.92998812160E+03 0.  0.
        -24    2    4    4    0    0  0.14843642904E+02 -0.52274891268E+03  0.98038862991E+02  0.53803889812E+03  0.79921697845E+02 0.  0.
         24    2    4    4    0    0 -0.57312117355E+02  0.30377183697E+03 -0.30242834923E+03  0.43992199037E+03  0.80662528224E+02 0.  0.
         11    1    3    3    0    0  0.56679484235E+02  0.18873031037E+03  0.66417090105E+03  0.69278761521E+03  0.00000000000E+00 0. -1.
        -11    1    3    3    0    0 -0.14211009784E+02  0.30246765350E+02  0.44169509888E+02  0.55387410275E+02  0.00000000000E+00 0.  1.
          2    1    6    6  502    0  0.12105344479E+02  0.10204584404E+03 -0.69474065928E+02  0.12404249066E+03  0.00000000000E+00 0. -1.
          3    1    5    5  503    0  0.22069326614E+02 -0.38178294675E+02  0.31350278018E+01  0.44209340199E+02  0.00000000000E+00 0. -1.
         -4    1    5    5    0  503 -0.72256837106E+01 -0.48457061801E+03  0.94903835189E+02  0.49382955792E+03  0.00000000000E+00 0.  1.
         -1    1    6    6    0  502 -0.69417461834E+02  0.20172599292E+03 -0.23295428330E+03  0.31587949971E+03  0.00000000000E+00 0.  1.
<mgrwt>
<rscale>  0 0.16509327E+04</rscale>
<asrwt>0</asrwt>
<pdfrwt beam="1">  1        2 0.17154514E+00 0.16509327E+04</pdfrwt>
<pdfrwt beam="2">  1       -2 0.94014230E-01 0.16509327E+04</pdfrwt>
<totfact> 0.19457264E+01</totfact>
</mgrwt>
</event>
<event>
12    1  0.1549527E-007  0.1162977E+04  0.7818608E-02  0.9145895E-01
          2   -1    0    0  501    0  0.00000000000E+00  0.00000000000E+00  0.26775119160E+03  0.26775119160E+03  0.00000000000E+00 0.  1.
         -2   -1    0    0    0  501 -0.00000000000E+00 -0.00000000000E+00 -0.12628465385E+04  0.12628465385E+04  0.00000000000E+00 0. -1.
         23    2    1    2    0    0 -0.13102387415E+03  0.13889549526E+03 -0.56819846061E+02  0.21364897930E+03  0.77189230128E+02 0.  0.
        254    2    1    2    0    0  0.13102387415E+03 -0.13889549526E+03 -0.93827550089E+03  0.13169487508E+04  0.90417580293E+03 0.  0.
        -24    2    4    4    0    0 -0.32813713019E+02  0.10854028286E+03  0.13947192387E+03  0.19636233662E+03  0.79044398472E+02 0.  0.
         24    2    4    4    0    0  0.16383758717E+03 -0.24743577812E+03 -0.10777474248E+04  0.11205864142E+04  0.78148454495E+02 0.  0.
         11    1    3    3    0    0 -0.11940868259E+03  0.78224957785E+02 -0.27938490151E+02  0.14545836769E+03  0.00000000000E+00 0.  1.
        -11    1    3    3    0    0 -0.11615191560E+02  0.60670537476E+02 -0.28881355910E+02  0.68190611610E+02  0.00000000000E+00 0. -1.
          4    1    6    6  502    0  0.20478955177E+02 -0.72640713005E+02 -0.18834591288E+03  0.20290451865E+03  0.00000000000E+00 0. -1.
          3    1    5    5  503    0  0.25656678677E+02  0.41289248664E+02  0.41420436247E+02  0.63864855397E+02  0.00000000000E+00 0. -1.
         -4    1    5    5    0  503 -0.58470391696E+02  0.67251034193E+02  0.98051487619E+02  0.13249748122E+03  0.00000000000E+00 0.  1.
         -3    1    6    6    0  502  0.14335863199E+03 -0.17479506511E+03 -0.88940151187E+03  0.91768189558E+03  0.00000000000E+00 0.  1.
<mgrwt>
<rscale>  0 0.11629766E+04</rscale>
<asrwt>0</asrwt>
<pdfrwt beam="1">  1        2 0.41192491E-01 0.11629766E+04</pdfrwt>
<pdfrwt beam="2">  1       -2 0.19428408E+00 0.11629766E+04</pdfrwt>
<totfact> 0.17878173E+01</totfact>
</mgrwt>
</event>
<event>
12    1  0.1549527E-007  0.2504507E+04  0.7818608E-02  0.8401382E-01
         -1   -1    0    0    0  501 -0.00000000000E+00  0.00000000000E+00  0.11052311752E+04  0.11052311752E+04  0.00000000000E+00 0.  1.
          1   -1    0    0  501    0  0.00000000000E+00 -0.00000000000E+00 -0.14188328997E+04  0.14188328997E+04  0.00000000000E+00 0. -1.
         23    2    1    2    0    0 -0.14116896226E+03 -0.10445196217E+04 -0.41226008370E+03  0.11354865611E+04  0.91768391831E+02 0.  0.
        254    2    1    2    0    0  0.14116896226E+03  0.10445196217E+04  0.98658359229E+02  0.13885775138E+04  0.89859007561E+03 0.  0.
        -24    2    4    4    0    0 -0.33963179990E+03  0.58008026197E+03  0.20383291620E+03  0.70705844865E+03  0.80875968343E+02 0.  0.
         24    2    4    4    0    0  0.48080076216E+03  0.46443935972E+03 -0.10517455697E+03  0.68151906515E+03  0.80828565337E+02 0.  0.
         11    1    3    3    0    0 -0.73818482103E+02 -0.63168577048E+03 -0.29499042985E+03  0.70106735385E+03  0.00000000000E+00 0.  1.
        -11    1    3    3    0    0 -0.67350480162E+02 -0.41283385121E+03 -0.11726965384E+03  0.43441920721E+03  0.00000000000E+00 0. -1.
          2    1    6    6  502    0  0.46115416752E+03  0.45565456354E+03 -0.11403311907E+03  0.65824600245E+03  0.00000000000E+00 0. -1.
          1    1    5    5  503    0 -0.31245375773E+03  0.56418842022E+03  0.18774235967E+03  0.67170165837E+03  0.00000000000E+00 0. -1.
         -2    1    5    5    0  503 -0.27178042163E+02  0.15891841744E+02  0.16090556527E+02  0.35356790284E+02  0.00000000000E+00 0.  1.
         -1    1    6    6    0  502  0.19646594640E+02  0.87847961742E+01  0.88585620959E+01  0.23273062694E+02  0.00000000000E+00 0.  1.
<mgrwt>
<rscale>  0 0.25045066E+04</rscale>
<asrwt>0</asrwt>
<pdfrwt beam="1">  1        1 0.21828198E+00 0.25045066E+04</pdfrwt>
<pdfrwt beam="2">  1       -1 0.17003557E+00 0.25045066E+04</pdfrwt>
<totfact> 0.16276118E+00</totfact>
</mgrwt>
</event>
<event>
12    1  0.1549527E-007  0.2062938E+04  0.7818608E-02  0.8577748E-01
         -2   -1    0    0    0  501 -0.00000000000E+00  0.00000000000E+00  0.58090069066E+03  0.58090069066E+03  0.00000000000E+00 0.  1.
          2   -1    0    0  501    0  0.00000000000E+00 -0.00000000000E+00 -0.18315147090E+04  0.18315147090E+04  0.00000000000E+00 0. -1.
         23    2    1    2    0    0 -0.36794511175E+03 -0.16668350983E+03 -0.14105047602E+04  0.14700239887E+04  0.90993687930E+02 0.  0.
        254    2    1    2    0    0  0.36794511175E+03  0.16668350983E+03  0.15989074183E+03  0.94239141095E+03  0.83628316042E+03 0.  0.
        -24    2    4    4    0    0 -0.89325863976E+01  0.32768267684E+03  0.34784469433E+03  0.48463444683E+03  0.80117962290E+02 0.  0.
         24    2    4    4    0    0  0.37687769814E+03 -0.16099916701E+03 -0.18795395251E+03  0.45775696412E+03  0.79102584029E+02 0.  0.
         11    1    3    3    0    0 -0.21229436414E+02  0.10691654777E+02 -0.61730295261E+02  0.66148543486E+02  0.00000000000E+00 0.  1.
        -11    1    3    3    0    0 -0.34671567533E+03 -0.17737516461E+03 -0.13487744649E+04  0.14038754453E+04  0.00000000000E+00 0. -1.
          2    1    6    6  502    0  0.25462086543E+03 -0.11529450076E+03 -0.16690869615E+03  0.32555048744E+03  0.00000000000E+00 0. -1.
          1    1    5    5  503    0  0.18062873367E+02  0.21266543712E+03  0.26538042127E+03  0.34055781232E+03  0.00000000000E+00 0. -1.
         -2    1    5    5    0  503 -0.26995459764E+02  0.11501723972E+03  0.82464273064E+02  0.14407663451E+03  0.00000000000E+00 0.  1.
         -1    1    6    6    0  502  0.12225683271E+03 -0.45704666251E+02 -0.21045256355E+02  0.13220647668E+03  0.00000000000E+00 0.  1.
<mgrwt>
<rscale>  0 0.20629379E+04</rscale>
<asrwt>0</asrwt>
<pdfrwt beam="1">  1        2 0.28177149E+00 0.20629379E+04</pdfrwt>
<pdfrwt beam="2">  1       -2 0.89369339E-01 0.20629379E+04</pdfrwt>
<totfact> 0.82282647E+00</totfact>
</mgrwt>
</event>
<event>
12    1  0.1549527E-007  0.1204675E+04  0.7818608E-02  0.9108774E-01
         -2   -1    0    0    0  501 -0.00000000000E+00  0.00000000000E+00  0.13199346142E+04  0.13199346142E+04  0.00000000000E+00 0.  1.
          2   -1    0    0  501    0  0.00000000000E+00 -0.00000000000E+00 -0.27487021188E+03  0.27487021188E+03  0.00000000000E+00 0. -1.
         23    2    1    2    0    0 -0.14547197974E+03  0.23150161343E+02  0.52219294853E+03  0.54992190969E+03  0.89613639606E+02 0.  0.
        254    2    1    2    0    0  0.14547197974E+03 -0.23150161343E+02  0.52287145375E+03  0.10448829164E+04  0.89257365236E+03 0.  0.
        -24    2    4    4    0    0 -0.38495386886E+02  0.31654323706E+03 -0.66753719178E+02  0.33538790290E+03  0.79671015081E+02 0.  0.
         24    2    4    4    0    0  0.18396736663E+03 -0.33969339841E+03  0.58962517293E+03  0.70949501346E+03  0.80558876972E+02 0.  0.
         11    1    3    3    0    0 -0.12148137901E+03  0.93034612386E+01  0.49940780160E+03  0.51405489214E+03  0.00000000000E+00 0.  1.
        -11    1    3    3    0    0 -0.23990600731E+02  0.13846700104E+02  0.22785146933E+02  0.35867017550E+02  0.00000000000E+00 0. -1.
          4    1    6    6  502    0  0.71000008318E+02 -0.17224832516E+03  0.22007944024E+03  0.28834952179E+03  0.00000000000E+00 0. -1.
          1    1    5    5  503    0 -0.23419327369E+02  0.19393999300E+03 -0.78675344000E+00  0.19535046649E+03  0.00000000000E+00 0. -1.
         -2    1    5    5    0  503 -0.15076059517E+02  0.12260324407E+03 -0.65966965738E+02  0.14003743641E+03  0.00000000000E+00 0.  1.
         -3    1    6    6    0  502  0.11296735831E+03 -0.16744507325E+03  0.36954573269E+03  0.42114549167E+03  0.00000000000E+00 0.  1.
<mgrwt>
<rscale>  0 0.12046754E+04</rscale>
<asrwt>0</asrwt>
<pdfrwt beam="1">  1        2 0.42287726E-01 0.12046754E+04</pdfrwt>
<pdfrwt beam="2">  1       -2 0.20306686E+00 0.12046754E+04</pdfrwt>
<totfact> 0.15157005E+01</totfact>
</mgrwt>
</event>
<event>
12    1  0.1549527E-007  0.1100291E+04  0.7818608E-02  0.9204909E-01
         -2   -1    0    0    0  501 -0.00000000000E+00  0.00000000000E+00  0.11567800314E+03  0.11567800314E+03  0.00000000000E+00 0.  1.
          2   -1    0    0  501    0  0.00000000000E+00 -0.00000000000E+00 -0.26163994002E+04  0.26163994002E+04  0.00000000000E+00 0. -1.
         23    2    1    2    0    0 -0.13568524236E+03  0.48309997058E+02 -0.28146558948E+03  0.32923049681E+03  0.91790528684E+02 0.  0.
        254    2    1    2    0    0  0.13568524236E+03 -0.48309997058E+02 -0.22192558076E+04  0.24028469065E+04  0.90985305185E+03 0.  0.
        -24    2    4    4    0    0  0.92478391328E+02  0.30232699114E+03 -0.18728278387E+04  0.19009942447E+04  0.79631290555E+02 0.  0.
         24    2    4    4    0    0  0.43206851033E+02 -0.35063698820E+03 -0.34642796881E+03  0.50185266180E+03  0.83848834870E+02 0.  0.
         11    1    3    3    0    0 -0.51913424972E+02  0.21577553597E+02 -0.20542381310E+03  0.21297778640E+03  0.00000000000E+00 0. -1.
        -11    1    3    3    0    0 -0.83771817388E+02  0.26732443461E+02 -0.76041776384E+02  0.11625271041E+03  0.00000000000E+00 0.  1.
          4    1    6    6  502    0  0.95305072081E+01 -0.29737093265E+03 -0.30700411931E+03  0.42751822350E+03  0.00000000000E+00 0. -1.
          1    1    5    5  503    0  0.74619899680E+02  0.25567674288E+03 -0.13669424565E+04  0.13926487014E+04  0.00000000000E+00 0. -1.
         -2    1    5    5    0  503  0.17858491647E+02  0.46650248262E+02 -0.50588538228E+03  0.50834554330E+03  0.00000000000E+00 0.  1.
         -3    1    6    6    0  502  0.33676343825E+02 -0.53266055550E+02 -0.39423849498E+02  0.74334438294E+02  0.00000000000E+00 0.  1.
<mgrwt>
<rscale>  0 0.11002906E+04</rscale>
<asrwt>0</asrwt>
<pdfrwt beam="1">  1        2 0.40252295E+00 0.11002906E+04</pdfrwt>
<pdfrwt beam="2">  1       -2 0.17796618E-01 0.11002906E+04</pdfrwt>
<totfact> 0.78276022E+01</totfact>
</mgrwt>
</event>
<event>
12    1  0.1549527E-007  0.1435040E+04  0.7818608E-02  0.8928838E-01
          2   -1    0    0  501    0  0.00000000000E+00  0.00000000000E+00  0.11668571763E+04  0.11668571763E+04  0.00000000000E+00 0. -1.
         -2   -1    0    0    0  501 -0.00000000000E+00 -0.00000000000E+00 -0.44121488270E+03  0.44121488270E+03  0.00000000000E+00 0.  1.
         23    2    1    2    0    0  0.39309510141E+03  0.66635797992E+02  0.32690087586E+02  0.40970167588E+03  0.88446215659E+02 0.  0.
        254    2    1    2    0    0 -0.39309510141E+03 -0.66635797992E+02  0.69295220597E+03  0.11983703831E+04  0.89271760762E+03 0.  0.
        -24    2    4    4    0    0 -0.48814666490E+03 -0.39093557364E+03  0.45198396860E+03  0.77578990694E+03  0.80266323226E+02 0.  0.
         24    2    4    4    0    0  0.95051563491E+02  0.32429977564E+03  0.24096823737E+03  0.42258047615E+03  0.79394100491E+02 0.  0.
         11    1    3    3    0    0  0.33718556141E+02  0.33424184573E+02  0.47191084811E+01  0.47711498902E+02  0.00000000000E+00 0. -1.
        -11    1    3    3    0    0  0.35937654527E+03  0.33211613419E+02  0.27970979105E+02  0.36199017698E+03  0.00000000000E+00 0.  1.
          4    1    6    6  502    0  0.70916607596E+02  0.18027253336E+03  0.93733027662E+02  0.21520509286E+03  0.00000000000E+00 0. -1.
          1    1    5    5  503    0 -0.14311552313E+03 -0.10998423331E+03  0.17657430863E+03  0.25250162575E+03  0.00000000000E+00 0. -1.
         -4    1    5    5    0  503 -0.34503114178E+03 -0.28095134032E+03  0.27540965997E+03  0.52328828119E+03  0.00000000000E+00 0.  1.
         -3    1    6    6    0  502  0.24134955895E+02  0.14402724229E+03  0.14723520971E+03  0.20737538329E+03  0.00000000000E+00 0.  1.
<mgrwt>
<rscale>  0 0.14350397E+04</rscale>
<asrwt>0</asrwt>
<pdfrwt beam="1">  1        2 0.17951649E+00 0.14350397E+04</pdfrwt>
<pdfrwt beam="2">  1       -2 0.67879213E-01 0.14350397E+04</pdfrwt>
<totfact> 0.38273813E+01</totfact>
</mgrwt>
</event>
<event>
12    1  0.1549527E-007  0.1702480E+04  0.7818608E-02  0.8759951E-01
         -1   -1    0    0    0  501 -0.00000000000E+00  0.00000000000E+00  0.85695624535E+03  0.85695624535E+03  0.00000000000E+00 0.  1.
          1   -1    0    0  501    0  0.00000000000E+00 -0.00000000000E+00 -0.84556220497E+03  0.84556220497E+03  0.00000000000E+00 0. -1.
         23    2    1    2    0    0 -0.16963530104E+03 -0.14157276116E+03 -0.56482290212E+03  0.61318633129E+03  0.90297198529E+02 0.  0.
        254    2    1    2    0    0  0.16963530104E+03  0.14157276116E+03  0.57621694250E+03  0.10893321190E+04  0.89766336600E+03 0.  0.
        -24    2    4    4    0    0 -0.14726254418E+03  0.43367892366E+03  0.41315119165E+03  0.62194811572E+03  0.79761430211E+02 0.  0.
         24    2    4    4    0    0  0.31689784521E+03 -0.29210616250E+03  0.16306575085E+03  0.46738400330E+03  0.78148019625E+02 0.  0.
         13    1    3    3    0    0  0.45943970447E+01 -0.28119542946E+02 -0.10006525638E+03  0.10404264853E+03  0.00000000000E+00 0.  1.
        -13    1    3    3    0    0 -0.17422969808E+03 -0.11345321822E+03 -0.46475764574E+03  0.50914368276E+03  0.00000000000E+00 0. -1.
          4    1    6    6  502    0  0.11292002112E+03 -0.15666039348E+03  0.75347000491E+02  0.20729346478E+03  0.00000000000E+00 0. -1.
          3    1    5    5  503    0  0.28208343917E+01  0.85002384452E+02  0.83459593001E+02  0.11915899518E+03  0.00000000000E+00 0. -1.
         -4    1    5    5    0  503 -0.15008337857E+03  0.34867653921E+03  0.32969159865E+03  0.50278912054E+03  0.00000000000E+00 0.  1.
         -3    1    6    6    0  502  0.20397782409E+03 -0.13544576901E+03  0.87718750356E+02  0.26009053852E+03  0.00000000000E+00 0.  1.
<mgrwt>
<rscale>  0 0.17024803E+04</rscale>
<asrwt>0</asrwt>
<pdfrwt beam="1">  1        1 0.13008649E+00 0.17024803E+04</pdfrwt>
<pdfrwt beam="2">  1       -1 0.13183942E+00 0.17024803E+04</pdfrwt>
<totfact> 0.94078655E+00</totfact>
</mgrwt>
</event>
<event>
12    1  0.1549527E-007  0.1667465E+04  0.7818608E-02  0.8780141E-01
          2   -1    0    0  501    0  0.00000000000E+00  0.00000000000E+00  0.16117015857E+04  0.16117015857E+04  0.00000000000E+00 0. -1.
         -2   -1    0    0    0  501 -0.00000000000E+00 -0.00000000000E+00 -0.43128921946E+03  0.43128921946E+03  0.00000000000E+00 0.  1.
         23    2    1    2    0    0 -0.28899120406E+03  0.94374514014E+02  0.84431604637E+03  0.90197487926E+03  0.90921019287E+02 0.  0.
        254    2    1    2    0    0  0.28899120406E+03 -0.94374514014E+02  0.33609631988E+03  0.11410159259E+04  0.10471552617E+04 0.  0.
        -24    2    4    4    0    0  0.19361459377E+03  0.46288577350E+03  0.24059220379E+03  0.56214485226E+03  0.79827164357E+02 0.  0.
         24    2    4    4    0    0  0.95376610294E+02 -0.55726028752E+03  0.95504116090E+02  0.57887107365E+03  0.79592448669E+02 0.  0.
         11    1    3    3    0    0 -0.62093428538E+01  0.17763138749E+02  0.10594306723E+03  0.10760120135E+03  0.00000000000E+00 0.  1.
        -11    1    3    3    0    0 -0.28278186121E+03  0.76611375265E+02  0.73837297913E+03  0.79437367792E+03  0.00000000000E+00 0. -1.
          4    1    6    6  502    0  0.10694378539E+03 -0.51219352723E+03  0.77341983135E+02  0.52892434707E+03  0.00000000000E+00 0. -1.
          1    1    5    5  503    0  0.73465560885E+02  0.27712038748E+03  0.14209807114E+03  0.31997618601E+03  0.00000000000E+00 0. -1.
         -2    1    5    5    0  503  0.12014903288E+03  0.18576538603E+03  0.98494132646E+02  0.24216866625E+03  0.00000000000E+00 0.  1.
         -1    1    6    6    0  502 -0.11567175097E+02 -0.45066760284E+02  0.18162132955E+02  0.49946726576E+02  0.00000000000E+00 0.  1.
<mgrwt>
<rscale>  0 0.16674646E+04</rscale>
<asrwt>0</asrwt>
<pdfrwt beam="1">  1        2 0.24795409E+00 0.16674646E+04</pdfrwt>
<pdfrwt beam="2">  1       -2 0.66352188E-01 0.16674646E+04</pdfrwt>
<totfact> 0.21881641E+01</totfact>
</mgrwt>
</event>
<event>
12    1  0.1549527E-007  0.1886479E+04  0.7818608E-02  0.8661616E-01
          2   -1    0    0  501    0  0.00000000000E+00  0.00000000000E+00  0.12742231520E+04  0.12742231520E+04  0.00000000000E+00 0. -1.
         -2   -1    0    0    0  501 -0.00000000000E+00 -0.00000000000E+00 -0.69823029438E+03  0.69823029438E+03  0.00000000000E+00 0.  1.
         23    2    1    2    0    0 -0.30097027361E+03  0.99816126314E+02 -0.45732986925E+03  0.56470282776E+03  0.95876533640E+02 0.  0.
        254    2    1    2    0    0  0.30097027361E+03 -0.99816126314E+02  0.10333227269E+04  0.14077506186E+04  0.90191994192E+03 0.  0.
        -24    2    4    4    0    0  0.49006063147E+02 -0.95470638525E+02  0.11216317153E+04  0.11294236460E+04  0.77613339493E+02 0.  0.
         24    2    4    4    0    0  0.25196421046E+03 -0.43454877884E+01 -0.88308988424E+02  0.27832697255E+03  0.78502099302E+02 0.  0.
         11    1    3    3    0    0 -0.13382058218E+03  0.62351337807E+02 -0.13679377263E+03  0.20126642485E+03  0.00000000000E+00 0. -1.
        -11    1    3    3    0    0 -0.16714969143E+03  0.37464788506E+02 -0.32053609663E+03  0.36343640291E+03  0.00000000000E+00 0.  1.
          2    1    6    6  502    0  0.60502345321E+01  0.10981860446E+01 -0.23031641268E+02  0.23838369281E+02  0.00000000000E+00 0. -1.
          1    1    5    5  503    0  0.28084848885E+02 -0.20656768982E+01  0.12144869232E+03  0.12467080903E+03  0.00000000000E+00 0. -1.
         -2    1    5    5    0  503  0.20921214262E+02 -0.93404961627E+02  0.10001830230E+04  0.10047528370E+04  0.00000000000E+00 0.  1.
         -1    1    6    6    0  502  0.24591397593E+03 -0.54436738329E+01 -0.65277347156E+02  0.25448860327E+03  0.00000000000E+00 0.  1.
<mgrwt>
<rscale>  0 0.18864795E+04</rscale>
<asrwt>0</asrwt>
<pdfrwt beam="1">  1        2 0.19603433E+00 0.18864795E+04</pdfrwt>
<pdfrwt beam="2">  1       -2 0.10742005E+00 0.18864795E+04</pdfrwt>
<totfact> 0.11168497E+01</totfact>
</mgrwt>
</event>
<event>
12    1  0.1549527E-007  0.1699406E+04  0.7818608E-02  0.8761703E-01
         -2   -1    0    0    0  501 -0.00000000000E+00  0.00000000000E+00  0.29866560884E+03  0.29866560884E+03  0.00000000000E+00 0.  1.
          2   -1    0    0  501    0  0.00000000000E+00 -0.00000000000E+00 -0.24174044947E+04  0.24174044947E+04  0.00000000000E+00 0. -1.
         23    2    1    2    0    0 -0.40964488599E+03 -0.42528939939E+03 -0.98266885428E+03  0.11500764988E+04  0.91421387181E+02 0.  0.
        254    2    1    2    0    0  0.40964488599E+03  0.42528939939E+03 -0.11360700315E+04  0.15659936047E+04  0.90166559633E+03 0.  0.
        -24    2    4    4    0    0  0.64720072570E+03  0.28106067184E+03 -0.10432967035E+04  0.12621727440E+04  0.82147085160E+02 0.  0.
         24    2    4    4    0    0 -0.23755583971E+03  0.14422872756E+03 -0.92773328033E+02  0.30382086070E+03  0.80408470755E+02 0.  0.
         11    1    3    3    0    0 -0.16218906173E+03 -0.20556938313E+03 -0.50689444587E+03  0.57053136836E+03  0.00000000000E+00 0. -1.
        -11    1    3    3    0    0 -0.24745582426E+03 -0.21972001626E+03 -0.47577440841E+03  0.57954513043E+03  0.00000000000E+00 0.  1.
          2    1    6    6  502    0 -0.21754024244E+03  0.98930545769E+02 -0.85250626507E+02  0.25372953964E+03  0.00000000000E+00 0. -1.
          1    1    5    5  503    0  0.26492630967E+03  0.13029480381E+03 -0.36960738068E+03  0.47304577084E+03  0.00000000000E+00 0. -1.
         -2    1    5    5    0  503  0.38227441603E+03  0.15076586803E+03 -0.67368932283E+03  0.78912697318E+03  0.00000000000E+00 0.  1.
         -1    1    6    6    0  502 -0.20015597276E+02  0.45298181788E+02 -0.75227015267E+01  0.50091321063E+02  0.00000000000E+00 0.  1.
<mgrwt>
<rscale>  0 0.16994065E+04</rscale>
<asrwt>0</asrwt>
<pdfrwt beam="1">  1        2 0.37190838E+00 0.16994065E+04</pdfrwt>
<pdfrwt beam="2">  1       -2 0.45948556E-01 0.16994065E+04</pdfrwt>
<totfact> 0.16625090E+01</totfact>
</mgrwt>
</event>
<event>
12    1  0.1549527E-007  0.2422777E+04  0.7818608E-02  0.8431025E-01
         -2   -1    0    0    0  501 -0.00000000000E+00  0.00000000000E+00  0.34710773664E+03  0.34710773664E+03  0.00000000000E+00 0.  1.
          2   -1    0    0  501    0  0.00000000000E+00 -0.00000000000E+00 -0.42276833067E+04  0.42276833067E+04  0.00000000000E+00 0. -1.
         23    2    1    2    0    0  0.76998533012E+02 -0.60770921804E+03 -0.84025144603E+02  0.62448159831E+03  0.87622907496E+02 0.  0.
        254    2    1    2    0    0 -0.76998533012E+02  0.60770921804E+03 -0.37965504254E+04  0.39503094450E+04  0.90327753803E+03 0.  0.
        -24    2    4    4    0    0  0.20315128104E+03 -0.15748286414E+03 -0.80685564006E+03  0.85051828790E+03  0.79334977586E+02 0.  0.
         24    2    4    4    0    0 -0.28014981405E+03  0.76519208218E+03 -0.29896947854E+04  0.30997911571E+04  0.80171485398E+02 0.  0.
         11    1    3    3    0    0  0.36044028910E+02 -0.78642214577E+02 -0.27777991997E+02  0.90859158994E+02  0.00000000000E+00 0. -1.
        -11    1    3    3    0    0  0.40954504102E+02 -0.52906700347E+03 -0.56247152606E+02  0.53362243931E+03  0.00000000000E+00 0.  1.
          2    1    6    6  502    0 -0.23103894191E+03  0.69952004219E+03 -0.26748597175E+04  0.27744516197E+04  0.00000000000E+00 0. -1.
          1    1    5    5  503    0  0.10529471308E+03 -0.11372487061E+03 -0.56697364562E+03  0.58777498894E+03  0.00000000000E+00 0. -1.
         -2    1    5    5    0  503  0.97856567958E+02 -0.43757993529E+02 -0.23988199443E+03  0.26274329895E+03  0.00000000000E+00 0.  1.
         -1    1    6    6    0  502 -0.49110872138E+02  0.65672039997E+02 -0.31483506791E+03  0.32533953738E+03  0.00000000000E+00 0.  1.
<mgrwt>
<rscale>  0 0.24227766E+04</rscale>
<asrwt>0</asrwt>
<pdfrwt beam="1">  1        2 0.65041279E+00 0.24227766E+04</pdfrwt>
<pdfrwt beam="2">  1       -2 0.53401193E-01 0.24227766E+04</pdfrwt>
<totfact> 0.65619394E-01</totfact>
</mgrwt>
</event>
<event>
12    1  0.1549527E-007  0.2154321E+04  0.7818608E-02  0.8537685E-01
          1   -1    0    0  501    0  0.00000000000E+00  0.00000000000E+00  0.21771938264E+04  0.21771938264E+04  0.00000000000E+00 0. -1.
         -1   -1    0    0    0  501 -0.00000000000E+00 -0.00000000000E+00 -0.53292210957E+03  0.53292210957E+03  0.00000000000E+00 0.  1.
         23    2    1    2    0    0 -0.11121542021E+02 -0.51430823803E+03 -0.22879589862E+03  0.57027646803E+03  0.90725048190E+02 0.  0.
        254    2    1    2    0    0  0.11121542021E+02  0.51430823803E+03  0.18730676154E+04  0.21398394679E+04  0.89771599301E+03 0.  0.
        -24    2    4    4    0    0  0.26345235150E+03  0.46187292585E+03  0.48089636966E+03  0.72117479700E+03  0.78089873444E+02 0.  0.
         24    2    4    4    0    0 -0.25233080947E+03  0.52435312177E+02  0.13921712458E+04  0.14186646709E+04  0.89712717028E+02 0.  0.
         13    1    3    3    0    0 -0.14862837348E+02 -0.98223482313E+01 -0.63582359708E+01  0.18915856403E+02  0.00000000000E+00 0. -1.
        -13    1    3    3    0    0  0.37412953266E+01 -0.50448588980E+03 -0.22243766265E+03  0.55136061163E+03  0.00000000000E+00 0.  1.
          4    1    6    6  502    0 -0.66849716400E+02 -0.10265374575E+02  0.54400881436E+03  0.54819691043E+03  0.00000000000E+00 0. -1.
          1    1    5    5  503    0  0.17144390236E+02  0.79296930644E+02  0.55612934628E+02  0.98360214641E+02  0.00000000000E+00 0. -1.
         -2    1    5    5    0  503  0.24630796126E+03  0.38257599521E+03  0.42528343504E+03  0.62281458236E+03  0.00000000000E+00 0.  1.
         -3    1    6    6    0  502 -0.18548109308E+03  0.62700686751E+02  0.84816243141E+03  0.87046776050E+03  0.00000000000E+00 0.  1.
<mgrwt>
<rscale>  0 0.21543210E+04</rscale>
<asrwt>0</asrwt>
<pdfrwt beam="1">  1        1 0.33495289E+00 0.21543210E+04</pdfrwt>
<pdfrwt beam="2">  1       -1 0.81988018E-01 0.21543210E+04</pdfrwt>
<totfact> 0.30586713E+00</totfact>
</mgrwt>
</event>
<event>
12    1  0.1626558E-007  0.1620111E+04  0.7818608E-02  0.8808287E-01
         -2   -1    0    0    0  501 -0.00000000000E+00  0.00000000000E+00  0.68589658820E+03  0.68589658820E+03  0.00000000000E+00 0. -1.
          2   -1    0    0  501    0  0.00000000000E+00 -0.00000000000E+00 -0.95668944872E+03  0.95668944872E+03  0.00000000000E+00 0.  1.
         23    2    1    2    0    0 -0.24823656781E+03  0.24399881130E+03  0.34434764056E+03  0.49859193820E+03  0.94137185905E+02 0.  0.
        254    2    1    2    0    0  0.24823656781E+03 -0.24399881130E+03 -0.61514050107E+03  0.11439940987E+04  0.89953757472E+03 0.  0.
        -24    2    4    4    0    0  0.11317052149E+03  0.19659028380E+03  0.12195442934E+03  0.27107098333E+03  0.84565291626E+02 0.  0.
         24    2    4    4    0    0  0.13506604632E+03 -0.44058909510E+03 -0.73709493042E+03  0.87292311539E+03  0.79525098835E+02 0.  0.
         11    1    3    3    0    0 -0.23707964787E+03  0.22490670850E+03  0.34660228350E+03  0.47636428276E+03  0.00000000000E+00 0. -1.
        -11    1    3    3    0    0 -0.11156919940E+02  0.19092102795E+02 -0.22546429400E+01  0.22227655443E+02  0.00000000000E+00 0.  1.
          2    1    6    6  502    0  0.11779993461E+03 -0.38866940617E+03 -0.59256498974E+03  0.71838290552E+03  0.00000000000E+00 0. -1.
          1    1    5    5  503    0  0.96579107329E+02  0.19809308822E+03  0.96349713508E+02  0.24052372621E+03  0.00000000000E+00 0. -1.
         -2    1    5    5    0  503  0.16591414159E+02 -0.15028044202E+01  0.25604715835E+02  0.30547257126E+02  0.00000000000E+00 0.  1.
         -1    1    6    6    0  502  0.17266111715E+02 -0.51919688928E+02 -0.14452994068E+03  0.15454020987E+03  0.00000000000E+00 0.  1.
<mgrwt>
<rscale>  0 0.16201111E+04</rscale>
<asrwt>0</asrwt>
<pdfrwt beam="1">  1        2 0.14718299E+00 0.16201111E+04</pdfrwt>
<pdfrwt beam="2">  1       -2 0.10552255E+00 0.16201111E+04</pdfrwt>
<totfact> 0.18694212E+01</totfact>
</mgrwt>
</event>
<event>
12    1  0.1549527E-007  0.3103899E+04  0.7818608E-02  0.8214669E-01
         -1   -1    0    0    0  501 -0.00000000000E+00  0.00000000000E+00  0.12618590374E+04  0.12618590374E+04  0.00000000000E+00 0. -1.
          1   -1    0    0  501    0  0.00000000000E+00 -0.00000000000E+00 -0.19087291850E+04  0.19087291850E+04  0.00000000000E+00 0.  1.
         23    2    1    2    0    0 -0.13123901619E+04  0.24132185492E+03 -0.77978578222E+03  0.15483144737E+04  0.92777521404E+02 0.  0.
        254    2    1    2    0    0  0.13123901619E+04 -0.24132185492E+03  0.13291563455E+03  0.16222737487E+04  0.91296296486E+03 0.  0.
        -24    2    4    4    0    0  0.17937557999E+03  0.18444187527E+03 -0.23226561458E+03  0.35558775083E+03  0.79378389829E+02 0.  0.
         24    2    4    4    0    0  0.11330145819E+04 -0.42576373019E+03  0.36518124913E+03  0.12666859979E+04  0.78353530902E+02 0.  0.
         11    1    3    3    0    0 -0.10247364349E+03  0.42435603414E+02 -0.77179565197E+02  0.13512332638E+03  0.00000000000E+00 0. -1.
        -11    1    3    3    0    0 -0.12099165184E+04  0.19888625151E+03 -0.70260621702E+03  0.14131911473E+04  0.00000000000E+00 0.  1.
          4    1    6    6  502    0  0.49371554152E+03 -0.14464063757E+03  0.16103595415E+03  0.53908118916E+03  0.00000000000E+00 0. -1.
          1    1    5    5  503    0  0.64972570920E+00  0.33475715768E+02 -0.44007400705E+02  0.55296446599E+02  0.00000000000E+00 0. -1.
         -2    1    5    5    0  503  0.17872585428E+03  0.15096615951E+03 -0.18825821388E+03  0.30029130423E+03  0.00000000000E+00 0.  1.
         -3    1    6    6    0  502  0.63929904040E+03 -0.28112309263E+03  0.20414529498E+03  0.72760480875E+03  0.00000000000E+00 0.  1.
<mgrwt>
<rscale>  0 0.31038989E+04</rscale>
<asrwt>0</asrwt>
<pdfrwt beam="1">  1        1 0.29365064E+00 0.31038989E+04</pdfrwt>
<pdfrwt beam="2">  1       -1 0.19413216E+00 0.31038989E+04</pdfrwt>
<totfact> 0.47927119E-01</totfact>
</mgrwt>
</event>
<event>
12    1  0.1549527E-007  0.1293127E+04  0.7818608E-02  0.9035034E-01
         -3   -1    0    0    0  501 -0.00000000000E+00  0.00000000000E+00  0.22443385286E+03  0.22443385286E+03  0.00000000000E+00 0.  1.
          3   -1    0    0  501    0  0.00000000000E+00 -0.00000000000E+00 -0.18626609552E+04  0.18626609552E+04  0.00000000000E+00 0. -1.
         23    2    1    2    0    0 -0.11339703894E+03  0.11812199890E+03  0.22299100521E+02  0.18766280168E+03  0.88929085142E+02 0.  0.
        254    2    1    2    0    0  0.11339703894E+03 -0.11812199890E+03 -0.16605262029E+04  0.18994320064E+04  0.90756982178E+03 0.  0.
        -24    2    4    4    0    0 -0.33265546120E+03  0.14796765695E+03 -0.91224487168E+03  0.98536478114E+03  0.78733491145E+02 0.  0.
         24    2    4    4    0    0  0.44605250014E+03 -0.26608965585E+03 -0.74828133118E+03  0.91406722524E+03  0.76337434065E+02 0.  0.
         13    1    3    3    0    0 -0.12517592056E+03  0.12097181936E+03  0.22608491242E+02  0.17554012659E+03  0.00000000000E+00 0.  1.
        -13    1    3    3    0    0  0.11778881614E+02 -0.28498204584E+01 -0.30939072137E+00  0.12122675090E+02  0.00000000000E+00 0. -1.
          4    1    6    6  502    0  0.38043957203E+03 -0.19256935553E+03 -0.61156073736E+03  0.74553588789E+03  0.00000000000E+00 0. -1.
          3    1    5    5  503    0 -0.21770126672E+03  0.13550976029E+03 -0.65043893490E+03  0.69916203037E+03  0.00000000000E+00 0. -1.
         -4    1    5    5    0  503 -0.11495419447E+03  0.12457896657E+02 -0.26180593678E+03  0.28620275077E+03  0.00000000000E+00 0.  1.
         -3    1    6    6    0  502  0.65612928108E+02 -0.73520300325E+02 -0.13672059382E+03  0.16853133736E+03  0.00000000000E+00 0.  1.
<mgrwt>
<rscale>  0 0.12931267E+04</rscale>
<asrwt>0</asrwt>
<pdfrwt beam="1">  1        3 0.28656322E+00 0.12931267E+04</pdfrwt>
<pdfrwt beam="2">  1       -3 0.34528285E-01 0.12931267E+04</pdfrwt>
<totfact> 0.98458966E-01</totfact>
</mgrwt>
</event>
<event>
12    1  0.1549527E-007  0.3087849E+04  0.7818608E-02  0.8219081E-01
         -2   -1    0    0    0  501 -0.00000000000E+00  0.00000000000E+00  0.11894443740E+04  0.11894443740E+04  0.00000000000E+00 0.  1.
          2   -1    0    0  501    0  0.00000000000E+00 -0.00000000000E+00 -0.20040469413E+04  0.20040469413E+04  0.00000000000E+00 0. -1.
         23    2    1    2    0    0 -0.69629181510E+03 -0.12120727469E+04 -0.53290898759E+03  0.14987631806E+04  0.91413603629E+02 0.  0.
        254    2    1    2    0    0  0.69629181510E+03  0.12120727469E+04 -0.28169357979E+03  0.16947281347E+04  0.91586546079E+03 0.  0.
        -24    2    4    4    0    0  0.73504247249E+03  0.96578319720E+03 -0.53658392444E+03  0.13294399369E+04  0.80396625951E+02 0.  0.
         24    2    4    4    0    0 -0.38750657391E+02  0.24628954968E+03  0.25489034465E+03  0.36528819785E+03  0.79411736926E+02 0.  0.
         13    1    3    3    0    0 -0.64301194481E+03 -0.10760842767E+04 -0.49595529095E+03  0.13481073334E+04  0.00000000000E+00 0. -1.
        -13    1    3    3    0    0 -0.53279870291E+02 -0.13598847013E+03 -0.36953696639E+02  0.15065584716E+03  0.00000000000E+00 0.  1.
          2    1    6    6  502    0 -0.47213127887E+02  0.24396056111E+03  0.25560446859E+03  0.35648208817E+03  0.00000000000E+00 0. -1.
          1    1    5    5  503    0  0.67391423204E+03  0.89943870101E+03 -0.47467122073E+03  0.12200258755E+04  0.00000000000E+00 0. -1.
         -2    1    5    5    0  503  0.61128240448E+02  0.66344496186E+02 -0.61912703718E+02  0.10941406142E+03  0.00000000000E+00 0.  1.
         -1    1    6    6    0  502  0.84624704961E+01  0.23289885670E+01 -0.71412394047E+00  0.88061096771E+01  0.00000000000E+00 0.  1.
<mgrwt>
<rscale>  0 0.30878487E+04</rscale>
<asrwt>0</asrwt>
<pdfrwt beam="1">  1        2 0.30831491E+00 0.30878487E+04</pdfrwt>
<pdfrwt beam="2">  1       -2 0.18299144E+00 0.30878487E+04</pdfrwt>
<totfact> 0.97692105E-01</totfact>
</mgrwt>
</event>
<event>
12    1  0.1549527E-007  0.1422717E+04  0.7818608E-02  0.8937537E-01
          1   -1    0    0  501    0  0.00000000000E+00  0.00000000000E+00  0.15705444361E+04  0.15705444361E+04  0.00000000000E+00 0. -1.
         -1   -1    0    0    0  501 -0.00000000000E+00 -0.00000000000E+00 -0.32220099125E+03  0.32220099125E+03  0.00000000000E+00 0.  1.
         23    2    1    2    0    0  0.15471786176E+03  0.25288755083E+03 -0.65242490772E+02  0.31696781275E+03  0.91226540041E+02 0.  0.
        254    2    1    2    0    0 -0.15471786176E+03 -0.25288755083E+03  0.13135859356E+04  0.15757776146E+04  0.81833816377E+03 0.  0.
        -24    2    4    4    0    0  0.28488006676E+01 -0.45739405208E+03  0.36914043465E+03  0.59336621467E+03  0.81248813364E+02 0.  0.
         24    2    4    4    0    0 -0.15756666242E+03  0.20450650125E+03  0.94444550093E+03  0.98241139989E+03  0.80651672331E+02 0.  0.
         13    1    3    3    0    0  0.13192383426E+03  0.21878663253E+03 -0.20553091203E+02  0.25630824836E+03  0.00000000000E+00 0.  1.
        -13    1    3    3    0    0  0.22794027497E+02  0.34100918300E+02 -0.44689399569E+02  0.60659564392E+02  0.00000000000E+00 0. -1.
          4    1    6    6  502    0  0.18660568401E+01 -0.57766623680E+01  0.32065392341E+02  0.32634971766E+02  0.00000000000E+00 0. -1.
          3    1    5    5  503    0  0.24534284470E+02 -0.86710263438E+02  0.10097373407E+03  0.13533771046E+03  0.00000000000E+00 0. -1.
         -4    1    5    5    0  503 -0.21685483802E+02 -0.37068378864E+03  0.26816670058E+03  0.45802850421E+03  0.00000000000E+00 0.  1.
         -3    1    6    6    0  502 -0.15943271926E+03  0.21028316362E+03  0.91238010859E+03  0.94977642813E+03  0.00000000000E+00 0.  1.
<mgrwt>
<rscale>  0 0.14227171E+04</rscale>
<asrwt>0</asrwt>
<pdfrwt beam="1">  1        1 0.24162222E+00 0.14227171E+04</pdfrwt>
<pdfrwt beam="2">  1       -1 0.49569384E-01 0.14227171E+04</pdfrwt>
<totfact> 0.23221084E+01</totfact>
</mgrwt>
</event>
<event>
12    1  0.1549527E-007  0.1960257E+04  0.7818608E-02  0.8625431E-01
         -1   -1    0    0    0  501 -0.00000000000E+00  0.00000000000E+00  0.72680775148E+03  0.72680775148E+03  0.00000000000E+00 0.  1.
          1   -1    0    0  501    0  0.00000000000E+00 -0.00000000000E+00 -0.13217410912E+04  0.13217410912E+04  0.00000000000E+00 0. -1.
         23    2    1    2    0    0 -0.47114852617E+03  0.30451464549E+03 -0.76653033173E+03  0.95423499294E+03  0.91025102336E+02 0.  0.
        254    2    1    2    0    0  0.47114852617E+03 -0.30451464549E+03  0.17159699204E+03  0.10943138497E+04  0.92377874567E+03 0.  0.
        -24    2    4    4    0    0  0.55517148229E+03  0.17427780117E+03  0.10930819201E+03  0.59745404541E+03  0.80093250721E+02 0.  0.
         24    2    4    4    0    0 -0.84022956119E+02 -0.47879244666E+03  0.62288800031E+02  0.49685980429E+03  0.81778397999E+02 0.  0.
         11    1    3    3    0    0 -0.37826717692E+03  0.28038353044E+03 -0.60927637168E+03  0.77001212871E+03  0.00000000000E+00 0. -1.
        -11    1    3    3    0    0 -0.92881349249E+02  0.24131115054E+02 -0.15725396006E+03  0.18422286423E+03  0.00000000000E+00 0.  1.
          4    1    6    6  502    0  0.15776749281E+02 -0.80220922950E+02  0.16880615792E+02  0.83482078834E+02  0.00000000000E+00 0. -1.
          3    1    5    5  503    0  0.15476665683E+03  0.38085007320E+02  0.65283516143E+02  0.17223566218E+03  0.00000000000E+00 0. -1.
         -4    1    5    5    0  503  0.40040482546E+03  0.13619279385E+03  0.44024675868E+02  0.42521838323E+03  0.00000000000E+00 0.  1.
         -3    1    6    6    0  502 -0.99799705400E+02 -0.39857152371E+03  0.45408184239E+02  0.41337772546E+03  0.00000000000E+00 0.  1.
<mgrwt>
<rscale>  0 0.19602568E+04</rscale>
<asrwt>0</asrwt>
<pdfrwt beam="1">  1        1 0.20334478E+00 0.19602568E+04</pdfrwt>
<pdfrwt beam="2">  1       -1 0.11181658E+00 0.19602568E+04</pdfrwt>
<totfact> 0.59639544E+00</totfact>
</mgrwt>
</event>
<event>
12    1  0.1549527E-007  0.1823090E+04  0.7818608E-02  0.8694116E-01
         -1   -1    0    0    0  501 -0.00000000000E+00  0.00000000000E+00  0.34466238478E+03  0.34466238478E+03  0.00000000000E+00 0.  1.
          1   -1    0    0  501    0  0.00000000000E+00 -0.00000000000E+00 -0.24108059875E+04  0.24108059875E+04  0.00000000000E+00 0. -1.
         23    2    1    2    0    0 -0.30831336964E+03  0.49734848989E+03 -0.13069803659E+04  0.14348424513E+04  0.90346714594E+02 0.  0.
        254    2    1    2    0    0  0.30831336964E+03 -0.49734848989E+03 -0.75916323679E+03  0.13206259210E+04  0.90846648191E+03 0.  0.
        -24    2    4    4    0    0  0.52820172028E+03 -0.96034772416E+02 -0.64414636119E+03  0.84222892561E+03  0.78773686505E+02 0.  0.
         24    2    4    4    0    0 -0.21988835064E+03 -0.40131371748E+03 -0.11501687560E+03  0.47839699536E+03  0.78938057429E+02 0.  0.
         11    1    3    3    0    0 -0.24374403826E+03  0.45064291672E+03 -0.11382168630E+04  0.12482098468E+04  0.00000000000E+00 0. -1.
        -11    1    3    3    0    0 -0.64569331385E+02  0.46705573171E+02 -0.16876350294E+03  0.18663260445E+03  0.00000000000E+00 0.  1.
          4    1    6    6  502    0 -0.19352917711E+03 -0.31178727735E+03 -0.65564295813E+02  0.37277811845E+03  0.00000000000E+00 0. -1.
          1    1    5    5  503    0  0.34409169292E+03 -0.54460983951E+02 -0.47296794874E+03  0.58742129043E+03  0.00000000000E+00 0. -1.
         -2    1    5    5    0  503  0.18411002735E+03 -0.41573788465E+02 -0.17117841245E+03  0.25480763519E+03  0.00000000000E+00 0.  1.
         -3    1    6    6    0  502 -0.26359173525E+02 -0.89526440133E+02 -0.49452579785E+02  0.10561887691E+03  0.00000000000E+00 0.  1.
<mgrwt>
<rscale>  0 0.18230898E+04</rscale>
<asrwt>0</asrwt>
<pdfrwt beam="1">  1        1 0.37089323E+00 0.18230898E+04</pdfrwt>
<pdfrwt beam="2">  1       -1 0.53024982E-01 0.18230898E+04</pdfrwt>
<totfact> 0.52783466E+00</totfact>
</mgrwt>
</event>
<event>
12    1  0.1549527E-007  0.1498827E+04  0.7818608E-02  0.8885233E-01
         -1   -1    0    0    0  501 -0.00000000000E+00  0.00000000000E+00  0.14465141751E+04  0.14465141751E+04  0.00000000000E+00 0.  1.
          1   -1    0    0  501    0  0.00000000000E+00 -0.00000000000E+00 -0.38825783997E+03  0.38825783997E+03  0.00000000000E+00 0. -1.
         23    2    1    2    0    0 -0.21807363096E+03 -0.39529810159E+03  0.16168881874E+03  0.48803109056E+03  0.90633181571E+02 0.  0.
        254    2    1    2    0    0  0.21807363096E+03  0.39529810159E+03  0.89656751636E+03  0.13467409245E+04  0.89780906026E+03 0.  0.
        -24    2    4    4    0    0  0.20482899508E+03 -0.25852741223E+03  0.23680071270E+03  0.41425171641E+03  0.82088774598E+02 0.  0.
         24    2    4    4    0    0  0.13244635882E+02  0.65382551382E+03  0.65976680366E+03  0.93248920809E+03  0.81121298603E+02 0.  0.
         11    1    3    3    0    0 -0.18093715396E+03 -0.34899045461E+03  0.10721503714E+03  0.40746491295E+03  0.00000000000E+00 0. -1.
        -11    1    3    3    0    0 -0.37136477004E+02 -0.46307646975E+02  0.54473781598E+02  0.80566177607E+02  0.00000000000E+00 0.  1.
          2    1    6    6  502    0  0.30475285668E+02  0.59276172665E+03  0.57300522423E+03  0.82500314825E+03  0.00000000000E+00 0. -1.
          3    1    5    5  503    0  0.18271730662E+03 -0.23305927097E+03  0.17538224209E+03  0.34418188327E+03  0.00000000000E+00 0. -1.
         -4    1    5    5    0  503  0.22111688454E+02 -0.25468141255E+02  0.61418470604E+02  0.70069833143E+02  0.00000000000E+00 0.  1.
         -1    1    6    6    0  502 -0.17230649785E+02  0.61063787167E+02  0.86761579426E+02  0.10748605984E+03  0.00000000000E+00 0.  1.
<mgrwt>
<rscale>  0 0.14988268E+04</rscale>
<asrwt>0</asrwt>
<pdfrwt beam="1">  1        1 0.59731976E-01 0.14988268E+04</pdfrwt>
<pdfrwt beam="2">  1       -1 0.22254064E+00 0.14988268E+04</pdfrwt>
<totfact> 0.63915118E+00</totfact>
</mgrwt>
</event>
<event>
12    1  0.1549527E-007  0.2197562E+04  0.7818608E-02  0.8519444E-01
         -2   -1    0    0    0  501 -0.00000000000E+00  0.00000000000E+00  0.54427904802E+03  0.54427904802E+03  0.00000000000E+00 0.  1.
          2   -1    0    0  501    0  0.00000000000E+00 -0.00000000000E+00 -0.22181993686E+04  0.22181993686E+04  0.00000000000E+00 0. -1.
         23    2    1    2    0    0  0.25183458663E+02 -0.73449150761E+03 -0.21172463261E+02  0.74102930710E+03  0.92542851925E+02 0.  0.
        254    2    1    2    0    0 -0.25183458663E+02  0.73449150761E+03 -0.16527478573E+04  0.20214491095E+04  0.90253478666E+03 0.  0.
        -24    2    4    4    0    0  0.41589545072E+03  0.48881639317E+03 -0.10246948523E+04  0.12117595586E+04  0.80319334355E+02 0.  0.
         24    2    4    4    0    0 -0.44107890938E+03  0.24567511444E+03 -0.62805300505E+03  0.80968955089E+03  0.78991933271E+02 0.  0.
         13    1    3    3    0    0 -0.30205845330E+02 -0.13520800168E+03  0.48933280628E+01  0.13862734748E+03  0.00000000000E+00 0. -1.
        -13    1    3    3    0    0  0.55389303994E+02 -0.59928350593E+03 -0.26065791323E+02  0.60240195962E+03  0.00000000000E+00 0.  1.
          4    1    6    6  502    0 -0.24210965679E+03  0.11541670019E+03 -0.38890136580E+03  0.47242181672E+03  0.00000000000E+00 0. -1.
          3    1    5    5  503    0  0.36417867036E+03  0.46166783260E+03 -0.91964187311E+03  0.10915605647E+04  0.00000000000E+00 0. -1.
         -2    1    5    5    0  503  0.51716780358E+02  0.27148560574E+02 -0.10505297915E+03  0.12019899392E+03  0.00000000000E+00 0.  1.
         -3    1    6    6    0  502 -0.19896925259E+03  0.13025841424E+03 -0.23915163925E+03  0.33726773417E+03  0.00000000000E+00 0.  1.
<mgrwt>
<rscale>  0 0.21975618E+04</rscale>
<asrwt>0</asrwt>
<pdfrwt beam="1">  1        2 0.34126144E+00 0.21975618E+04</pdfrwt>
<pdfrwt beam="2">  1       -2 0.83735239E-01 0.21975618E+04</pdfrwt>
<totfact> 0.57476876E+00</totfact>
</mgrwt>
</event>
<event>
12    1  0.1549527E-007  0.1539149E+04  0.7818608E-02  0.8858829E-01
         -1   -1    0    0    0  501 -0.00000000000E+00  0.00000000000E+00  0.10063003366E+04  0.10063003366E+04  0.00000000000E+00 0.  1.
          1   -1    0    0  501    0  0.00000000000E+00 -0.00000000000E+00 -0.58853683027E+03  0.58853683027E+03  0.00000000000E+00 0. -1.
         23    2    1    2    0    0 -0.96649344750E+02 -0.22034368720E+03 -0.31688638538E+03  0.40791147473E+03  0.89901911235E+02 0.  0.
        254    2    1    2    0    0  0.96649344750E+02  0.22034368720E+03  0.73464989168E+03  0.11869256921E+04  0.90066070134E+03 0.  0.
        -24    2    4    4    0    0 -0.21825064203E+03  0.46042689125E+03  0.50791543094E+03  0.72385661279E+03  0.79774970776E+02 0.  0.
         24    2    4    4    0    0  0.31489998678E+03 -0.24008320404E+03  0.22673446074E+03  0.46306907933E+03  0.78882887953E+02 0.  0.
         11    1    3    3    0    0 -0.10841778179E+03 -0.21861177765E+03 -0.29363911153E+03  0.38179765917E+03  0.00000000000E+00 0. -1.
        -11    1    3    3    0    0  0.11768437040E+02 -0.17319095593E+01 -0.23247273852E+02  0.26113815551E+02  0.00000000000E+00 0.  1.
          2    1    6    6  502    0  0.27596272279E+03 -0.22746888279E+03  0.22413022394E+03  0.42205671928E+03  0.00000000000E+00 0. -1.
          1    1    5    5  503    0 -0.17080800548E+03  0.30202720053E+03  0.30391640772E+03  0.46126021666E+03  0.00000000000E+00 0. -1.
         -2    1    5    5    0  503 -0.47442636542E+02  0.15839969072E+03  0.20399902323E+03  0.26259639613E+03  0.00000000000E+00 0.  1.
         -1    1    6    6    0  502  0.38937263988E+02 -0.12614321250E+02  0.26042367963E+01  0.41012360049E+02  0.00000000000E+00 0.  1.
<mgrwt>
<rscale>  0 0.15391489E+04</rscale>
<asrwt>0</asrwt>
<pdfrwt beam="1">  1        1 0.90544128E-01 0.15391489E+04</pdfrwt>
<pdfrwt beam="2">  1       -1 0.15481544E+00 0.15391489E+04</pdfrwt>
<totfact> 0.10872847E+01</totfact>
</mgrwt>
</event>
<event>
12    1  0.1549527E-007  0.1290352E+04  0.7818608E-02  0.9037251E-01
         -1   -1    0    0    0  501 -0.00000000000E+00  0.00000000000E+00  0.59957050584E+03  0.59957050584E+03  0.00000000000E+00 0.  1.
          1   -1    0    0  501    0  0.00000000000E+00 -0.00000000000E+00 -0.69425023098E+03  0.69425023098E+03  0.00000000000E+00 0. -1.
         23    2    1    2    0    0  0.20164020864E+03  0.11744555722E+03  0.17485079251E+03  0.30547668857E+03  0.91054791026E+02 0.  0.
        254    2    1    2    0    0 -0.20164020864E+03 -0.11744555722E+03 -0.26953051765E+03  0.98834404824E+03  0.92180530759E+03 0.  0.
        -24    2    4    4    0    0 -0.20856308280E+03  0.11236161890E+03 -0.55745680132E+03  0.61104642041E+03  0.80597454368E+02 0.  0.
         24    2    4    4    0    0  0.69228741552E+01 -0.22980717611E+03  0.28792628367E+03  0.37729762783E+03  0.81195386327E+02 0.  0.
         13    1    3    3    0    0  0.16247607813E+03  0.56815057132E+02  0.90520978329E+02  0.19447486778E+03  0.00000000000E+00 0.  1.
        -13    1    3    3    0    0  0.39164130516E+02  0.60630500085E+02  0.84329814180E+02  0.11100182079E+03  0.00000000000E+00 0. -1.
          4    1    6    6  502    0  0.12029761194E+01 -0.35800512612E+02  0.80619642842E+01  0.36716741726E+02  0.00000000000E+00 0. -1.
          3    1    5    5  503    0 -0.33297750944E+02  0.22924298654E+02 -0.37645073692E+02  0.55239616762E+02  0.00000000000E+00 0. -1.
         -4    1    5    5    0  503 -0.17526533186E+03  0.89437320243E+02 -0.51981172763E+03  0.55580680365E+03  0.00000000000E+00 0.  1.
         -3    1    6    6    0  502  0.57198980358E+01 -0.19400666350E+03  0.27986431938E+03  0.34058088611E+03  0.00000000000E+00 0.  1.
<mgrwt>
<rscale>  0 0.12903518E+04</rscale>
<asrwt>0</asrwt>
<pdfrwt beam="1">  1        1 0.10680773E+00 0.12903518E+04</pdfrwt>
<pdfrwt beam="2">  1       -1 0.92241616E-01 0.12903518E+04</pdfrwt>
<totfact> 0.31041028E+01</totfact>
</mgrwt>
</event>
<event>
12    1  0.1549527E-007  0.1209892E+04  0.7818608E-02  0.9104242E-01
         -2   -1    0    0    0  501 -0.00000000000E+00  0.00000000000E+00  0.22725894539E+03  0.22725894539E+03  0.00000000000E+00 0.  1.
          2   -1    0    0  501    0  0.00000000000E+00 -0.00000000000E+00 -0.16103206760E+04  0.16103206760E+04  0.00000000000E+00 0. -1.
         23    2    1    2    0    0  0.11855607209E+03  0.18993176286E+03 -0.48723577250E+03  0.54398960400E+03  0.91631732983E+02 0.  0.
        254    2    1    2    0    0 -0.11855607209E+03 -0.18993176286E+03 -0.89582595808E+03  0.12935900174E+04  0.90594777392E+03 0.  0.
        -24    2    4    4    0    0  0.90430056256E+02 -0.69964809130E+02 -0.10068457749E+04  0.10164353343E+04  0.79559441669E+02 0.  0.
         24    2    4    4    0    0 -0.20898612835E+03 -0.11996695373E+03  0.11101981683E+03  0.27715468307E+03  0.80137673958E+02 0.  0.
         11    1    3    3    0    0 -0.12412459192E+02  0.85701581650E+01 -0.58333985021E+02  0.60252556482E+02  0.00000000000E+00 0.  1.
        -11    1    3    3    0    0  0.13096853129E+03  0.18136160469E+03 -0.42890178747E+03  0.48373704752E+03  0.00000000000E+00 0. -1.
          2    1    6    6  502    0 -0.18095411156E+03 -0.12188379293E+03  0.11822575203E+03  0.24814789524E+03  0.00000000000E+00 0. -1.
          1    1    5    5  503    0  0.28654837796E+02 -0.30691073878E+02 -0.68860505473E+03  0.68988402152E+03  0.00000000000E+00 0. -1.
         -2    1    5    5    0  503  0.61775218460E+02 -0.39273735253E+02 -0.31824072018E+03  0.32655131278E+03  0.00000000000E+00 0.  1.
         -1    1    6    6    0  502 -0.28032016787E+02  0.19168392037E+01 -0.72059352006E+01  0.29006787822E+02  0.00000000000E+00 0.  1.
<mgrwt>
<rscale>  0 0.12098922E+04</rscale>
<asrwt>0</asrwt>
<pdfrwt beam="1">  1        2 0.24774163E+00 0.12098922E+04</pdfrwt>
<pdfrwt beam="2">  1       -2 0.34962916E-01 0.12098922E+04</pdfrwt>
<totfact> 0.83269501E+01</totfact>
</mgrwt>
</event>
<event>
12    1  0.1549527E-007  0.1164146E+04  0.7818608E-02  0.9144832E-01
          2   -1    0    0  501    0  0.00000000000E+00  0.00000000000E+00  0.82325007762E+03  0.82325007762E+03  0.00000000000E+00 0.  1.
         -2   -1    0    0    0  501 -0.00000000000E+00 -0.00000000000E+00 -0.41155047853E+03  0.41155047853E+03  0.00000000000E+00 0. -1.
         23    2    1    2    0    0  0.77156071758E+02 -0.15204822084E+02 -0.13429565754E+03  0.18124128626E+03  0.92891518382E+02 0.  0.
        254    2    1    2    0    0 -0.77156071758E+02  0.15204822084E+02  0.54599525663E+03  0.10535592699E+04  0.89760351430E+03 0.  0.
        -24    2    4    4    0    0  0.24393482388E+03 -0.23092815857E+02  0.65357823143E+03  0.70363030799E+03  0.88846098825E+02 0.  0.
         24    2    4    4    0    0 -0.32109089564E+03  0.38297637941E+02 -0.10758297479E+03  0.34992896191E+03  0.79436198173E+02 0.  0.
         11    1    3    3    0    0  0.39122511869E+02  0.14807853184E+02 -0.37543752031E+01  0.41999271232E+02  0.00000000000E+00 0.  1.
        -11    1    3    3    0    0  0.38033559889E+02 -0.30012675268E+02 -0.13054128234E+03  0.13924201503E+03  0.00000000000E+00 0. -1.
          4    1    6    6  502    0 -0.42518672255E+02 -0.13969817477E+02 -0.36413910762E+02  0.57697193932E+02  0.00000000000E+00 0. -1.
          3    1    5    5  503    0  0.16515924521E+03  0.23231886788E+02  0.46662784162E+03  0.49553893835E+03  0.00000000000E+00 0. -1.
         -4    1    5    5    0  503  0.78775578669E+02 -0.46324702645E+02  0.18695038981E+03  0.20809136964E+03  0.00000000000E+00 0.  1.
         -3    1    6    6    0  502 -0.27857222339E+03  0.52267455418E+02 -0.71169064031E+02  0.29223176797E+03  0.00000000000E+00 0.  1.
<mgrwt>
<rscale>  0 0.11641460E+04</rscale>
<asrwt>0</asrwt>
<pdfrwt beam="1">  1        2 0.12665386E+00 0.11641460E+04</pdfrwt>
<pdfrwt beam="2">  1       -2 0.63315458E-01 0.11641460E+04</pdfrwt>
<totfact> 0.75747719E+01</totfact>
</mgrwt>
</event>
<event>
12    1  0.1549527E-007  0.2312332E+04  0.7818608E-02  0.8473074E-01
         -2   -1    0    0    0  501 -0.00000000000E+00  0.00000000000E+00  0.91129919654E+03  0.91129919654E+03  0.00000000000E+00 0.  1.
          2   -1    0    0  501    0  0.00000000000E+00 -0.00000000000E+00 -0.14668290701E+04  0.14668290701E+04  0.00000000000E+00 0. -1.
         23    2    1    2    0    0 -0.71312327890E+03  0.21103947742E+03  0.41707607704E+03  0.85763245930E+03  0.92187359602E+02 0.  0.
        254    2    1    2    0    0  0.71312327890E+03 -0.21103947742E+03 -0.97260595058E+03  0.15204958073E+04  0.90158898232E+03 0.  0.
        -24    2    4    4    0    0  0.57256246712E+03  0.27185770788E+03 -0.68040466435E+03  0.93335290142E+03  0.80391163874E+02 0.  0.
         24    2    4    4    0    0  0.14056081178E+03 -0.48289718530E+03 -0.29220128622E+03  0.58714290590E+03  0.80051026814E+02 0.  0.
         11    1    3    3    0    0 -0.68707800128E+03  0.19765566542E+03  0.41830215847E+03  0.82832399319E+03  0.00000000000E+00 0.  1.
        -11    1    3    3    0    0 -0.26045277619E+02  0.13383812000E+02 -0.12260814346E+01  0.29308466108E+02  0.00000000000E+00 0. -1.
          2    1    6    6  502    0  0.99403826267E+02 -0.20017994309E+03 -0.13309224415E+03  0.26012819099E+03  0.00000000000E+00 0. -1.
          3    1    5    5  503    0  0.29180232811E+02 -0.40738608674E+01 -0.30197492273E+02  0.42189700981E+02  0.00000000000E+00 0. -1.
         -4    1    5    5    0  503  0.54338223431E+03  0.27593156875E+03 -0.65020717208E+03  0.89116320044E+03  0.00000000000E+00 0.  1.
         -1    1    6    6    0  502  0.41156985518E+02 -0.28271724221E+03 -0.15910904207E+03  0.32701471491E+03  0.00000000000E+00 0.  1.
<mgrwt>
<rscale>  0 0.23123323E+04</rscale>
<asrwt>0</asrwt>
<pdfrwt beam="1">  1        2 0.22566601E+00 0.23123323E+04</pdfrwt>
<pdfrwt beam="2">  1       -2 0.14019988E+00 0.23123323E+04</pdfrwt>
<totfact> 0.42965399E+00</totfact>
</mgrwt>
</event>
<event>
12    1  0.1549527E-007  0.1468875E+04  0.7818608E-02  0.8905419E-01
         -2   -1    0    0    0  501 -0.00000000000E+00  0.00000000000E+00  0.19574542726E+03  0.19574542726E+03  0.00000000000E+00 0.  1.
          2   -1    0    0  501    0  0.00000000000E+00 -0.00000000000E+00 -0.27556119170E+04  0.27556119170E+04  0.00000000000E+00 0. -1.
         23    2    1    2    0    0 -0.44636491165E+03 -0.49529848503E+02 -0.88841130172E+03  0.99942001523E+03  0.88718011513E+02 0.  0.
        254    2    1    2    0    0  0.44636491165E+03  0.49529848503E+02 -0.16714551880E+04  0.19519373290E+04  0.90255307359E+03 0.  0.
        -24    2    4    4    0    0  0.57221499284E+03  0.30657223998E+03 -0.14174882819E+04  0.15611244455E+04  0.80124706041E+02 0.  0.
         24    2    4    4    0    0 -0.12585008119E+03 -0.25704239148E+03 -0.25396690604E+03  0.39081288349E+03  0.79539214165E+02 0.  0.
         11    1    3    3    0    0 -0.37824191427E+03 -0.27173348325E+02 -0.67424083790E+03  0.77356709086E+03  0.00000000000E+00 0.  1.
        -11    1    3    3    0    0 -0.68122997385E+02 -0.22356500178E+02 -0.21417046382E+03  0.22585292437E+03  0.00000000000E+00 0. -1.
          2    1    6    6  502    0 -0.17561063274E+02 -0.41331768643E+02 -0.69349197978E+01  0.45440061125E+02  0.00000000000E+00 0. -1.
          1    1    5    5  503    0  0.13580934809E+03  0.58293107139E+02 -0.25296813199E+03  0.29297634916E+03  0.00000000000E+00 0. -1.
         -4    1    5    5    0  503  0.43640564476E+03  0.24827913284E+03 -0.11645201500E+04  0.12681480963E+04  0.00000000000E+00 0.  1.
         -1    1    6    6    0  502 -0.10828901792E+03 -0.21571062284E+03 -0.24703198624E+03  0.34537282237E+03  0.00000000000E+00 0.  1.
<mgrwt>
<rscale>  0 0.14688750E+04</rscale>
<asrwt>0</asrwt>
<pdfrwt beam="1">  1        2 0.42394027E+00 0.14688750E+04</pdfrwt>
<pdfrwt beam="2">  1       -2 0.30114683E-01 0.14688750E+04</pdfrwt>
<totfact> 0.24378633E+01</totfact>
</mgrwt>
</event>
<event>
12    1  0.1549527E-007  0.2106801E+04  0.7818608E-02  0.8558253E-01
         -2   -1    0    0    0  501 -0.00000000000E+00  0.00000000000E+00  0.32778295257E+03  0.32778295257E+03  0.00000000000E+00 0.  1.
          2   -1    0    0  501    0  0.00000000000E+00 -0.00000000000E+00 -0.33853284830E+04  0.33853284830E+04  0.00000000000E+00 0. -1.
         23    2    1    2    0    0 -0.14459079689E+03 -0.17628613792E+03 -0.27183162607E+04  0.27293660061E+04  0.90621194220E+02 0.  0.
        254    2    1    2    0    0  0.14459079689E+03  0.17628613792E+03 -0.33922926973E+03  0.98374542951E+03  0.89481577527E+03 0.  0.
        -24    2    4    4    0    0  0.49250333342E+03  0.14283439095E+03 -0.34811616413E+03  0.62497279759E+03  0.80280367008E+02 0.  0.
         24    2    4    4    0    0 -0.34791253652E+03  0.33451746971E+02  0.88868944088E+01  0.35877263193E+03  0.80477773843E+02 0.  0.
         11    1    3    3    0    0 -0.27075591754E+02 -0.68102864047E+01 -0.69636015162E+03  0.69691959970E+03  0.00000000000E+00 0.  1.
        -11    1    3    3    0    0 -0.11751520514E+03 -0.16947585152E+03 -0.20219561091E+04  0.20324464064E+04  0.00000000000E+00 0. -1.
          4    1    6    6  502    0 -0.90683468540E+02 -0.21975021204E+02 -0.15206333153E+02  0.94539016239E+02  0.00000000000E+00 0. -1.
          1    1    5    5  503    0  0.63752101125E+01  0.15103310468E+02 -0.10027161981E+02  0.19217108744E+02  0.00000000000E+00 0. -1.
         -4    1    5    5    0  503  0.48612812330E+03  0.12773108048E+03 -0.33808900215E+03  0.60575568884E+03  0.00000000000E+00 0.  1.
         -3    1    6    6    0  502 -0.25722906798E+03  0.55426768175E+02  0.24093227562E+02  0.26423361569E+03  0.00000000000E+00 0.  1.
<mgrwt>
<rscale>  0 0.21068013E+04</rscale>
<asrwt>0</asrwt>
<pdfrwt beam="1">  1        2 0.52081981E+00 0.21068013E+04</pdfrwt>
<pdfrwt beam="2">  1       -2 0.50428143E-01 0.21068013E+04</pdfrwt>
<totfact> 0.33541910E+00</totfact>
</mgrwt>
</event>
<event>
12    1  0.1549527E-007  0.4472424E+04  0.7818608E-02  0.7915482E-01
         -2   -1    0    0    0  501 -0.00000000000E+00  0.00000000000E+00  0.15968029115E+04  0.15968029115E+04  0.00000000000E+00 0.  1.
          2   -1    0    0  501    0  0.00000000000E+00 -0.00000000000E+00 -0.31316606323E+04  0.31316606323E+04  0.00000000000E+00 0. -1.
         23    2    1    2    0    0  0.19291573135E+04  0.89067484101E+03 -0.10768398116E+04  0.23840213765E+04  0.94996478676E+02 0.  0.
        254    2    1    2    0    0 -0.19291573135E+04 -0.89067484101E+03 -0.45801790915E+03  0.23444421672E+04  0.87845264964E+03 0.  0.
        -24    2    4    4    0    0 -0.19550338356E+04 -0.92106597360E+03 -0.53367859124E+03  0.22275164360E+04  0.80602777515E+02 0.  0.
         24    2    4    4    0    0  0.25876522055E+02  0.30391132587E+02  0.75660682092E+02  0.11692573127E+03  0.79711181683E+02 0.  0.
         13    1    3    3    0    0  0.27142034612E+03  0.10446900032E+03 -0.17769167125E+03  0.34081828934E+03  0.00000000000E+00 0.  1.
        -13    1    3    3    0    0  0.16577369674E+04  0.78620584070E+03 -0.89914814038E+03  0.20432030872E+04  0.00000000000E+00 0. -1.
          4    1    6    6  502    0 -0.56092353782E+00  0.35807566520E+02  0.81759400684E+02  0.89258590934E+02  0.00000000000E+00 0. -1.
          1    1    5    5  503    0 -0.10955743593E+04 -0.55130953350E+03 -0.32759283920E+03  0.12694654177E+04  0.00000000000E+00 0. -1.
         -2    1    5    5    0  503 -0.85945947633E+03 -0.36975644010E+03 -0.20608575204E+03  0.95805101829E+03  0.00000000000E+00 0.  1.
         -3    1    6    6    0  502  0.26437445593E+02 -0.54164339338E+01 -0.60987185915E+01  0.27667140339E+02  0.00000000000E+00 0.  1.
<mgrwt>
<rscale>  0 0.44724243E+04</rscale>
<asrwt>0</asrwt>
<pdfrwt beam="1">  1        2 0.48179394E+00 0.44724243E+04</pdfrwt>
<pdfrwt beam="2">  1       -2 0.24566199E+00 0.44724243E+04</pdfrwt>
<totfact> 0.74468609E-02</totfact>
</mgrwt>
</event>
<event>
12    1  0.1549527E-007  0.1747005E+04  0.7818608E-02  0.8735000E-01
         -2   -1    0    0    0  501 -0.00000000000E+00  0.00000000000E+00  0.81617192502E+03  0.81617192502E+03  0.00000000000E+00 0. -1.
          2   -1    0    0  501    0  0.00000000000E+00 -0.00000000000E+00 -0.93486063916E+03  0.93486063916E+03  0.00000000000E+00 0.  1.
         23    2    1    2    0    0 -0.29822008561E+02  0.29284805833E+03 -0.66060615146E+03  0.72952853844E+03  0.95718668943E+02 0.  0.
        254    2    1    2    0    0  0.29822008561E+02 -0.29284805833E+03  0.54191743733E+03  0.10215040257E+04  0.81433815350E+03 0.  0.
        -24    2    4    4    0    0 -0.15990973511E+02 -0.52296104510E+03  0.13728991165E+03  0.54709929201E+03  0.82007009135E+02 0.  0.
         24    2    4    4    0    0  0.45812982072E+02  0.23011298677E+03  0.40462752569E+03  0.47440473373E+03  0.79281781219E+02 0.  0.
         13    1    3    3    0    0 -0.11634871155E+01 -0.43889481647E+01  0.27121397653E-01  0.45406281317E+01  0.00000000000E+00 0. -1.
        -13    1    3    3    0    0 -0.28658521445E+02  0.29723700650E+03 -0.66063327286E+03  0.72498791031E+03  0.00000000000E+00 0.  1.
          4    1    6    6  502    0  0.63525346722E+02  0.18653931060E+03  0.29118854003E+03  0.35160083891E+03  0.00000000000E+00 0. -1.
          1    1    5    5  503    0  0.34981065701E+00 -0.49931225148E+03  0.11991129523E+03  0.51350907059E+03  0.00000000000E+00 0. -1.
         -2    1    5    5    0  503 -0.16340784168E+02 -0.23648793621E+02  0.17378616411E+02  0.33590221424E+02  0.00000000000E+00 0.  1.
         -3    1    6    6    0  502 -0.17712364650E+02  0.43573676174E+02  0.11343898566E+03  0.12280389482E+03  0.00000000000E+00 0.  1.
<mgrwt>
<rscale>  0 0.17470054E+04</rscale>
<asrwt>0</asrwt>
<pdfrwt beam="1">  1        2 0.14382471E+00 0.17470054E+04</pdfrwt>
<pdfrwt beam="2">  1       -2 0.12556491E+00 0.17470054E+04</pdfrwt>
<totfact> 0.12487103E+01</totfact>
</mgrwt>
</event>
<event>
12    1  0.1549527E-007  0.1439057E+04  0.7818608E-02  0.8926022E-01
          1   -1    0    0  501    0  0.00000000000E+00  0.00000000000E+00  0.39149978710E+03  0.39149978710E+03  0.00000000000E+00 0. -1.
         -1   -1    0    0    0  501 -0.00000000000E+00 -0.00000000000E+00 -0.13224047500E+04  0.13224047500E+04  0.00000000000E+00 0.  1.
         23    2    1    2    0    0 -0.27969942722E+03 -0.14988291320E+02 -0.70174019157E+03  0.76067036744E+03  0.87884543413E+02 0.  0.
        254    2    1    2    0    0  0.27969942722E+03  0.14988291320E+02 -0.22916477129E+03  0.95323416963E+03  0.88186306833E+03 0.  0.
        -24    2    4    4    0    0  0.48787270873E+03  0.19172035071E+03  0.76237808213E+02  0.53592194853E+03  0.81385863128E+02 0.  0.
         24    2    4    4    0    0 -0.20817328151E+03 -0.17673205939E+03 -0.30540257951E+03  0.41731222110E+03  0.79425552339E+02 0.  0.
         13    1    3    3    0    0 -0.26963707860E+03 -0.52363473958E+01 -0.59814590052E+03  0.65613267850E+03  0.00000000000E+00 0. -1.
        -13    1    3    3    0    0 -0.10062348621E+02 -0.97519439241E+01 -0.10359429105E+03  0.10453768894E+03  0.00000000000E+00 0.  1.
          2    1    6    6  502    0 -0.17476221187E+03 -0.11946151361E+03 -0.26683189333E+03  0.34060555373E+03  0.00000000000E+00 0. -1.
          3    1    5    5  503    0  0.20326115905E+03  0.91463301391E+02  0.71680435839E+02  0.23413397695E+03  0.00000000000E+00 0. -1.
         -4    1    5    5    0  503  0.28461154967E+03  0.10025704932E+03  0.45573723738E+01  0.30178797158E+03  0.00000000000E+00 0.  1.
         -1    1    6    6    0  502 -0.33411069643E+02 -0.57270545774E+02 -0.38570686172E+02  0.76706667375E+02  0.00000000000E+00 0.  1.
<mgrwt>
<rscale>  0 0.14390569E+04</rscale>
<asrwt>0</asrwt>
<pdfrwt beam="1">  1        1 0.60230738E-01 0.14390569E+04</pdfrwt>
<pdfrwt beam="2">  1       -1 0.20344688E+00 0.14390569E+04</pdfrwt>
<totfact> 0.85516418E+00</totfact>
</mgrwt>
</event>
<event>
12    1  0.1549527E-007  0.1561349E+04  0.7818608E-02  0.8844651E-01
         -1   -1    0    0    0  501 -0.00000000000E+00  0.00000000000E+00  0.80815664080E+03  0.80815664080E+03  0.00000000000E+00 0.  1.
          1   -1    0    0  501    0  0.00000000000E+00 -0.00000000000E+00 -0.75412679006E+03  0.75412679006E+03  0.00000000000E+00 0. -1.
         23    2    1    2    0    0  0.71282571360E+02  0.26826526003E+03  0.45217370958E+03  0.53816117075E+03  0.90049582730E+02 0.  0.
        254    2    1    2    0    0 -0.71282571360E+02 -0.26826526003E+03 -0.39814385885E+03  0.10241222601E+04  0.90180952345E+03 0.  0.
        -24    2    4    4    0    0 -0.41993897006E+03 -0.36819495656E+02  0.16958521755E+02  0.42937253821E+03  0.79804581786E+02 0.  0.
         24    2    4    4    0    0  0.34865639870E+03 -0.23144576438E+03 -0.41510238061E+03  0.59474972190E+03  0.79302075065E+02 0.  0.
         13    1    3    3    0    0 -0.17182300229E+02  0.80004859464E+02  0.15718317286E+03  0.17720767141E+03  0.00000000000E+00 0. -1.
        -13    1    3    3    0    0  0.88464871589E+02  0.18826040057E+03  0.29499053673E+03  0.36095349934E+03  0.00000000000E+00 0.  1.
          4    1    6    6  502    0  0.21098633161E+02 -0.43023041249E+02 -0.51417321119E+02  0.70284246532E+02  0.00000000000E+00 0. -1.
          3    1    5    5  503    0 -0.19305004683E+03  0.17161500159E+02  0.28342763523E+02  0.19587279013E+03  0.00000000000E+00 0. -1.
         -4    1    5    5    0  503 -0.22688892323E+03 -0.53980995815E+02 -0.11384241768E+02  0.23349974808E+03  0.00000000000E+00 0.  1.
         -3    1    6    6    0  502  0.32755776554E+03 -0.18842272313E+03 -0.36368505949E+03  0.52446547536E+03  0.00000000000E+00 0.  1.
<mgrwt>
<rscale>  0 0.15613489E+04</rscale>
<asrwt>0</asrwt>
<pdfrwt beam="1">  1        1 0.11601951E+00 0.15613489E+04</pdfrwt>
<pdfrwt beam="2">  1       -1 0.12433179E+00 0.15613489E+04</pdfrwt>
<totfact> 0.13259971E+01</totfact>
</mgrwt>
</event>
<event>
12    1  0.1549527E-007  0.4069142E+04  0.7818608E-02  0.7990742E-01
         -2   -1    0    0    0  501 -0.00000000000E+00  0.00000000000E+00  0.12900152485E+04  0.12900152485E+04  0.00000000000E+00 0. -1.
          2   -1    0    0  501    0  0.00000000000E+00 -0.00000000000E+00 -0.32088607965E+04  0.32088607965E+04  0.00000000000E+00 0.  1.
         23    2    1    2    0    0 -0.11396793715E+03  0.17458784991E+04 -0.18153003445E+04  0.25228764287E+04  0.92248086114E+02 0.  0.
        254    2    1    2    0    0  0.11396793715E+03 -0.17458784991E+04 -0.10354520345E+03  0.19759996163E+04  0.91256366908E+03 0.  0.
        -24    2    4    4    0    0 -0.36162518161E+03 -0.71594557674E+03  0.12509477641E+03  0.81590961386E+03  0.81908205197E+02 0.  0.
         24    2    4    4    0    0  0.47559311876E+03 -0.10299329224E+04 -0.22863997986E+03  0.11600900025E+04  0.81129120485E+02 0.  0.
         13    1    3    3    0    0 -0.28620505302E+02  0.94621472570E+03 -0.93542065778E+03  0.13308468159E+04  0.00000000000E+00 0.  1.
        -13    1    3    3    0    0 -0.85347431848E+02  0.79966377342E+03 -0.87987968677E+03  0.11920296128E+04  0.00000000000E+00 0. -1.
          4    1    6    6  502    0  0.47467566997E+03 -0.10031972223E+04 -0.21666613168E+03  0.11307810889E+04  0.00000000000E+00 0. -1.
          3    1    5    5  503    0 -0.31701946967E+03 -0.64224815713E+03  0.86222830488E+02  0.72140031604E+03  0.00000000000E+00 0. -1.
         -4    1    5    5    0  503 -0.44605711935E+02 -0.73697419609E+02  0.38871945921E+02  0.94509297817E+02  0.00000000000E+00 0.  1.
         -3    1    6    6    0  502  0.91744878839E+00 -0.26735700078E+02 -0.11973848177E+02  0.29308913510E+02  0.00000000000E+00 0.  1.
<mgrwt>
<rscale>  0 0.40691421E+04</rscale>
<asrwt>0</asrwt>
<pdfrwt beam="1">  1        2 0.49367089E+00 0.40691421E+04</pdfrwt>
<pdfrwt beam="2">  1       -2 0.19846389E+00 0.40691421E+04</pdfrwt>
<totfact> 0.13651460E-01</totfact>
</mgrwt>
</event>
<event>
12    1  0.1549527E-007  0.2175843E+04  0.7818608E-02  0.8528551E-01
         -2   -1    0    0    0  501 -0.00000000000E+00  0.00000000000E+00  0.70013491142E+03  0.70013491142E+03  0.00000000000E+00 0. -1.
          2   -1    0    0  501    0  0.00000000000E+00 -0.00000000000E+00 -0.16904927601E+04  0.16904927601E+04  0.00000000000E+00 0.  1.
         23    2    1    2    0    0  0.55166501646E+03 -0.48589316822E+03 -0.97397941186E+03  0.12237083841E+04  0.91650713325E+02 0.  0.
        254    2    1    2    0    0 -0.55166501646E+03  0.48589316822E+03 -0.16378436837E+02  0.11669192875E+04  0.90609376388E+03 0.  0.
        -24    2    4    4    0    0 -0.37035445068E+03  0.74754825894E+03  0.86942945445E+00  0.83840245391E+03  0.83229202933E+02 0.  0.
         24    2    4    4    0    0 -0.18131056577E+03 -0.26165509072E+03 -0.17247866291E+02  0.32851683355E+03  0.79302668742E+02 0.  0.
         11    1    3    3    0    0  0.47486612069E+03 -0.40160118307E+03 -0.86969198438E+03  0.10691798214E+04  0.00000000000E+00 0. -1.
        -11    1    3    3    0    0  0.76798895767E+02 -0.84291985151E+02 -0.10428742748E+03  0.15452856267E+03  0.00000000000E+00 0.  1.
          2    1    6    6  502    0 -0.61351391282E+02 -0.15733118491E+03 -0.14850513282E+02  0.16952177649E+03  0.00000000000E+00 0. -1.
          1    1    5    5  503    0 -0.10717335950E+03  0.14086720904E+03  0.52968054052E+01  0.17708121221E+03  0.00000000000E+00 0. -1.
         -2    1    5    5    0  503 -0.26318109119E+03  0.60668104990E+03 -0.44273759507E+01  0.66132124170E+03  0.00000000000E+00 0.  1.
         -1    1    6    6    0  502 -0.11995917449E+03 -0.10432390581E+03 -0.23973530100E+01  0.15899505706E+03  0.00000000000E+00 0.  1.
<mgrwt>
<rscale>  0 0.21758428E+04</rscale>
<asrwt>0</asrwt>
<pdfrwt beam="1">  1        2 0.26007580E+00 0.21758428E+04</pdfrwt>
<pdfrwt beam="2">  1       -2 0.10771307E+00 0.21758428E+04</pdfrwt>
<totfact> 0.62854457E+00</totfact>
</mgrwt>
</event>
<event>
12    1  0.1549527E-007  0.1456344E+04  0.7818608E-02  0.8914014E-01
         -1   -1    0    0    0  501 -0.00000000000E+00  0.00000000000E+00  0.78277978220E+03  0.78277978220E+03  0.00000000000E+00 0.  1.
          1   -1    0    0  501    0  0.00000000000E+00 -0.00000000000E+00 -0.67737419413E+03  0.67737419413E+03  0.00000000000E+00 0. -1.
         23    2    1    2    0    0 -0.11627368587E+03 -0.20792701324E+03 -0.33844685005E+03  0.42379020820E+03  0.91096967016E+02 0.  0.
        254    2    1    2    0    0  0.11627368587E+03  0.20792701324E+03  0.44385243812E+03  0.10363637681E+04  0.90569954190E+03 0.  0.
        -24    2    4    4    0    0  0.20912093107E+03 -0.32206400988E+03  0.20658192523E+03  0.44313809802E+03  0.78984123778E+02 0.  0.
         24    2    4    4    0    0 -0.92847245204E+02  0.52999102312E+03  0.23727051289E+03  0.59322567010E+03  0.78155638615E+02 0.  0.
         13    1    3    3    0    0 -0.18392539614E+02 -0.11278602454E+03 -0.11623468277E+03  0.16300145498E+03  0.00000000000E+00 0.  1.
        -13    1    3    3    0    0 -0.97881146256E+02 -0.95140988696E+02 -0.22221216728E+03  0.26078875323E+03  0.00000000000E+00 0. -1.
          2    1    6    6  502    0  0.66714633169E+01  0.17234812901E+03  0.75736129535E+02  0.18837289432E+03  0.00000000000E+00 0. -1.
          1    1    5    5  503    0  0.37989361647E+02 -0.77027300002E+02  0.12547022851E+02  0.86797605533E+02  0.00000000000E+00 0. -1.
         -2    1    5    5    0  503  0.17113156943E+03 -0.24503670988E+03  0.19403490238E+03  0.35634049249E+03  0.00000000000E+00 0.  1.
         -1    1    6    6    0  502 -0.99518708521E+02  0.35764289411E+03  0.16153438336E+03  0.40485277578E+03  0.00000000000E+00 0.  1.
<mgrwt>
<rscale>  0 0.14563445E+04</rscale>
<asrwt>0</asrwt>
<pdfrwt beam="1">  1        1 0.10421141E+00 0.14563445E+04</pdfrwt>
<pdfrwt beam="2">  1       -1 0.12042766E+00 0.14563445E+04</pdfrwt>
<totfact> 0.17064269E+01</totfact>
</mgrwt>
</event>
<event>
12    1  0.1549527E-007  0.3408671E+04  0.7818608E-02  0.8135781E-01
         -1   -1    0    0    0  501 -0.00000000000E+00  0.00000000000E+00  0.14248214546E+04  0.14248214546E+04  0.00000000000E+00 0.  1.
          1   -1    0    0  501    0  0.00000000000E+00 -0.00000000000E+00 -0.20386829354E+04  0.20386829354E+04  0.00000000000E+00 0. -1.
         23    2    1    2    0    0  0.13370788070E+04  0.61427389892E+03 -0.89198219123E+03  0.17230878434E+04  0.91034761182E+02 0.  0.
        254    2    1    2    0    0 -0.13370788070E+04 -0.61427389892E+03  0.27812071045E+03  0.17404165466E+04  0.88689710069E+03 0.  0.
        -24    2    4    4    0    0 -0.64120228161E+03 -0.62557731879E+03  0.46886010017E+03  0.10142951393E+04  0.80482845354E+02 0.  0.
         24    2    4    4    0    0 -0.69587652538E+03  0.11303419872E+02 -0.19073938972E+03  0.72612140731E+03  0.80615615644E+02 0.  0.
         13    1    3    3    0    0  0.12764695184E+04  0.59407754271E+03 -0.83166870759E+03  0.16352294632E+04  0.00000000000E+00 0. -1.
        -13    1    3    3    0    0  0.60609288544E+02  0.20196356210E+02 -0.60313483642E+02  0.87858380198E+02  0.00000000000E+00 0.  1.
          2    1    6    6  502    0 -0.21894260148E+03 -0.24302900042E+02 -0.34409080562E+02  0.22295846814E+03  0.00000000000E+00 0. -1.
          1    1    5    5  503    0 -0.30737382810E+03 -0.34964622361E+03  0.26393203733E+03  0.53515537203E+03  0.00000000000E+00 0. -1.
         -2    1    5    5    0  503 -0.33382845351E+03 -0.27593109517E+03  0.20492806284E+03  0.47913976729E+03  0.00000000000E+00 0.  1.
         -1    1    6    6    0  502 -0.47693392390E+03  0.35606319914E+02 -0.15633030916E+03  0.50316293916E+03  0.00000000000E+00 0.  1.
<mgrwt>
<rscale>  0 0.34086708E+04</rscale>
<asrwt>0</asrwt>
<pdfrwt beam="1">  1        1 0.31364353E+00 0.34086708E+04</pdfrwt>
<pdfrwt beam="2">  1       -1 0.21920330E+00 0.34086708E+04</pdfrwt>
<totfact> 0.25694468E-01</totfact>
</mgrwt>
</event>
<event>
12    1  0.1549527E-007  0.2102912E+04  0.7818608E-02  0.8559962E-01
          1   -1    0    0  501    0  0.00000000000E+00  0.00000000000E+00  0.23102461700E+04  0.23102461700E+04  0.00000000000E+00 0. -1.
         -1   -1    0    0    0  501 -0.00000000000E+00 -0.00000000000E+00 -0.47854627849E+03  0.47854627849E+03  0.00000000000E+00 0.  1.
         23    2    1    2    0    0  0.15881489060E+03 -0.69309786182E+03  0.61401094259E+02  0.71960297522E+03  0.91932214286E+02 0.  0.
        254    2    1    2    0    0 -0.15881489060E+03  0.69309786182E+03  0.17702987972E+04  0.20691894732E+04  0.80123681217E+03 0.  0.
        -24    2    4    4    0    0 -0.10290450033E+03  0.86121164427E+03  0.13803269087E+04  0.16321640493E+04  0.79889151169E+02 0.  0.
         24    2    4    4    0    0 -0.55910390276E+02 -0.16811378245E+03  0.38997188855E+03  0.43702542398E+03  0.86746364508E+02 0.  0.
         13    1    3    3    0    0  0.52329838059E+02 -0.39724224263E+03  0.86093418217E+01  0.40076668031E+03  0.00000000000E+00 0.  1.
        -13    1    3    3    0    0  0.10648505255E+03 -0.29585561919E+03  0.52791752438E+02  0.31883629490E+03  0.00000000000E+00 0. -1.
          2    1    6    6  502    0 -0.40699509934E+02 -0.69616102002E+02  0.89572011784E+02  0.12052384437E+03  0.00000000000E+00 0. -1.
          1    1    5    5  503    0 -0.25898722556E+02  0.41640407729E+03  0.72332323177E+03  0.83502071653E+03  0.00000000000E+00 0. -1.
         -2    1    5    5    0  503 -0.77005777772E+02  0.44480756698E+03  0.65700367690E+03  0.79714333273E+03  0.00000000000E+00 0.  1.
         -1    1    6    6    0  502 -0.15210880342E+02 -0.98497680449E+02  0.30039987677E+03  0.31650157961E+03  0.00000000000E+00 0.  1.
<mgrwt>
<rscale>  0 0.21029120E+04</rscale>
<asrwt>0</asrwt>
<pdfrwt beam="1">  1        1 0.35542248E+00 0.21029120E+04</pdfrwt>
<pdfrwt beam="2">  1       -1 0.73622506E-01 0.21029120E+04</pdfrwt>
<totfact> 0.31294082E+00</totfact>
</mgrwt>
</event>
<event>
12    1  0.1549527E-007  0.1401555E+04  0.7818608E-02  0.8952694E-01
          1   -1    0    0  501    0  0.00000000000E+00  0.00000000000E+00  0.60030018156E+03  0.60030018156E+03  0.00000000000E+00 0. -1.
         -1   -1    0    0    0  501 -0.00000000000E+00 -0.00000000000E+00 -0.81807273772E+03  0.81807273772E+03  0.00000000000E+00 0.  1.
         23    2    1    2    0    0  0.26808166877E+03  0.16056709001E+03  0.17726686554E+03  0.37061615986E+03  0.91012223410E+02 0.  0.
        254    2    1    2    0    0 -0.26808166877E+03 -0.16056709001E+03 -0.39503942170E+03  0.10477567594E+04  0.91874289695E+03 0.  0.
        -24    2    4    4    0    0 -0.58409230076E+03 -0.22974844158E+03 -0.29990105154E+03  0.70017166005E+03  0.79696616009E+02 0.  0.
         24    2    4    4    0    0  0.31601063200E+03  0.69181351569E+02 -0.95138370156E+02  0.34758509937E+03  0.84352314063E+02 0.  0.
         11    1    3    3    0    0  0.20999133991E+03  0.16381824413E+03  0.13421752080E+03  0.29824004230E+03  0.00000000000E+00 0. -1.
        -11    1    3    3    0    0  0.58090328860E+02 -0.32511541149E+01  0.43049344749E+02  0.72376117562E+02  0.00000000000E+00 0.  1.
          4    1    6    6  502    0  0.29283072161E+03  0.45142258228E+02 -0.66658503041E+02  0.30369558940E+03  0.00000000000E+00 0. -1.
          3    1    5    5  503    0 -0.49778110232E+03 -0.19446666296E+03 -0.22210075997E+03  0.57873314784E+03  0.00000000000E+00 0. -1.
         -4    1    5    5    0  503 -0.86311198446E+02 -0.35281778618E+02 -0.77800291574E+02  0.12143851221E+03  0.00000000000E+00 0.  1.
         -3    1    6    6    0  502  0.23179910392E+02  0.24039093341E+02 -0.28479867115E+02  0.43889509969E+02  0.00000000000E+00 0.  1.
<mgrwt>
<rscale>  0 0.14015552E+04</rscale>
<asrwt>0</asrwt>
<pdfrwt beam="1">  1        1 0.92353874E-01 0.14015552E+04</pdfrwt>
<pdfrwt beam="2">  1       -1 0.12585734E+00 0.14015552E+04</pdfrwt>
<totfact> 0.18362509E+01</totfact>
</mgrwt>
</event>
<event>
12    1  0.1549527E-007  0.1150843E+04  0.7818608E-02  0.9157006E-01
         -1   -1    0    0    0  501 -0.00000000000E+00  0.00000000000E+00  0.30602128847E+03  0.30602128847E+03  0.00000000000E+00 0.  1.
          1   -1    0    0  501    0  0.00000000000E+00 -0.00000000000E+00 -0.10819840129E+04  0.10819840129E+04  0.00000000000E+00 0. -1.
         23    2    1    2    0    0 -0.18118207396E+03 -0.10121618567E+03 -0.12945478519E+03  0.26159220014E+03  0.92737681657E+02 0.  0.
        254    2    1    2    0    0  0.18118207396E+03  0.10121618567E+03 -0.64650793926E+03  0.11264131012E+04  0.89875597298E+03 0.  0.
        -24    2    4    4    0    0 -0.24537922686E+03  0.15501812557E+02  0.84269754514E+02  0.27204756421E+03  0.80356794981E+02 0.  0.
         24    2    4    4    0    0  0.42656130082E+03  0.85714373115E+02 -0.73077769377E+03  0.85436553704E+03  0.81258452161E+02 0.  0.
         13    1    3    3    0    0 -0.42772894140E+02 -0.68637289623E+02 -0.71831400385E+02  0.10816814726E+03  0.00000000000E+00 0. -1.
        -13    1    3    3    0    0 -0.13840917982E+03 -0.32578896049E+02 -0.57623384806E+02  0.15342405288E+03  0.00000000000E+00 0.  1.
          2    1    6    6  502    0  0.92580396383E+02  0.52208214049E+02 -0.15627228591E+03  0.18899167906E+03  0.00000000000E+00 0. -1.
          1    1    5    5  503    0 -0.19706821514E+03 -0.12051431641E+02  0.88307333811E+02  0.21628523673E+03  0.00000000000E+00 0. -1.
         -2    1    5    5    0  503 -0.48311011720E+02  0.27553244198E+02 -0.40375792971E+01  0.55762327478E+02  0.00000000000E+00 0.  1.
         -1    1    6    6    0  502  0.33398090444E+03  0.33506159066E+02 -0.57450540786E+03  0.66537385798E+03  0.00000000000E+00 0.  1.
<mgrwt>
<rscale>  0 0.11508434E+04</rscale>
<asrwt>0</asrwt>
<pdfrwt beam="1">  1        1 0.16645908E+00 0.11508434E+04</pdfrwt>
<pdfrwt beam="2">  1       -1 0.47080197E-01 0.11508434E+04</pdfrwt>
<totfact> 0.58429283E+01</totfact>
</mgrwt>
</event>
<event>
12    1  0.1549527E-007  0.2232717E+04  0.7818608E-02  0.8504933E-01
          2   -1    0    0  501    0  0.00000000000E+00  0.00000000000E+00  0.84465857037E+03  0.84465857037E+03  0.00000000000E+00 0. -1.
         -2   -1    0    0    0  501 -0.00000000000E+00 -0.00000000000E+00 -0.14754555679E+04  0.14754555679E+04  0.00000000000E+00 0.  1.
         23    2    1    2    0    0 -0.34532674484E+03  0.50920111938E+03  0.46504868071E+03  0.77703734976E+03  0.94765113880E+02 0.  0.
        254    2    1    2    0    0  0.34532674484E+03 -0.50920111938E+03 -0.10958456783E+04  0.15430767885E+04  0.89536131481E+03 0.  0.
        -24    2    4    4    0    0  0.47938387410E+03  0.65012266684E+02 -0.46209466625E+03  0.67381915437E+03  0.80406956499E+02 0.  0.
         24    2    4    4    0    0 -0.13405712926E+03 -0.57421338607E+03 -0.63375101201E+03  0.86925763416E+03  0.79222236041E+02 0.  0.
         11    1    3    3    0    0 -0.25812944033E+03  0.42554361270E+03  0.33759218365E+03  0.60140390482E+03  0.00000000000E+00 0. -1.
        -11    1    3    3    0    0 -0.87197304509E+02  0.83657506688E+02  0.12745649705E+03  0.17563344494E+03  0.00000000000E+00 0.  1.
          2    1    6    6  502    0 -0.13939302401E+03 -0.47589445499E+03 -0.54285359568E+03  0.73525231981E+03  0.00000000000E+00 0. -1.
          3    1    5    5  503    0  0.43511741073E+03  0.50733771052E+02 -0.38213763194E+03  0.58131768112E+03  0.00000000000E+00 0. -1.
         -4    1    5    5    0  503  0.44266463371E+02  0.14278495632E+02 -0.79957034308E+02  0.92501473244E+02  0.00000000000E+00 0.  1.
         -1    1    6    6    0  502  0.53358947568E+01 -0.98318931074E+02 -0.90897416326E+02  0.13400531435E+03  0.00000000000E+00 0.  1.
<mgrwt>
<rscale>  0 0.22327169E+04</rscale>
<asrwt>0</asrwt>
<pdfrwt beam="1">  1        2 0.12994747E+00 0.22327169E+04</pdfrwt>
<pdfrwt beam="2">  1       -2 0.22699316E+00 0.22327169E+04</pdfrwt>
<totfact> 0.26049564E+00</totfact>
</mgrwt>
</event>
<event>
12    1  0.1549527E-007  0.2230550E+04  0.7818608E-02  0.8505819E-01
         -1   -1    0    0    0  501 -0.00000000000E+00  0.00000000000E+00  0.50825459624E+03  0.50825459624E+03  0.00000000000E+00 0.  1.
          1   -1    0    0  501    0  0.00000000000E+00 -0.00000000000E+00 -0.24472748445E+04  0.24472748445E+04  0.00000000000E+00 0. -1.
         23    2    1    2    0    0  0.29100563800E+03 -0.89588309908E+01  0.35829102911E+03  0.47043245938E+03  0.90386366754E+02 0.  0.
        254    2    1    2    0    0 -0.29100563800E+03  0.89588309908E+01 -0.22973112774E+04  0.24850969814E+04  0.90183333251E+03 0.  0.
        -24    2    4    4    0    0 -0.43229291371E+03 -0.11586340052E+03 -0.49792663207E+03  0.67427219334E+03  0.80066028722E+02 0.  0.
         24    2    4    4    0    0  0.14128727571E+03  0.12482223151E+03 -0.17993846453E+04  0.18108247881E+04  0.75885620663E+02 0.  0.
         11    1    3    3    0    0  0.17426768568E+03 -0.45126360835E+02  0.24305388264E+03  0.30245793853E+03  0.00000000000E+00 0.  1.
        -11    1    3    3    0    0  0.11673795232E+03  0.36167529844E+02  0.11523714647E+03  0.16797452085E+03  0.00000000000E+00 0. -1.
          4    1    6    6  502    0  0.14611454187E+03  0.98126936401E+02 -0.15399079615E+04  0.15499338324E+04  0.00000000000E+00 0. -1.
          1    1    5    5  503    0 -0.32079065355E+03 -0.11117041193E+03 -0.40915777706E+03  0.53167244655E+03  0.00000000000E+00 0. -1.
         -4    1    5    5    0  503 -0.11150226016E+03 -0.46929885913E+01 -0.88768855011E+02  0.14259974678E+03  0.00000000000E+00 0.  1.
         -3    1    6    6    0  502 -0.48272661559E+01  0.26695295107E+02 -0.25947668388E+03  0.26089095568E+03  0.00000000000E+00 0.  1.
<mgrwt>
<rscale>  0 0.22305503E+04</rscale>
<asrwt>0</asrwt>
<pdfrwt beam="1">  1        1 0.37650383E+00 0.22305503E+04</pdfrwt>
<pdfrwt beam="2">  1       -1 0.78193014E-01 0.22305503E+04</pdfrwt>
<totfact> 0.21941541E+00</totfact>
</mgrwt>
</event>
<event>
12    1  0.1549527E-007  0.2353576E+04  0.7818608E-02  0.8457092E-01
         -2   -1    0    0    0  501 -0.00000000000E+00  0.00000000000E+00  0.80523377622E+03  0.80523377622E+03  0.00000000000E+00 0.  1.
          2   -1    0    0  501    0  0.00000000000E+00 -0.00000000000E+00 -0.17197856189E+04  0.17197856189E+04  0.00000000000E+00 0. -1.
         23    2    1    2    0    0  0.26078831743E+03  0.69968676572E+03 -0.11012532674E+04  0.13336265004E+04  0.90712551397E+02 0.  0.
        254    2    1    2    0    0 -0.26078831743E+03 -0.69968676572E+03  0.18670142469E+03  0.11913928947E+04  0.90938852589E+03 0.  0.
        -24    2    4    4    0    0  0.11208865844E+01 -0.32685494981E+02 -0.30593482648E+03  0.31807609155E+03  0.80664019215E+02 0.  0.
         24    2    4    4    0    0 -0.26190920401E+03 -0.66700127074E+03  0.49263625117E+03  0.87331680319E+03  0.80651326379E+02 0.  0.
         11    1    3    3    0    0  0.25020295426E+03  0.57708693408E+03 -0.91107350124E+03  0.11071069381E+04  0.00000000000E+00 0. -1.
        -11    1    3    3    0    0  0.10585363162E+02  0.12259983164E+03 -0.19017976617E+03  0.22651956227E+03  0.00000000000E+00 0.  1.
          4    1    6    6  502    0  0.84315885144E+00 -0.40885873077E+02  0.16997563173E+02  0.44286371357E+02  0.00000000000E+00 0. -1.
          1    1    5    5  503    0 -0.19505729786E+02  0.87478972828E+01 -0.23078850589E+02  0.31458425673E+02  0.00000000000E+00 0. -1.
         -2    1    5    5    0  503  0.20626616370E+02 -0.41433392264E+02 -0.28285597589E+03  0.28661766588E+03  0.00000000000E+00 0.  1.
         -1    1    6    6    0  502 -0.26275236286E+03 -0.62611539767E+03  0.47563868800E+03  0.82903043183E+03  0.00000000000E+00 0.  1.
<mgrwt>
<rscale>  0 0.23535756E+04</rscale>
<asrwt>0</asrwt>
<pdfrwt beam="1">  1        2 0.26458240E+00 0.23535756E+04</pdfrwt>
<pdfrwt beam="2">  1       -2 0.12388212E+00 0.23535756E+04</pdfrwt>
<totfact> 0.42330754E+00</totfact>
</mgrwt>
</event>
<event>
12    1  0.1549527E-007  0.1814021E+04  0.7818608E-02  0.8698879E-01
          2   -1    0    0  501    0  0.00000000000E+00  0.00000000000E+00  0.20489497530E+04  0.20489497530E+04  0.00000000000E+00 0. -1.
         -2   -1    0    0    0  501 -0.00000000000E+00 -0.00000000000E+00 -0.40150704714E+03  0.40150704714E+03  0.00000000000E+00 0.  1.
         23    2    1    2    0    0  0.41928766616E+03  0.10513988588E+03 -0.87622033909E+02  0.45029063485E+03  0.90705525806E+02 0.  0.
        254    2    1    2    0    0 -0.41928766616E+03 -0.10513988588E+03  0.17350647398E+04  0.20001661653E+04  0.89630268046E+03 0.  0.
        -24    2    4    4    0    0 -0.68289125214E+03 -0.10568736610E+03  0.14206807575E+04  0.15821303244E+04  0.85394771264E+02 0.  0.
         24    2    4    4    0    0  0.26360358599E+03  0.54748022162E+00  0.31438398226E+03  0.41803584092E+03  0.80184323333E+02 0.  0.
         13    1    3    3    0    0  0.24281882971E+03  0.20750829147E+02 -0.25399228604E+02  0.24502388003E+03  0.00000000000E+00 0. -1.
        -13    1    3    3    0    0  0.17646883645E+03  0.84389056734E+02 -0.62222805305E+02  0.20526675482E+03  0.00000000000E+00 0.  1.
          2    1    6    6  502    0  0.22156073237E+03  0.20629736855E+02  0.22070386357E+03  0.31340858248E+03  0.00000000000E+00 0. -1.
          1    1    5    5  503    0 -0.39169370469E+03 -0.51731381851E+02  0.90448818523E+03  0.98701518295E+03  0.00000000000E+00 0. -1.
         -2    1    5    5    0  503 -0.29119754745E+03 -0.53955984252E+02  0.51619257231E+03  0.59511514146E+03  0.00000000000E+00 0.  1.
         -1    1    6    6    0  502  0.42042853612E+02 -0.20082256633E+02  0.93680118691E+02  0.10462725844E+03  0.00000000000E+00 0.  1.
<mgrwt>
<rscale>  0 0.18140207E+04</rscale>
<asrwt>0</asrwt>
<pdfrwt beam="1">  1        2 0.31522303E+00 0.18140207E+04</pdfrwt>
<pdfrwt beam="2">  1       -2 0.61770316E-01 0.18140207E+04</pdfrwt>
<totfact> 0.14407494E+01</totfact>
</mgrwt>
</event>
<event>
12    1  0.1549527E-007  0.1468548E+04  0.7818608E-02  0.8905642E-01
         -2   -1    0    0    0  501 -0.00000000000E+00  0.00000000000E+00  0.21305344290E+03  0.21305344290E+03  0.00000000000E+00 0.  1.
          2   -1    0    0  501    0  0.00000000000E+00 -0.00000000000E+00 -0.25306240265E+04  0.25306240265E+04  0.00000000000E+00 0. -1.
         23    2    1    2    0    0  0.58287998010E+02  0.18710179463E+03 -0.14805922522E+04  0.14963072093E+04  0.91527455015E+02 0.  0.
        254    2    1    2    0    0 -0.58287998010E+02 -0.18710179463E+03 -0.83697833142E+03  0.12473702601E+04  0.90387790454E+03 0.  0.
        -24    2    4    4    0    0 -0.34621055489E+01 -0.54654924476E+03 -0.52520545674E+03  0.76218179836E+03  0.79701059282E+02 0.  0.
         24    2    4    4    0    0 -0.54825892461E+02  0.35944745012E+03 -0.31177287468E+03  0.48518846176E+03  0.77441398186E+02 0.  0.
         11    1    3    3    0    0  0.13056294350E+02  0.38726504830E+02 -0.65470902169E+03  0.65598331692E+03  0.00000000000E+00 0.  1.
        -11    1    3    3    0    0  0.45231703660E+02  0.14837528980E+03 -0.82588323050E+03  0.84032389235E+03  0.00000000000E+00 0. -1.
          4    1    6    6  502    0 -0.45002420670E+02  0.26852256098E+03 -0.18622475264E+03  0.32986245939E+03  0.00000000000E+00 0. -1.
          1    1    5    5  503    0 -0.37561890160E+02 -0.37026713986E+03 -0.33711296590E+03  0.50214918324E+03  0.00000000000E+00 0. -1.
         -2    1    5    5    0  503  0.34099784611E+02 -0.17628210489E+03 -0.18809249084E+03  0.26003261512E+03  0.00000000000E+00 0.  1.
         -3    1    6    6    0  502 -0.98234717912E+01  0.90924889149E+02 -0.12554812203E+03  0.15532600237E+03  0.00000000000E+00 0.  1.
<mgrwt>
<rscale>  0 0.14685478E+04</rscale>
<asrwt>0</asrwt>
<pdfrwt beam="1">  1        2 0.38932677E+00 0.14685478E+04</pdfrwt>
<pdfrwt beam="2">  1       -2 0.32777453E-01 0.14685478E+04</pdfrwt>
<totfact> 0.28182972E+01</totfact>
</mgrwt>
</event>
<event>
12    1  0.1549527E-007  0.1326119E+04  0.7818608E-02  0.9009105E-01
          1   -1    0    0  501    0  0.00000000000E+00  0.00000000000E+00  0.24928003670E+04  0.24928003670E+04  0.00000000000E+00 0. -1.
         -1   -1    0    0    0  501 -0.00000000000E+00 -0.00000000000E+00 -0.17636708874E+03  0.17636708874E+03  0.00000000000E+00 0.  1.
         23    2    1    2    0    0 -0.25467956875E+03 -0.67583388579E+02  0.11510397517E+04  0.11837570144E+04  0.83420394235E+02 0.  0.
        254    2    1    2    0    0  0.25467956875E+03  0.67583388579E+02  0.11653935266E+04  0.14854104413E+04  0.88253776696E+03 0.  0.
        -24    2    4    4    0    0 -0.17407415452E+03  0.14984172405E+02 -0.45168873076E+02  0.19759468348E+03  0.80480402277E+02 0.  0.
         24    2    4    4    0    0  0.42875372327E+03  0.52599216174E+02  0.12105623997E+04  0.12878157578E+04  0.80072903125E+02 0.  0.
         13    1    3    3    0    0 -0.56579641215E+02 -0.32545573743E+02  0.16574696849E+03  0.17813626170E+03  0.00000000000E+00 0.  1.
        -13    1    3    3    0    0 -0.19809992753E+03 -0.35037814837E+02  0.98529278318E+03  0.10056207527E+04  0.00000000000E+00 0. -1.
          2    1    6    6  502    0  0.42429424778E+03  0.61951436406E+02  0.11870489013E+04  0.12621207086E+04  0.00000000000E+00 0. -1.
          1    1    5    5  503    0 -0.12137505020E+03  0.47019003569E+02 -0.23776172415E+02  0.13231778370E+03  0.00000000000E+00 0. -1.
         -2    1    5    5    0  503 -0.52699104314E+02 -0.32034831164E+02 -0.21392700661E+02  0.65276899779E+02  0.00000000000E+00 0.  1.
         -1    1    6    6    0  502  0.44594754867E+01 -0.93522202317E+01  0.23513498387E+02  0.25695049159E+02  0.00000000000E+00 0.  1.
<mgrwt>
<rscale>  0 0.13261191E+04</rscale>
<asrwt>0</asrwt>
<pdfrwt beam="1">  1        1 0.38350772E+00 0.13261191E+04</pdfrwt>
<pdfrwt beam="2">  1       -1 0.27133400E-01 0.13261191E+04</pdfrwt>
<totfact> 0.16411659E+01</totfact>
</mgrwt>
</event>
<event>
12    1  0.1549527E-007  0.1424853E+04  0.7818608E-02  0.8936023E-01
         -1   -1    0    0    0  501 -0.00000000000E+00  0.00000000000E+00  0.33395524008E+03  0.33395524008E+03  0.00000000000E+00 0.  1.
          1   -1    0    0  501    0  0.00000000000E+00 -0.00000000000E+00 -0.15198182156E+04  0.15198182156E+04  0.00000000000E+00 0. -1.
         23    2    1    2    0    0 -0.21267166880E+03  0.33316042357E+03 -0.50328904511E+03  0.64696170344E+03  0.95049861932E+02 0.  0.
        254    2    1    2    0    0  0.21267166880E+03 -0.33316042357E+03 -0.68257393038E+03  0.12068117522E+04  0.91337961893E+03 0.  0.
        -24    2    4    4    0    0  0.43092799236E+02 -0.57361975284E+03 -0.68956308793E+03  0.90117636213E+03  0.75663552897E+02 0.  0.
         24    2    4    4    0    0  0.16957886956E+03  0.24045932927E+03  0.69891575498E+01  0.30563539007E+03  0.82379981209E+02 0.  0.
         13    1    3    3    0    0 -0.17403426040E+03  0.31670864568E+03 -0.47268689743E+03  0.59500016222E+03  0.00000000000E+00 0. -1.
        -13    1    3    3    0    0 -0.38637408401E+02  0.16451777890E+02 -0.30602147678E+02  0.51961541222E+02  0.00000000000E+00 0.  1.
          2    1    6    6  502    0  0.85215155724E+02  0.12392271613E+03  0.44719305245E+02  0.15690213064E+03  0.00000000000E+00 0. -1.
          3    1    5    5  503    0  0.48740965111E+02 -0.38946443486E+03 -0.51357868837E+03  0.64639097832E+03  0.00000000000E+00 0. -1.
         -4    1    5    5    0  503 -0.56481658752E+01 -0.18415531797E+03 -0.17598439956E+03  0.25478538381E+03  0.00000000000E+00 0.  1.
         -1    1    6    6    0  502  0.84363713838E+02  0.11653661314E+03 -0.37730147695E+02  0.14873325943E+03  0.00000000000E+00 0.  1.
<mgrwt>
<rscale>  0 0.14248526E+04</rscale>
<asrwt>0</asrwt>
<pdfrwt beam="1">  1        1 0.23381819E+00 0.14248526E+04</pdfrwt>
<pdfrwt beam="2">  1       -1 0.51377728E-01 0.14248526E+04</pdfrwt>
<totfact> 0.23501984E+01</totfact>
</mgrwt>
</event>
<event>
12    1  0.1549527E-007  0.1348528E+04  0.7818608E-02  0.8991943E-01
         -1   -1    0    0    0  501 -0.00000000000E+00  0.00000000000E+00  0.93238548843E+03  0.93238548843E+03  0.00000000000E+00 0.  1.
          1   -1    0    0  501    0  0.00000000000E+00 -0.00000000000E+00 -0.48760095411E+03  0.48760095411E+03  0.00000000000E+00 0. -1.
         23    2    1    2    0    0  0.14744466460E+03  0.27292481829E+03  0.33102755201E+03  0.46345518637E+03  0.94781770482E+02 0.  0.
        254    2    1    2    0    0 -0.14744466460E+03 -0.27292481829E+03  0.11375698231E+03  0.95653125618E+03  0.89765444769E+03 0.  0.
        -24    2    4    4    0    0 -0.10871552705E+03  0.32098302583E+03  0.62127234319E+02  0.35380089683E+03  0.80412142472E+02 0.  0.
         24    2    4    4    0    0 -0.38729137549E+02 -0.59390784413E+03  0.51629747995E+02  0.60273035935E+03  0.79948619682E+02 0.  0.
         11    1    3    3    0    0  0.10373242269E+03  0.19942844352E+03  0.29444518800E+03  0.37044579676E+03  0.00000000000E+00 0. -1.
        -11    1    3    3    0    0  0.43712241909E+02  0.73496374772E+02  0.36582364016E+02  0.93009389603E+02  0.00000000000E+00 0.  1.
          2    1    6    6  502    0 -0.56102420495E+02 -0.55265097302E+03  0.52407421917E+02  0.55795798895E+03  0.00000000000E+00 0. -1.
          3    1    5    5  503    0 -0.36309666027E+02  0.73218971564E+02  0.49105515593E+02  0.95345483929E+02  0.00000000000E+00 0. -1.
         -4    1    5    5    0  503 -0.72405861027E+02  0.24776405427E+03  0.13021718726E+02  0.25845541290E+03  0.00000000000E+00 0.  1.
         -3    1    6    6    0  502  0.17373282946E+02 -0.41256871107E+02 -0.77767392181E+00  0.44772370393E+02  0.00000000000E+00 0.  1.
<mgrwt>
<rscale>  0 0.13485282E+04</rscale>
<asrwt>0</asrwt>
<pdfrwt beam="1">  1        1 0.75015532E-01 0.13485282E+04</pdfrwt>
<pdfrwt beam="2">  1       -1 0.14344392E+00 0.13485282E+04</pdfrwt>
<totfact> 0.17663546E+01</totfact>
</mgrwt>
</event>
<event>
12    1  0.1549527E-007  0.1892036E+04  0.7818608E-02  0.8658831E-01
         -2   -1    0    0    0  501 -0.00000000000E+00  0.00000000000E+00  0.22915658503E+03  0.22915658503E+03  0.00000000000E+00 0.  1.
          2   -1    0    0  501    0  0.00000000000E+00 -0.00000000000E+00 -0.39054075503E+04  0.39054075503E+04  0.00000000000E+00 0. -1.
         23    2    1    2    0    0 -0.14097115106E+03 -0.54158284619E+03 -0.25119915206E+04  0.25751919211E+04  0.91253418718E+02 0.  0.
        254    2    1    2    0    0  0.14097115106E+03  0.54158284619E+03 -0.11642594447E+04  0.15593722142E+04  0.87347398539E+03 0.  0.
        -24    2    4    4    0    0 -0.34111509677E+03  0.28672247338E+03 -0.33213367611E+03  0.56145663190E+03  0.79696202580E+02 0.  0.
         24    2    4    4    0    0  0.48208624784E+03  0.25486037281E+03 -0.83212576857E+03  0.99791558230E+03  0.77725508628E+02 0.  0.
         11    1    3    3    0    0 -0.10443572324E+03 -0.44656721199E+03 -0.18848656856E+04  0.19398576618E+04  0.00000000000E+00 0. -1.
        -11    1    3    3    0    0 -0.36535427821E+02 -0.95015634202E+02 -0.62712583493E+03  0.63533425932E+03  0.00000000000E+00 0.  1.
          2    1    6    6  502    0  0.72528692312E+02  0.30828853385E+02 -0.17420191993E+03  0.19119921108E+03  0.00000000000E+00 0. -1.
          1    1    5    5  503    0 -0.14430056910E+03  0.17072232326E+03 -0.17974857525E+03  0.28684197079E+03  0.00000000000E+00 0. -1.
         -2    1    5    5    0  503 -0.19681452767E+03  0.11600015012E+03 -0.15238510086E+03  0.27461466111E+03  0.00000000000E+00 0.  1.
         -1    1    6    6    0  502  0.40955755553E+03  0.22403151943E+03 -0.65792384863E+03  0.80671637122E+03  0.00000000000E+00 0.  1.
<mgrwt>
<rscale>  0 0.18920358E+04</rscale>
<asrwt>0</asrwt>
<pdfrwt beam="1">  1        2 0.60083187E+00 0.18920358E+04</pdfrwt>
<pdfrwt beam="2">  1       -2 0.35254863E-01 0.18920358E+04</pdfrwt>
<totfact> 0.29151958E+00</totfact>
</mgrwt>
</event>
<event>
12    1  0.1549527E-007  0.2896645E+04  0.7818608E-02  0.8273876E-01
          2   -1    0    0  501    0  0.00000000000E+00  0.00000000000E+00  0.19245558944E+04  0.19245558944E+04  0.00000000000E+00 0. -1.
         -2   -1    0    0    0  501 -0.00000000000E+00 -0.00000000000E+00 -0.10899335648E+04  0.10899335648E+04  0.00000000000E+00 0.  1.
         23    2    1    2    0    0 -0.12078392881E+04  0.25290036864E+03 -0.17832851104E+03  0.12512893128E+04  0.10530690425E+03 0.  0.
        254    2    1    2    0    0  0.12078392881E+04 -0.25290036864E+03  0.10129508407E+04  0.17632001464E+04  0.74831210617E+03 0.  0.
        -24    2    4    4    0    0  0.44903274074E+03  0.23104646756E+03  0.20570659429E+03  0.55153195958E+03  0.82821658229E+02 0.  0.
         24    2    4    4    0    0  0.75880654736E+03 -0.48394683619E+03  0.80724424638E+03  0.12116681868E+04  0.80651131572E+02 0.  0.
         11    1    3    3    0    0 -0.97029179439E+03  0.24487650695E+03 -0.13726735925E+03  0.10100856389E+04  0.00000000000E+00 0.  1.
        -11    1    3    3    0    0 -0.23754749371E+03  0.80238616902E+01 -0.41061151787E+02  0.24120367392E+03  0.00000000000E+00 0. -1.
          2    1    6    6  502    0  0.43886095690E+02 -0.36182722615E+02  0.78344616232E+02  0.96814553159E+02  0.00000000000E+00 0. -1.
          3    1    5    5  503    0  0.15676123687E+02 -0.13267377936E+01  0.21043634708E+02  0.26274239261E+02  0.00000000000E+00 0. -1.
         -4    1    5    5    0  503  0.43335661706E+03  0.23237320535E+03  0.18466295958E+03  0.52525772032E+03  0.00000000000E+00 0.  1.
         -1    1    6    6    0  502  0.71492045167E+03 -0.44776411358E+03  0.72889963014E+03  0.11148536336E+04  0.00000000000E+00 0.  1.
<mgrwt>
<rscale>  0 0.28966450E+04</rscale>
<asrwt>0</asrwt>
<pdfrwt beam="1">  1        2 0.29608552E+00 0.28966450E+04</pdfrwt>
<pdfrwt beam="2">  1       -2 0.16768209E+00 0.28966450E+04</pdfrwt>
<totfact> 0.14068160E+00</totfact>
</mgrwt>
</event>
<event>
12    1  0.1549527E-007  0.1452014E+04  0.7818608E-02  0.8917006E-01
          1   -1    0    0  501    0  0.00000000000E+00  0.00000000000E+00  0.11522494054E+04  0.11522494054E+04  0.00000000000E+00 0. -1.
         -1   -1    0    0    0  501 -0.00000000000E+00 -0.00000000000E+00 -0.45744083879E+03  0.45744083879E+03  0.00000000000E+00 0.  1.
         23    2    1    2    0    0  0.13785924274E+02 -0.14712383313E+03  0.66952496368E+03  0.69364825151E+03  0.10511301468E+03 0.  0.
        254    2    1    2    0    0 -0.13785924274E+02  0.14712383313E+03  0.25283602903E+02  0.91604199264E+03  0.90369142838E+03 0.  0.
        -24    2    4    4    0    0  0.43371078197E+03  0.68118780885E+02  0.74587782742E+02  0.45254811858E+03  0.80568303864E+02 0.  0.
         24    2    4    4    0    0 -0.44749670625E+03  0.79005052244E+02 -0.49304179839E+02  0.46349387406E+03  0.76815159687E+02 0.  0.
         11    1    3    3    0    0  0.31719809542E+02 -0.10066953662E+03  0.59319171503E+03  0.60250884865E+03  0.00000000000E+00 0. -1.
        -11    1    3    3    0    0 -0.17933885268E+02 -0.46454296510E+02  0.76333248645E+02  0.91139402861E+02  0.00000000000E+00 0.  1.
          4    1    6    6  502    0 -0.36656790054E+02 -0.12777776892E+02 -0.13107725389E+02  0.40973214473E+02  0.00000000000E+00 0. -1.
          3    1    5    5  503    0  0.27992898306E+03  0.36949140329E+02  0.86168162428E+02  0.29521251116E+03  0.00000000000E+00 0. -1.
         -4    1    5    5    0  503  0.15378179891E+03  0.31169640555E+02 -0.11580379687E+02  0.15733560742E+03  0.00000000000E+00 0.  1.
         -3    1    6    6    0  502 -0.41083991619E+03  0.91782829136E+02 -0.36196454449E+02  0.42252065959E+03  0.00000000000E+00 0.  1.
<mgrwt>
<rscale>  0 0.14520137E+04</rscale>
<asrwt>0</asrwt>
<pdfrwt beam="1">  1        1 0.17726914E+00 0.14520137E+04</pdfrwt>
<pdfrwt beam="2">  1       -1 0.70375514E-01 0.14520137E+04</pdfrwt>
<totfact> 0.22964070E+01</totfact>
</mgrwt>
</event>
<event>
12    1  0.1549527E-007  0.2659858E+04  0.7818608E-02  0.8348148E-01
         -2   -1    0    0    0  501 -0.00000000000E+00  0.00000000000E+00  0.58301652601E+03  0.58301652601E+03  0.00000000000E+00 0.  1.
          2   -1    0    0  501    0  0.00000000000E+00 -0.00000000000E+00 -0.30337244352E+04  0.30337244352E+04  0.00000000000E+00 0. -1.
         23    2    1    2    0    0  0.18610766193E+03  0.47034893532E+03 -0.25205023557E+04  0.25721844657E+04  0.85654057731E+02 0.  0.
        254    2    1    2    0    0 -0.18610766193E+03 -0.47034893532E+03  0.69794446527E+02  0.10445564955E+04  0.91124246212E+03 0.  0.
        -24    2    4    4    0    0  0.35868256782E+03 -0.10877296529E+03  0.37816983452E+02  0.38498936519E+03  0.79384788437E+02 0.  0.
         24    2    4    4    0    0 -0.54479022975E+03 -0.36157597003E+03  0.31977463075E+02  0.65956713033E+03  0.80452872689E+02 0.  0.
         13    1    3    3    0    0  0.13525552506E+02  0.17498949754E+01 -0.71075671816E+02  0.72372327772E+02  0.00000000000E+00 0.  1.
        -13    1    3    3    0    0  0.17258210942E+03  0.46859904035E+03 -0.24494266839E+04  0.24998121379E+04  0.00000000000E+00 0. -1.
          2    1    6    6  502    0 -0.12524529501E+03 -0.57669656227E+02 -0.18248357311E+02  0.13908693582E+03  0.00000000000E+00 0. -1.
          1    1    5    5  503    0  0.32002458808E+02  0.23458607305E+00 -0.17045475950E+02  0.36259628387E+02  0.00000000000E+00 0. -1.
         -2    1    5    5    0  503  0.32668010901E+03 -0.10900755136E+03  0.54862459402E+02  0.34872973680E+03  0.00000000000E+00 0.  1.
         -1    1    6    6    0  502 -0.41954493474E+03 -0.30390631381E+03  0.50225820386E+02  0.52048019450E+03  0.00000000000E+00 0.  1.
<mgrwt>
<rscale>  0 0.26598583E+04</rscale>
<asrwt>0</asrwt>
<pdfrwt beam="1">  1        2 0.46672683E+00 0.26598583E+04</pdfrwt>
<pdfrwt beam="2">  1       -2 0.89694850E-01 0.26598583E+04</pdfrwt>
<totfact> 0.15542106E+00</totfact>
</mgrwt>
</event>
<event>
12    1  0.1549527E-007  0.1187211E+04  0.7818608E-02  0.9124125E-01
          1   -1    0    0  501    0  0.00000000000E+00  0.00000000000E+00  0.11110302736E+04  0.11110302736E+04  0.00000000000E+00 0. -1.
         -1   -1    0    0    0  501 -0.00000000000E+00 -0.00000000000E+00 -0.31715387852E+03  0.31715387852E+03  0.00000000000E+00 0.  1.
         23    2    1    2    0    0  0.19081173791E+03 -0.16846910026E+02  0.50310324384E+03  0.54624112134E+03  0.92593471569E+02 0.  0.
        254    2    1    2    0    0 -0.19081173791E+03  0.16846910026E+02  0.29077315121E+03  0.88194303074E+03  0.81029719628E+03 0.  0.
        -24    2    4    4    0    0 -0.49125865411E+03 -0.80972177547E+02  0.20099016454E+03  0.54360868549E+03  0.84981162170E+02 0.  0.
         24    2    4    4    0    0  0.30044691620E+03  0.97819087573E+02  0.89782986666E+02  0.33833434525E+03  0.81069236646E+02 0.  0.
         11    1    3    3    0    0  0.11947595051E+03 -0.36948233343E+01  0.18713443585E+03  0.22205281253E+03  0.00000000000E+00 0. -1.
        -11    1    3    3    0    0  0.71335787400E+02 -0.13152086692E+02  0.31596880799E+03  0.32418830881E+03  0.00000000000E+00 0.  1.
          2    1    6    6  502    0  0.28628210125E+03  0.90178678402E+02  0.62392563125E+02  0.30656560060E+03  0.00000000000E+00 0. -1.
          3    1    5    5  503    0 -0.36105249283E+03 -0.20888992811E+02  0.14120415848E+03  0.38824459683E+03  0.00000000000E+00 0. -1.
         -2    1    5    5    0  503 -0.13020616129E+03 -0.60083184735E+02  0.59786006056E+02  0.15536408866E+03  0.00000000000E+00 0.  1.
         -1    1    6    6    0  502  0.14164814948E+02  0.76404091709E+01  0.27390423542E+02  0.31768744649E+02  0.00000000000E+00 0.  1.
<mgrwt>
<rscale>  0 0.11872111E+04</rscale>
<asrwt>0</asrwt>
<pdfrwt beam="1">  1        1 0.17092773E+00 0.11872111E+04</pdfrwt>
<pdfrwt beam="2">  1       -1 0.48792905E-01 0.11872111E+04</pdfrwt>
<totfact> 0.51794890E+01</totfact>
</mgrwt>
</event>
<event>
12    1  0.1549527E-007  0.1795910E+04  0.7818608E-02  0.8708477E-01
          1   -1    0    0  501    0  0.00000000000E+00  0.00000000000E+00  0.17995999724E+04  0.17995999724E+04  0.00000000000E+00 0. -1.
         -1   -1    0    0    0  501 -0.00000000000E+00 -0.00000000000E+00 -0.44805709564E+03  0.44805709564E+03  0.00000000000E+00 0.  1.
         23    2    1    2    0    0 -0.39511224205E+03  0.53941117566E+03  0.51832395020E+03  0.85092032171E+03  0.91255554900E+02 0.  0.
        254    2    1    2    0    0  0.39511224205E+03 -0.53941117566E+03  0.83321892657E+03  0.13967367464E+04  0.89974532996E+03 0.  0.
        -24    2    4    4    0    0  0.58874878089E+03 -0.17303840992E+03  0.73845706253E+03  0.96364370000E+03  0.81993469533E+02 0.  0.
         24    2    4    4    0    0 -0.19363653884E+03 -0.36637276574E+03  0.94761864040E+02  0.43309304635E+03  0.82859298041E+02 0.  0.
         11    1    3    3    0    0 -0.30084269503E+03  0.37980545296E+03  0.41932160408E+03  0.64077228163E+03  0.00000000000E+00 0. -1.
        -11    1    3    3    0    0 -0.94269547014E+02  0.15960572269E+03  0.99002346125E+02  0.21014804008E+03  0.00000000000E+00 0.  1.
          2    1    6    6  502    0 -0.72193967382E+02 -0.80702409811E+02 -0.86527887494E+00  0.10828479387E+03  0.00000000000E+00 0. -1.
          3    1    5    5  503    0  0.58055109517E+02 -0.40289741321E+02  0.10639834226E+03  0.12772731201E+03  0.00000000000E+00 0. -1.
         -4    1    5    5    0  503  0.53069367137E+03 -0.13274866859E+03  0.63205872027E+03  0.83591638800E+03  0.00000000000E+00 0.  1.
         -1    1    6    6    0  502 -0.12144257146E+03 -0.28567035593E+03  0.95627142915E+02  0.32480825248E+03  0.00000000000E+00 0.  1.
<mgrwt>
<rscale>  0 0.17959104E+04</rscale>
<asrwt>0</asrwt>
<pdfrwt beam="1">  1        1 0.27686153E+00 0.17959104E+04</pdfrwt>
<pdfrwt beam="2">  1       -1 0.68931862E-01 0.17959104E+04</pdfrwt>
<totfact> 0.81937787E+00</totfact>
</mgrwt>
</event>
<event>
12    1  0.1549527E-007  0.1573794E+04  0.7818608E-02  0.8836811E-01
          4   -1    0    0  501    0  0.00000000000E+00  0.00000000000E+00  0.23266572033E+03  0.23266572033E+03  0.00000000000E+00 0. -1.
         -4   -1    0    0    0  501 -0.00000000000E+00 -0.00000000000E+00 -0.26613589533E+04  0.26613589533E+04  0.00000000000E+00 0.  1.
         23    2    1    2    0    0 -0.89915642739E+02 -0.41453836060E+03 -0.13969093955E+04  0.14627571309E+04  0.91518793903E+02 0.  0.
        254    2    1    2    0    0  0.89915642739E+02  0.41453836060E+03 -0.10317838375E+04  0.14312675427E+04  0.89667274761E+03 0.  0.
        -24    2    4    4    0    0 -0.33399000179E+03  0.43417911194E+03 -0.49725391033E+03  0.74412887898E+03  0.80034459087E+02 0.  0.
         24    2    4    4    0    0  0.42390564453E+03 -0.19640751339E+02 -0.53452992712E+03  0.68713866371E+03  0.79721675863E+02 0.  0.
         11    1    3    3    0    0 -0.79141134051E+02 -0.37884119169E+03 -0.13395926039E+04  0.13943788266E+04  0.00000000000E+00 0.  1.
        -11    1    3    3    0    0 -0.10774508688E+02 -0.35697168907E+02 -0.57316791615E+02  0.68378304355E+02  0.00000000000E+00 0. -1.
          2    1    6    6  502    0  0.31705260288E+03  0.48449715258E+01 -0.34812844815E+03  0.47089196548E+03  0.00000000000E+00 0. -1.
          3    1    5    5  503    0 -0.18147529629E+03  0.17074804237E+03 -0.22723543292E+03  0.33723006852E+03  0.00000000000E+00 0. -1.
         -4    1    5    5    0  503 -0.15251470550E+03  0.26343106957E+03 -0.27001847742E+03  0.40689881046E+03  0.00000000000E+00 0.  1.
         -1    1    6    6    0  502  0.10685304165E+03 -0.24485722865E+02 -0.18640147897E+03  0.21624669823E+03  0.00000000000E+00 0.  1.
<mgrwt>
<rscale>  0 0.15737941E+04</rscale>
<asrwt>0</asrwt>
<pdfrwt beam="1">  1        4 0.35794725E-01 0.15737941E+04</pdfrwt>
<pdfrwt beam="2">  1       -4 0.40943986E+00 0.15737941E+04</pdfrwt>
<totfact> 0.86918273E-02</totfact>
</mgrwt>
</event>
<event>
12    1  0.1549527E-007  0.1709071E+04  0.7818608E-02  0.8756208E-01
         -1   -1    0    0    0  501 -0.00000000000E+00  0.00000000000E+00  0.87989209914E+03  0.87989209914E+03  0.00000000000E+00 0.  1.
          1   -1    0    0  501    0  0.00000000000E+00 -0.00000000000E+00 -0.82990984005E+03  0.82990984005E+03  0.00000000000E+00 0. -1.
         23    2    1    2    0    0 -0.13317169266E+03  0.46880687321E+03 -0.36042506842E+03  0.61426272801E+03  0.99488114762E+02 0.  0.
        254    2    1    2    0    0  0.13317169266E+03 -0.46880687321E+03  0.41040732751E+03  0.10955392112E+04  0.89121120092E+03 0.  0.
        -24    2    4    4    0    0  0.22539928172E+03  0.66933128566E+02  0.48126197578E+03  0.54117427522E+03  0.77276302550E+02 0.  0.
         24    2    4    4    0    0 -0.92227589057E+02 -0.53574000178E+03 -0.70854648270E+02  0.55436493595E+03  0.82321463426E+02 0.  0.
         11    1    3    3    0    0 -0.70957476879E+02  0.28941845948E+03 -0.16018438051E+03  0.33831500701E+03  0.00000000000E+00 0. -1.
        -11    1    3    3    0    0 -0.62214215782E+02  0.17938841373E+03 -0.20024068791E+03  0.27594772100E+03  0.00000000000E+00 0.  1.
          2    1    6    6  502    0 -0.63171113469E+02 -0.39992378930E+03 -0.88255604569E+02  0.41438952516E+03  0.00000000000E+00 0. -1.
          3    1    5    5  503    0  0.28117542702E+02  0.16302410195E+02  0.14026186564E+03  0.14397831690E+03  0.00000000000E+00 0. -1.
         -4    1    5    5    0  503  0.19728173902E+03  0.50630718371E+02  0.34100011014E+03  0.39719595832E+03  0.00000000000E+00 0.  1.
         -1    1    6    6    0  502 -0.29056475588E+02 -0.13581621247E+03  0.17400956299E+02  0.13997541079E+03  0.00000000000E+00 0.  1.
<mgrwt>
<rscale>  0 0.17090712E+04</rscale>
<asrwt>0</asrwt>
<pdfrwt beam="1">  1        1 0.12767844E+00 0.17090712E+04</pdfrwt>
<pdfrwt beam="2">  1       -1 0.13536801E+00 0.17090712E+04</pdfrwt>
<totfact> 0.90624580E+00</totfact>
</mgrwt>
</event>
<event>
12    1  0.1549527E-007  0.1826824E+04  0.7818608E-02  0.8692163E-01
          1   -1    0    0  501    0  0.00000000000E+00  0.00000000000E+00  0.13382307111E+04  0.13382307111E+04  0.00000000000E+00 0. -1.
         -1   -1    0    0    0  501 -0.00000000000E+00 -0.00000000000E+00 -0.62345112725E+03  0.62345112725E+03  0.00000000000E+00 0.  1.
         23    2    1    2    0    0 -0.62916304693E+03  0.25213222386E+03  0.12379880745E+03  0.69477060414E+03  0.89237042321E+02 0.  0.
        254    2    1    2    0    0  0.62916304693E+03 -0.25213222386E+03  0.59098077643E+03  0.12669112342E+04  0.89240629726E+03 0.  0.
        -24    2    4    4    0    0  0.38695078434E+03 -0.42300717098E+03  0.72835941256E+03  0.93043855993E+03  0.80885744909E+02 0.  0.
         24    2    4    4    0    0  0.24221226259E+03  0.17087494713E+03 -0.13737863613E+03  0.33647267430E+03  0.80473245146E+02 0.  0.
         13    1    3    3    0    0 -0.76246133544E+02  0.64057016106E+02  0.15374517578E+02  0.10076284029E+03  0.00000000000E+00 0. -1.
        -13    1    3    3    0    0 -0.55291691338E+03  0.18807520775E+03  0.10842428987E+03  0.59400776385E+03  0.00000000000E+00 0.  1.
          4    1    6    6  502    0  0.19824929799E+03  0.11974801819E+03 -0.71973379870E+02  0.24253358411E+03  0.00000000000E+00 0. -1.
          1    1    5    5  503    0  0.34634068754E+03 -0.36314572585E+03  0.67222604408E+03  0.83887695425E+03  0.00000000000E+00 0. -1.
         -2    1    5    5    0  503  0.40610096805E+02 -0.59861445135E+02  0.56133368487E+02  0.91561605676E+02  0.00000000000E+00 0.  1.
         -3    1    6    6    0  502  0.43962964599E+02  0.51126928936E+02 -0.65405256264E+02  0.93939090189E+02  0.00000000000E+00 0.  1.
<mgrwt>
<rscale>  0 0.18268240E+04</rscale>
<asrwt>0</asrwt>
<pdfrwt beam="1">  1        1 0.20588165E+00 0.18268240E+04</pdfrwt>
<pdfrwt beam="2">  1       -1 0.95915558E-01 0.18268240E+04</pdfrwt>
<totfact> 0.83810328E+00</totfact>
</mgrwt>
</event>
<event>
12    1  0.1549527E-007  0.1220985E+04  0.7818608E-02  0.9094685E-01
         -1   -1    0    0    0  501 -0.00000000000E+00  0.00000000000E+00  0.97900036999E+03  0.97900036999E+03  0.00000000000E+00 0.  1.
          1   -1    0    0  501    0  0.00000000000E+00 -0.00000000000E+00 -0.38069525625E+03  0.38069525625E+03  0.00000000000E+00 0. -1.
         23    2    1    2    0    0 -0.25935363845E+03  0.68075406680E+02  0.26301179781E+03  0.38627724296E+03  0.90201617871E+02 0.  0.
        254    2    1    2    0    0  0.25935363845E+03 -0.68075406680E+02  0.33529331594E+03  0.97341838328E+03  0.87362644788E+03 0.  0.
        -24    2    4    4    0    0 -0.10060794202E+03 -0.39286726259E+03  0.86423412281E+02  0.42247868398E+03  0.80948058749E+02 0.  0.
         24    2    4    4    0    0  0.35996158047E+03  0.32479185591E+03  0.24886990366E+03  0.55093969930E+03  0.80846980439E+02 0.  0.
         13    1    3    3    0    0 -0.58873183229E+02 -0.12830058996E+02  0.94915573202E+02  0.11242610086E+03  0.00000000000E+00 0. -1.
        -13    1    3    3    0    0 -0.20048045523E+03  0.80905465677E+02  0.16809622461E+03  0.27385114210E+03  0.00000000000E+00 0.  1.
          4    1    6    6  502    0  0.32390355635E+03  0.31773363754E+03  0.22021136763E+03  0.50434236851E+03  0.00000000000E+00 0. -1.
          3    1    5    5  503    0 -0.88655647215E+02 -0.27790056695E+03  0.28208772876E+02  0.29306020501E+03  0.00000000000E+00 0. -1.
         -4    1    5    5    0  503 -0.11952294800E+02 -0.11496669564E+03  0.58214639404E+02  0.12941847897E+03  0.00000000000E+00 0.  1.
         -1    1    6    6    0  502  0.36058024117E+02  0.70582183656E+01  0.28658536030E+02  0.46597330793E+02  0.00000000000E+00 0.  1.
<mgrwt>
<rscale>  0 0.12209845E+04</rscale>
<asrwt>0</asrwt>
<pdfrwt beam="1">  1        1 0.58568501E-01 0.12209845E+04</pdfrwt>
<pdfrwt beam="2">  1       -1 0.15061544E+00 0.12209845E+04</pdfrwt>
<totfact> 0.21853057E+01</totfact>
</mgrwt>
</event>
<event>
12    1  0.1549527E-007  0.2796436E+04  0.7818608E-02  0.8304376E-01
          2   -1    0    0  501    0  0.00000000000E+00  0.00000000000E+00  0.16606325471E+04  0.16606325471E+04  0.00000000000E+00 0. -1.
         -2   -1    0    0    0  501 -0.00000000000E+00 -0.00000000000E+00 -0.11772701923E+04  0.11772701923E+04  0.00000000000E+00 0.  1.
         23    2    1    2    0    0  0.81438683896E+03 -0.71669875899E+03  0.85199363181E+03  0.13825730186E+04  0.93445002209E+02 0.  0.
        254    2    1    2    0    0 -0.81438683896E+03  0.71669875899E+03 -0.36863127704E+03  0.14553297208E+04  0.89733636007E+03 0.  0.
        -24    2    4    4    0    0 -0.83242811687E+03  0.16854732869E+03 -0.20509984749E+03  0.87731118710E+03  0.79146698106E+02 0.  0.
         24    2    4    4    0    0  0.18041277905E+02  0.54815143029E+03 -0.16353142955E+03  0.57801853365E+03  0.81039611001E+02 0.  0.
         13    1    3    3    0    0  0.56962283173E+03 -0.44481356393E+03  0.55008296532E+03  0.90825136708E+03  0.00000000000E+00 0. -1.
        -13    1    3    3    0    0  0.24476400723E+03 -0.27188519506E+03  0.30191066649E+03  0.47432165149E+03  0.00000000000E+00 0.  1.
          2    1    6    6  502    0 -0.21285776288E+02  0.46485717452E+02 -0.17777336956E+02  0.54129843049E+02  0.00000000000E+00 0. -1.
          3    1    5    5  503    0 -0.57617151381E+01  0.55147323076E+01 -0.93365052295E+01  0.12279249312E+02  0.00000000000E+00 0. -1.
         -4    1    5    5    0  503 -0.82666640173E+03  0.16303259638E+03 -0.19576334226E+03  0.86503193779E+03  0.00000000000E+00 0.  1.
         -1    1    6    6    0  502  0.39327054193E+02  0.50166571284E+03 -0.14575409259E+03  0.52388869060E+03  0.00000000000E+00 0.  1.
<mgrwt>
<rscale>  0 0.27964357E+04</rscale>
<asrwt>0</asrwt>
<pdfrwt beam="1">  1        2 0.25548193E+00 0.27964357E+04</pdfrwt>
<pdfrwt beam="2">  1       -2 0.18111849E+00 0.27964357E+04</pdfrwt>
<totfact> 0.15995557E+00</totfact>
</mgrwt>
</event>
<event>
12    1  0.1549527E-007  0.4431266E+04  0.7818608E-02  0.7922782E-01
          1   -1    0    0  501    0  0.00000000000E+00  0.00000000000E+00  0.16997395787E+04  0.16997395787E+04  0.00000000000E+00 0. -1.
         -1   -1    0    0    0  501 -0.00000000000E+00 -0.00000000000E+00 -0.28881064643E+04  0.28881064643E+04  0.00000000000E+00 0.  1.
         23    2    1    2    0    0  0.12586995009E+04  0.89645965390E+03  0.93746122682E+03  0.18096656028E+04  0.89953864368E+02 0.  0.
        254    2    1    2    0    0 -0.12586995009E+04 -0.89645965390E+03 -0.21258281124E+04  0.27781804402E+04  0.90065367950E+03 0.  0.
        -24    2    4    4    0    0 -0.12743878643E+04 -0.51567209312E+03 -0.14616936612E+04  0.20081898689E+04  0.79347677709E+02 0.  0.
         24    2    4    4    0    0  0.15688363371E+02 -0.38078756077E+03 -0.66413445121E+03  0.76999057138E+03  0.81028510738E+02 0.  0.
         13    1    3    3    0    0  0.80549525622E+03  0.53385116377E+03  0.61947844755E+03  0.11478559229E+04  0.00000000000E+00 0. -1.
        -13    1    3    3    0    0  0.45320424468E+03  0.36260849013E+03  0.31798277927E+03  0.66180967991E+03  0.00000000000E+00 0.  1.
          4    1    6    6  502    0 -0.28916520766E+02 -0.72916609071E+02 -0.12675227207E+03  0.14906084505E+03  0.00000000000E+00 0. -1.
          3    1    5    5  503    0 -0.35515378060E+03 -0.10598607959E+03 -0.39898619918E+03  0.54457069704E+03  0.00000000000E+00 0. -1.
         -4    1    5    5    0  503 -0.91923408367E+03 -0.40968601354E+03 -0.10627074620E+04  0.14636191718E+04  0.00000000000E+00 0.  1.
         -3    1    6    6    0  502  0.44604884137E+02 -0.30787095170E+03 -0.53738217913E+03  0.62092972633E+03  0.00000000000E+00 0.  1.
<mgrwt>
<rscale>  0 0.44312657E+04</rscale>
<asrwt>0</asrwt>
<pdfrwt beam="1">  1        1 0.26149840E+00 0.44312657E+04</pdfrwt>
<pdfrwt beam="2">  1       -1 0.44432407E+00 0.44312657E+04</pdfrwt>
<totfact> 0.12765978E-02</totfact>
</mgrwt>
</event>
<event>
12    1  0.1549527E-007  0.1781390E+04  0.7818608E-02  0.8716259E-01
          2   -1    0    0  501    0  0.00000000000E+00  0.00000000000E+00  0.95109908197E+03  0.95109908197E+03  0.00000000000E+00 0. -1.
         -2   -1    0    0    0  501 -0.00000000000E+00 -0.00000000000E+00 -0.83412707703E+03  0.83412707703E+03  0.00000000000E+00 0.  1.
         23    2    1    2    0    0  0.35026629000E+03  0.53643539567E+03  0.94532931919E+02  0.65400369689E+03  0.91295962052E+02 0.  0.
        254    2    1    2    0    0 -0.35026629000E+03 -0.53643539567E+03  0.22439073021E+02  0.11312224621E+04  0.93204685459E+03 0.  0.
        -24    2    4    4    0    0 -0.40540135825E+03 -0.52794493046E+03  0.37265847436E+03  0.76645477151E+03  0.74178618124E+02 0.  0.
         24    2    4    4    0    0  0.55135068250E+02 -0.84904652133E+01 -0.35021940134E+03  0.36476769061E+03  0.85380766497E+02 0.  0.
         11    1    3    3    0    0  0.27598651328E+03  0.47609947530E+03  0.66664906166E+02  0.55433155747E+03  0.00000000000E+00 0. -1.
        -11    1    3    3    0    0  0.74279776722E+02  0.60335920369E+02  0.27868025753E+02  0.99672139417E+02  0.00000000000E+00 0.  1.
          2    1    6    6  502    0  0.36356127826E+02  0.14735241289E+02 -0.52415080205E+02  0.65469351602E+02  0.00000000000E+00 0. -1.
          3    1    5    5  503    0 -0.92488734600E+02 -0.12841904469E+03  0.53971604261E+02  0.16720810726E+03  0.00000000000E+00 0. -1.
         -4    1    5    5    0  503 -0.31291262365E+03 -0.39952588577E+03  0.31868687010E+03  0.59924666425E+03  0.00000000000E+00 0.  1.
         -1    1    6    6    0  502  0.18778940424E+02 -0.23225706502E+02 -0.29780432113E+03  0.29929833901E+03  0.00000000000E+00 0.  1.
<mgrwt>
<rscale>  0 0.17813899E+04</rscale>
<asrwt>0</asrwt>
<pdfrwt beam="1">  1        2 0.14632294E+00 0.17813899E+04</pdfrwt>
<pdfrwt beam="2">  1       -2 0.12832724E+00 0.17813899E+04</pdfrwt>
<totfact> 0.11500200E+01</totfact>
</mgrwt>
</event>
<event>
12    1  0.1549527E-007  0.1325535E+04  0.7818608E-02  0.9009557E-01
         -2   -1    0    0    0  501 -0.00000000000E+00  0.00000000000E+00  0.59344983471E+03  0.59344983471E+03  0.00000000000E+00 0.  1.
          2   -1    0    0  501    0  0.00000000000E+00 -0.00000000000E+00 -0.74018168359E+03  0.74018168359E+03  0.00000000000E+00 0. -1.
         23    2    1    2    0    0 -0.16526407701E+03 -0.22687141994E+03 -0.25144382929E+03  0.38770954527E+03  0.91169270408E+02 0.  0.
        254    2    1    2    0    0  0.16526407701E+03  0.22687141994E+03  0.10471198041E+03  0.94592197304E+03  0.89722958260E+03 0.  0.
        -24    2    4    4    0    0  0.45183884040E+03 -0.73232801956E+01  0.26924061809E+03  0.53180319256E+03  0.78180285581E+02 0.  0.
         24    2    4    4    0    0 -0.28657476339E+03  0.23419470014E+03 -0.16452863768E+03  0.41411878048E+03  0.86327510956E+02 0.  0.
         11    1    3    3    0    0 -0.17042842426E+03 -0.19521885980E+03 -0.20111005206E+03  0.32802668193E+03  0.00000000000E+00 0. -1.
        -11    1    3    3    0    0  0.51643472473E+01 -0.31652560142E+02 -0.50333777236E+02  0.59682863343E+02  0.00000000000E+00 0.  1.
          4    1    6    6  502    0 -0.24611920146E+03  0.23376147337E+03 -0.14355119855E+03  0.36854583753E+03  0.00000000000E+00 0. -1.
          1    1    5    5  503    0  0.85876822563E+02 -0.31452008885E+02  0.45006860571E+02  0.10192975530E+03  0.00000000000E+00 0. -1.
         -2    1    5    5    0  503  0.36596201784E+03  0.24128728689E+02  0.22423375752E+03  0.42987343726E+03  0.00000000000E+00 0.  1.
         -3    1    6    6    0  502 -0.40455561928E+02  0.43322676650E+00 -0.20977439131E+02  0.45572942947E+02  0.00000000000E+00 0.  1.
<mgrwt>
<rscale>  0 0.13255349E+04</rscale>
<asrwt>0</asrwt>
<pdfrwt beam="1">  1        2 0.11387411E+00 0.13255349E+04</pdfrwt>
<pdfrwt beam="2">  1       -2 0.91299974E-01 0.13255349E+04</pdfrwt>
<totfact> 0.38170802E+01</totfact>
</mgrwt>
</event>
<event>
12    1  0.1549527E-007  0.1728990E+04  0.7818608E-02  0.8745001E-01
         -1   -1    0    0    0  501 -0.00000000000E+00  0.00000000000E+00  0.19306102928E+04  0.19306102928E+04  0.00000000000E+00 0.  1.
          1   -1    0    0  501    0  0.00000000000E+00 -0.00000000000E+00 -0.38710635472E+03  0.38710635472E+03  0.00000000000E+00 0. -1.
         23    2    1    2    0    0  0.63014978328E+02 -0.61170829925E+03  0.72140006834E+03  0.95241727162E+03  0.92318307009E+02 0.  0.
        254    2    1    2    0    0 -0.63014978328E+02  0.61170829925E+03  0.82210386969E+03  0.13652993759E+04  0.90001649000E+03 0.  0.
        -24    2    4    4    0    0  0.30566643554E+03 -0.13251972235E+02  0.84263965468E+02  0.32731733818E+03  0.80178796500E+02 0.  0.
         24    2    4    4    0    0 -0.36868141387E+03  0.62496027149E+03  0.73783990423E+03  0.10379820377E+04  0.80608066567E+02 0.  0.
         13    1    3    3    0    0 -0.73030458171E+01 -0.35475003339E+01  0.18992886268E+02  0.20655482701E+02  0.00000000000E+00 0. -1.
        -13    1    3    3    0    0  0.70318024145E+02 -0.60816079892E+03  0.70240718207E+03  0.93176178892E+03  0.00000000000E+00 0.  1.
          4    1    6    6  502    0 -0.29611470933E+03  0.54337946980E+03  0.65360494157E+03  0.90008032359E+03  0.00000000000E+00 0. -1.
          1    1    5    5  503    0  0.30237337991E+03 -0.19509282481E+01  0.73091167475E+02  0.31108806753E+03  0.00000000000E+00 0. -1.
         -2    1    5    5    0  503  0.32930556338E+01 -0.11301043987E+02  0.11172797992E+02  0.16229270642E+02  0.00000000000E+00 0.  1.
         -1    1    6    6    0  502 -0.72566704543E+02  0.81580801689E+02  0.84234962658E+02  0.13790171408E+03  0.00000000000E+00 0.  1.
<mgrwt>
<rscale>  0 0.17289899E+04</rscale>
<asrwt>0</asrwt>
<pdfrwt beam="1">  1        1 0.59554825E-01 0.17289899E+04</pdfrwt>
<pdfrwt beam="2">  1       -1 0.29701696E+00 0.17289899E+04</pdfrwt>
<totfact> 0.20570715E+00</totfact>
</mgrwt>
</event>
<event>
12    1  0.1549527E-007  0.1681144E+04  0.7818608E-02  0.8772193E-01
          1   -1    0    0  501    0  0.00000000000E+00  0.00000000000E+00  0.20779359270E+04  0.20779359270E+04  0.00000000000E+00 0. -1.
         -1   -1    0    0    0  501 -0.00000000000E+00 -0.00000000000E+00 -0.34003016944E+03  0.34003016944E+03  0.00000000000E+00 0.  1.
         23    2    1    2    0    0 -0.23071619188E+03  0.50856974301E+03  0.88184499135E+03  0.10477016584E+04  0.90305213422E+02 0.  0.
        254    2    1    2    0    0  0.23071619188E+03 -0.50856974301E+03  0.85606076618E+03  0.13702644380E+04  0.91263982488E+03 0.  0.
        -24    2    4    4    0    0 -0.93741698118E+02  0.15577850943E+03 -0.41647383089E+02  0.20441988135E+03  0.83657237615E+02 0.  0.
         24    2    4    4    0    0  0.32445789000E+03 -0.66434825245E+03  0.89770814927E+03  0.11658445567E+04  0.81744027948E+02 0.  0.
         13    1    3    3    0    0 -0.17516518696E+03  0.42528934770E+03  0.66158634048E+03  0.80576073242E+03  0.00000000000E+00 0. -1.
        -13    1    3    3    0    0 -0.55551004920E+02  0.83280395311E+02  0.22025865086E+03  0.24194092600E+03  0.00000000000E+00 0.  1.
          2    1    6    6  502    0  0.31205856286E+03 -0.58106589746E+03  0.80177871036E+03  0.10382038452E+04  0.00000000000E+00 0. -1.
          1    1    5    5  503    0  0.13941363530E+02  0.38256910015E+02 -0.73480187482E+01  0.41375671118E+02  0.00000000000E+00 0. -1.
         -2    1    5    5    0  503 -0.10768306165E+03  0.11752159942E+03 -0.34299364340E+02  0.16304421023E+03  0.00000000000E+00 0.  1.
         -1    1    6    6    0  502  0.12399327133E+02 -0.83282354981E+02  0.95929438904E+02  0.12764071142E+03  0.00000000000E+00 0.  1.
<mgrwt>
<rscale>  0 0.16811435E+04</rscale>
<asrwt>0</asrwt>
<pdfrwt beam="1">  1        1 0.31968244E+00 0.16811435E+04</pdfrwt>
<pdfrwt beam="2">  1       -1 0.52312335E-01 0.16811435E+04</pdfrwt>
<totfact> 0.92591289E+00</totfact>
</mgrwt>
</event>
<event>
12    1  0.1549527E-007  0.1571267E+04  0.7818608E-02  0.8838397E-01
          1   -1    0    0  501    0  0.00000000000E+00  0.00000000000E+00  0.73091355741E+03  0.73091355741E+03  0.00000000000E+00 0. -1.
         -1   -1    0    0    0  501 -0.00000000000E+00 -0.00000000000E+00 -0.84444999027E+03  0.84444999027E+03  0.00000000000E+00 0.  1.
         23    2    1    2    0    0 -0.30314320479E+03 -0.37668280887E+03  0.15097793239E+03  0.51464779554E+03  0.91007012265E+02 0.  0.
        254    2    1    2    0    0  0.30314320479E+03  0.37668280887E+03 -0.26451436525E+03  0.10607157521E+04  0.90629151837E+03 0.  0.
        -24    2    4    4    0    0  0.18171421532E+03 -0.25996672742E+03 -0.24298491352E+03  0.40667925895E+03  0.75786516211E+02 0.  0.
         24    2    4    4    0    0  0.12142898947E+03  0.63664953629E+03 -0.21529451722E+02  0.65403649318E+03  0.85044609347E+02 0.  0.
         11    1    3    3    0    0 -0.29840312434E+03 -0.35070081037E+03  0.15882754471E+03  0.48709513646E+03  0.00000000000E+00 0. -1.
        -11    1    3    3    0    0 -0.47400804547E+01 -0.25981998504E+02 -0.78496123220E+01  0.27552659084E+02  0.00000000000E+00 0.  1.
          4    1    6    6  502    0  0.61330391150E+02  0.17805912435E+03 -0.33935397419E+02  0.19135851128E+03  0.00000000000E+00 0. -1.
          1    1    5    5  503    0  0.44040301893E+02 -0.12455059232E+03 -0.84080659466E+02  0.15659487710E+03  0.00000000000E+00 0. -1.
         -2    1    5    5    0  503  0.13767391343E+03 -0.13541613510E+03 -0.15890425406E+03  0.25008438185E+03  0.00000000000E+00 0.  1.
         -3    1    6    6    0  502  0.60098598317E+02  0.45859041194E+03  0.12405945697E+02  0.46267798190E+03  0.00000000000E+00 0.  1.
<mgrwt>
<rscale>  0 0.15712669E+04</rscale>
<asrwt>0</asrwt>
<pdfrwt beam="1">  1        1 0.11244824E+00 0.15712669E+04</pdfrwt>
<pdfrwt beam="2">  1       -1 0.12991538E+00 0.15712669E+04</pdfrwt>
<totfact> 0.12458816E+01</totfact>
</mgrwt>
</event>
<event>
12    1  0.1549527E-007  0.1410316E+04  0.7818608E-02  0.8946385E-01
          2   -1    0    0  501    0  0.00000000000E+00  0.00000000000E+00  0.15512448362E+04  0.15512448362E+04  0.00000000000E+00 0. -1.
         -2   -1    0    0    0  501 -0.00000000000E+00 -0.00000000000E+00 -0.32054764578E+03  0.32054764578E+03  0.00000000000E+00 0.  1.
         23    2    1    2    0    0  0.15944644989E+03 -0.54989965200E+02  0.85301397369E+03  0.87441243002E+03  0.92288633086E+02 0.  0.
        254    2    1    2    0    0 -0.15944644989E+03  0.54989965200E+02  0.37768321678E+03  0.99738005201E+03  0.90756558400E+03 0.  0.
        -24    2    4    4    0    0  0.33245865638E+03  0.81771142400E+02 -0.30516098474E+02  0.35271111264E+03  0.79111432673E+02 0.  0.
         24    2    4    4    0    0 -0.49190510627E+03 -0.26781177200E+02  0.40819931525E+03  0.64466893937E+03  0.79268501889E+02 0.  0.
         13    1    3    3    0    0  0.13411483357E+03 -0.54404874756E+02  0.50095471273E+03  0.52144252146E+03  0.00000000000E+00 0. -1.
        -13    1    3    3    0    0  0.25331616321E+02 -0.58509044418E+00  0.35205926096E+03  0.35296990855E+03  0.00000000000E+00 0.  1.
          4    1    6    6  502    0 -0.70411969045E+02 -0.27794593579E+02  0.43566423304E+02  0.87340815525E+02  0.00000000000E+00 0. -1.
          3    1    5    5  503    0  0.12343557151E+01 -0.80803540842E+01 -0.15244673763E+00  0.81755119819E+01  0.00000000000E+00 0. -1.
         -4    1    5    5    0  503  0.33122430067E+03  0.89851496484E+02 -0.30363651736E+02  0.34453560065E+03  0.00000000000E+00 0.  1.
         -3    1    6    6    0  502 -0.42149313723E+03  0.10134163792E+01  0.36463289195E+03  0.55732812385E+03  0.00000000000E+00 0.  1.
<mgrwt>
<rscale>  0 0.14103161E+04</rscale>
<asrwt>0</asrwt>
<pdfrwt beam="1">  1        2 0.23865305E+00 0.14103161E+04</pdfrwt>
<pdfrwt beam="2">  1       -2 0.49315023E-01 0.14103161E+04</pdfrwt>
<totfact> 0.44951212E+01</totfact>
</mgrwt>
</event>
<event>
12    1  0.1549527E-007  0.1814827E+04  0.7818608E-02  0.8698454E-01
         -2   -1    0    0    0  501 -0.00000000000E+00  0.00000000000E+00  0.66832230016E+03  0.66832230016E+03  0.00000000000E+00 0.  1.
          2   -1    0    0  501    0  0.00000000000E+00 -0.00000000000E+00 -0.12320387846E+04  0.12320387846E+04  0.00000000000E+00 0. -1.
         23    2    1    2    0    0  0.65662398623E+03  0.11366366468E+03 -0.33942861518E+03  0.75304132296E+03  0.88232427854E+02 0.  0.
        254    2    1    2    0    0 -0.65662398623E+03 -0.11366366468E+03 -0.22428786926E+03  0.11473197618E+04  0.90662180624E+03 0.  0.
        -24    2    4    4    0    0 -0.35895956493E+02 -0.19726638037E+03  0.26966309503E+03  0.34552815123E+03  0.80429931961E+02 0.  0.
         24    2    4    4    0    0 -0.62072802974E+03  0.83602715687E+02 -0.49395096429E+03  0.80179161056E+03  0.81175924228E+02 0.  0.
         13    1    3    3    0    0  0.41562370486E+03  0.52747352916E+02 -0.25527926626E+03  0.49060457709E+03  0.00000000000E+00 0. -1.
        -13    1    3    3    0    0  0.24100028137E+03  0.60916311766E+02 -0.84149348919E+02  0.26243674587E+03  0.00000000000E+00 0.  1.
          2    1    6    6  502    0 -0.58320446715E+03  0.57911152732E+02 -0.45661794445E+03  0.74295430499E+03  0.00000000000E+00 0. -1.
          3    1    5    5  503    0 -0.43643767508E+02 -0.18052569335E+03  0.19777166656E+03  0.27130782609E+03  0.00000000000E+00 0. -1.
         -4    1    5    5    0  503  0.77478110141E+01 -0.16740687022E+02  0.71891428468E+02  0.74220325146E+02  0.00000000000E+00 0.  1.
         -1    1    6    6    0  502 -0.37523562586E+02  0.25691562954E+02 -0.37333019844E+02  0.58837305571E+02  0.00000000000E+00 0.  1.
<mgrwt>
<rscale>  0 0.18148267E+04</rscale>
<asrwt>0</asrwt>
<pdfrwt beam="1">  1        2 0.18954442E+00 0.18148267E+04</pdfrwt>
<pdfrwt beam="2">  1       -2 0.10281882E+00 0.18148267E+04</pdfrwt>
<totfact> 0.13214957E+01</totfact>
</mgrwt>
</event>
<event>
12    1  0.1549527E-007  0.2561866E+04  0.7818608E-02  0.8381271E-01
         -1   -1    0    0    0  501 -0.00000000000E+00  0.00000000000E+00  0.45563737766E+03  0.45563737766E+03  0.00000000000E+00 0.  1.
          1   -1    0    0  501    0  0.00000000000E+00 -0.00000000000E+00 -0.36010863699E+04  0.36010863699E+04  0.00000000000E+00 0. -1.
         23    2    1    2    0    0 -0.98629842726E+03 -0.20297842431E+03 -0.20953060111E+04  0.23264975960E+04  0.91098602686E+02 0.  0.
        254    2    1    2    0    0  0.98629842726E+03  0.20297842431E+03 -0.10501429811E+04  0.17302261516E+04  0.93642801461E+03 0.  0.
        -24    2    4    4    0    0  0.65240281970E+03  0.50231693407E+03 -0.35758691879E+03  0.90147640336E+03  0.82701631912E+02 0.  0.
         24    2    4    4    0    0  0.33389560755E+03 -0.29933850975E+03 -0.69255606230E+03  0.82874974822E+03  0.78118023429E+02 0.  0.
         13    1    3    3    0    0 -0.54287019269E+03 -0.12651624655E+03 -0.10598415004E+04  0.11974883769E+04  0.00000000000E+00 0. -1.
        -13    1    3    3    0    0 -0.44342823457E+03 -0.76462177763E+02 -0.10354645107E+04  0.11290092191E+04  0.00000000000E+00 0.  1.
          4    1    6    6  502    0  0.31071958588E+03 -0.25905008273E+03 -0.58165459559E+03  0.70850241706E+03  0.00000000000E+00 0. -1.
          1    1    5    5  503    0  0.41721599481E+03  0.36710741194E+03 -0.25502938677E+03  0.61145484407E+03  0.00000000000E+00 0. -1.
         -4    1    5    5    0  503  0.23518682489E+03  0.13520952213E+03 -0.10255753202E+03  0.29002155929E+03  0.00000000000E+00 0.  1.
         -3    1    6    6    0  502  0.23176021675E+02 -0.40288427024E+02 -0.11090146671E+03  0.12024733116E+03  0.00000000000E+00 0.  1.
<mgrwt>
<rscale>  0 0.25618662E+04</rscale>
<asrwt>0</asrwt>
<pdfrwt beam="1">  1        1 0.55401330E+00 0.25618662E+04</pdfrwt>
<pdfrwt beam="2">  1       -1 0.70098057E-01 0.25618662E+04</pdfrwt>
<totfact> 0.37773001E-01</totfact>
</mgrwt>
</event>
<event>
12    1  0.1549527E-007  0.1890931E+04  0.7818608E-02  0.8659384E-01
         -1   -1    0    0    0  501 -0.00000000000E+00  0.00000000000E+00  0.34828254214E+03  0.34828254214E+03  0.00000000000E+00 0.  1.
          1   -1    0    0  501    0  0.00000000000E+00 -0.00000000000E+00 -0.25666100186E+04  0.25666100186E+04  0.00000000000E+00 0. -1.
         23    2    1    2    0    0 -0.59662914267E+03  0.27416416767E+03 -0.13590267192E+04  0.15121288683E+04  0.91911729639E+02 0.  0.
        254    2    1    2    0    0  0.59662914267E+03 -0.27416416767E+03 -0.85930075729E+03  0.14027636925E+04  0.89342927018E+03 0.  0.
        -24    2    4    4    0    0  0.33511193618E+03  0.30226231408E+02 -0.92397831862E+03  0.98661134558E+03  0.80326702326E+02 0.  0.
         24    2    4    4    0    0  0.26151720649E+03 -0.30439039908E+03  0.64677561326E+02  0.41615234693E+03  0.89189823262E+02 0.  0.
         11    1    3    3    0    0 -0.33974091585E+03  0.14149007213E+03 -0.85921574297E+03  0.93471654707E+03  0.00000000000E+00 0. -1.
        -11    1    3    3    0    0 -0.25688822682E+03  0.13267409555E+03 -0.49981097622E+03  0.57741232118E+03  0.00000000000E+00 0.  1.
          2    1    6    6  502    0  0.26663057082E+03 -0.28527320035E+03  0.67149977201E+02  0.39620926235E+03  0.00000000000E+00 0. -1.
          3    1    5    5  503    0  0.22386824788E+03  0.36278165055E+02 -0.71040656008E+03  0.74572822011E+03  0.00000000000E+00 0. -1.
         -4    1    5    5    0  503  0.11124368830E+03 -0.60519336470E+01 -0.21357175854E+03  0.24088312546E+03  0.00000000000E+00 0.  1.
         -1    1    6    6    0  502 -0.51133643358E+01 -0.19117198734E+02 -0.24724158746E+01  0.19943084579E+02  0.00000000000E+00 0.  1.
<mgrwt>
<rscale>  0 0.18909315E+04</rscale>
<asrwt>0</asrwt>
<pdfrwt beam="1">  1        1 0.39486309E+00 0.18909315E+04</pdfrwt>
<pdfrwt beam="2">  1       -1 0.53581929E-01 0.18909315E+04</pdfrwt>
<totfact> 0.40105977E+00</totfact>
</mgrwt>
</event>
<event>
12    1  0.1549527E-007  0.1767649E+04  0.7818608E-02  0.8723695E-01
          2   -1    0    0  501    0  0.00000000000E+00  0.00000000000E+00  0.14455043933E+04  0.14455043933E+04  0.00000000000E+00 0. -1.
         -2   -1    0    0    0  501 -0.00000000000E+00 -0.00000000000E+00 -0.54039676822E+03  0.54039676822E+03  0.00000000000E+00 0.  1.
         23    2    1    2    0    0 -0.15876937850E+03 -0.56114881535E+03  0.55301347760E+01  0.59032396636E+03  0.91411675132E+02 0.  0.
        254    2    1    2    0    0  0.15876937850E+03  0.56114881535E+03  0.89957749029E+03  0.13955771952E+04  0.89347654591E+03 0.  0.
        -24    2    4    4    0    0 -0.22729080082E+03  0.20895245231E+03  0.79455381187E+03  0.85670883963E+03  0.85510469975E+02 0.  0.
         24    2    4    4    0    0  0.38606017932E+03  0.35219636304E+03  0.10502367842E+03  0.53886835553E+03  0.79147908156E+02 0.  0.
         11    1    3    3    0    0 -0.28510968944E+02 -0.26644486124E+03  0.85503933819E+01  0.26810231006E+03  0.00000000000E+00 0. -1.
        -11    1    3    3    0    0 -0.13025840955E+03 -0.29470395410E+03 -0.30202586058E+01  0.32222165630E+03  0.00000000000E+00 0.  1.
          2    1    6    6  502    0  0.36445938356E+03  0.32688367758E+03  0.11724549532E+03  0.50341840163E+03  0.00000000000E+00 0. -1.
          1    1    5    5  503    0 -0.21559081811E+03  0.16161305794E+03  0.63307442758E+03  0.68802718857E+03  0.00000000000E+00 0. -1.
         -2    1    5    5    0  503 -0.11699982717E+02  0.47339394372E+02  0.16147938429E+03  0.16868165107E+03  0.00000000000E+00 0.  1.
         -1    1    6    6    0  502  0.21600795764E+02  0.25312685456E+02 -0.12221816900E+02  0.35449953893E+02  0.00000000000E+00 0.  1.
<mgrwt>
<rscale>  0 0.17676492E+04</rscale>
<asrwt>0</asrwt>
<pdfrwt beam="1">  1        2 0.22238529E+00 0.17676492E+04</pdfrwt>
<pdfrwt beam="2">  1       -2 0.83137965E-01 0.17676492E+04</pdfrwt>
<totfact> 0.16347854E+01</totfact>
</mgrwt>
</event>
<event>
12    1  0.1549527E-007  0.1709267E+04  0.7818608E-02  0.8756097E-01
          2   -1    0    0  501    0  0.00000000000E+00  0.00000000000E+00  0.26033026406E+04  0.26033026406E+04  0.00000000000E+00 0. -1.
         -2   -1    0    0    0  501 -0.00000000000E+00 -0.00000000000E+00 -0.28056605554E+03  0.28056605554E+03  0.00000000000E+00 0.  1.
         23    2    1    2    0    0  0.55048307076E+03  0.26840496423E+03  0.82261140851E+03  0.10304746501E+04  0.10057653290E+03 0.  0.
        254    2    1    2    0    0 -0.55048307076E+03 -0.26840496423E+03  0.15001251765E+04  0.18533940461E+04  0.89978948023E+03 0.  0.
        -24    2    4    4    0    0 -0.49592319726E+02  0.12805049893E+03 -0.57255885923E+02  0.16818864241E+03  0.78440133295E+02 0.  0.
         24    2    4    4    0    0 -0.50089075103E+03 -0.39645546316E+03  0.15573810624E+04  0.16852054037E+04  0.80081209377E+02 0.  0.
         11    1    3    3    0    0  0.29234697072E+03  0.12726645901E+03  0.50769425196E+03  0.59951393340E+03  0.00000000000E+00 0. -1.
        -11    1    3    3    0    0  0.25813610004E+03  0.14113850522E+03  0.31491715656E+03  0.43096071665E+03  0.00000000000E+00 0.  1.
          2    1    6    6  502    0 -0.28841314679E+03 -0.20844228918E+03  0.96122403388E+03  0.10249790117E+04  0.00000000000E+00 0. -1.
          3    1    5    5  503    0 -0.40294512307E+02  0.12763373490E+03 -0.71062128493E+02  0.15153825956E+03  0.00000000000E+00 0. -1.
         -4    1    5    5    0  503 -0.92978074189E+01  0.41676403308E+00  0.13806242570E+02  0.16650382847E+02  0.00000000000E+00 0.  1.
         -1    1    6    6    0  502 -0.21247760425E+03 -0.18801317398E+03  0.59615702857E+03  0.66022639193E+03  0.00000000000E+00 0.  1.
<mgrwt>
<rscale>  0 0.17092669E+04</rscale>
<asrwt>0</asrwt>
<pdfrwt beam="1">  1        2 0.40050808E+00 0.17092669E+04</pdfrwt>
<pdfrwt beam="2">  1       -2 0.43164010E-01 0.17092669E+04</pdfrwt>
<totfact> 0.14691295E+01</totfact>
</mgrwt>
</event>
<event>
12    1  0.1549527E-007  0.2220122E+04  0.7818608E-02  0.8510099E-01
          2   -1    0    0  501    0  0.00000000000E+00  0.00000000000E+00  0.63753323068E+03  0.63753323068E+03  0.00000000000E+00 0.  1.
         -2   -1    0    0    0  501 -0.00000000000E+00 -0.00000000000E+00 -0.19328168419E+04  0.19328168419E+04  0.00000000000E+00 0. -1.
         23    2    1    2    0    0  0.44147725940E+03 -0.38637409289E+03  0.28633582801E+03  0.65933946654E+03  0.92483595928E+02 0.  0.
        254    2    1    2    0    0 -0.44147725940E+03  0.38637409289E+03 -0.15816194392E+04  0.19110106060E+04  0.89791668636E+03 0.  0.
        -24    2    4    4    0    0 -0.23921472710E+03  0.33484018484E+03 -0.12573696126E+03  0.43820177870E+03  0.82881725264E+02 0.  0.
         24    2    4    4    0    0 -0.20226253230E+03  0.51533908056E+02 -0.14558824779E+04  0.14728088273E+04  0.77499526518E+02 0.  0.
         13    1    3    3    0    0  0.24950497740E+02 -0.53362964804E+02  0.44272111716E+02  0.73689573387E+02  0.00000000000E+00 0. -1.
        -13    1    3    3    0    0  0.41652676166E+03 -0.33301112809E+03  0.24206371629E+03  0.58564989316E+03  0.00000000000E+00 0.  1.
          4    1    6    6  502    0 -0.80204401584E+01  0.55279139165E+01 -0.13325123837E+02  0.16505884341E+02  0.00000000000E+00 0. -1.
          3    1    5    5  503    0 -0.36649006722E+02  0.53934903800E+02  0.10492524274E+02  0.66047078719E+02  0.00000000000E+00 0. -1.
         -4    1    5    5    0  503 -0.20256572038E+03  0.28090528104E+03 -0.13622948553E+03  0.37215469998E+03  0.00000000000E+00 0.  1.
         -3    1    6    6    0  502 -0.19424209214E+03  0.46005994140E+02 -0.14425573541E+04  0.14563029430E+04  0.00000000000E+00 0.  1.
<mgrwt>
<rscale>  0 0.22201216E+04</rscale>
<asrwt>0</asrwt>
<pdfrwt beam="1">  1        2 0.98082037E-01 0.22201216E+04</pdfrwt>
<pdfrwt beam="2">  1       -2 0.29735643E+00 0.22201216E+04</pdfrwt>
<totfact> 0.13870115E+00</totfact>
</mgrwt>
</event>
<event>
12    1  0.1549527E-007  0.1516661E+04  0.7818608E-02  0.8873449E-01
          1   -1    0    0  501    0  0.00000000000E+00  0.00000000000E+00  0.18965772109E+04  0.18965772109E+04  0.00000000000E+00 0. -1.
         -1   -1    0    0    0  501 -0.00000000000E+00 -0.00000000000E+00 -0.30321195777E+03  0.30321195777E+03  0.00000000000E+00 0.  1.
         23    2    1    2    0    0 -0.30745162437E+03  0.46692560923E+01 -0.21962090472E+02  0.32168425933E+03  0.91924566934E+02 0.  0.
        254    2    1    2    0    0  0.30745162437E+03 -0.46692560923E+01  0.16153273436E+04  0.18781049093E+04  0.90743998159E+03 0.  0.
        -24    2    4    4    0    0 -0.16801087800E+03 -0.29207012221E+03  0.34315467915E+03  0.48754799440E+03  0.80095577940E+02 0.  0.
         24    2    4    4    0    0  0.47546250237E+03  0.28740086612E+03  0.12721726645E+04  0.13905569149E+04  0.81002447225E+02 0.  0.
         13    1    3    3    0    0 -0.61372796399E+02 -0.36540043812E+02 -0.45026459414E+01  0.71568629720E+02  0.00000000000E+00 0. -1.
        -13    1    3    3    0    0 -0.24607882797E+03  0.41209299904E+02 -0.17459444530E+02  0.25011562961E+03  0.00000000000E+00 0.  1.
          2    1    6    6  502    0  0.34135945224E+03  0.20328958578E+03  0.81351400899E+03  0.90534964193E+03  0.00000000000E+00 0. -1.
          1    1    5    5  503    0 -0.11994664519E+03 -0.17447487040E+03  0.26176185381E+03  0.33667186726E+03  0.00000000000E+00 0. -1.
         -2    1    5    5    0  503 -0.48064232813E+02 -0.11759525181E+03  0.81392825338E+02  0.15087612714E+03  0.00000000000E+00 0.  1.
         -1    1    6    6    0  502  0.13410305013E+03  0.84111280338E+02  0.45865865548E+03  0.48520727301E+03  0.00000000000E+00 0.  1.
<mgrwt>
<rscale>  0 0.15166607E+04</rscale>
<asrwt>0</asrwt>
<pdfrwt beam="1">  1        1 0.29178110E+00 0.15166607E+04</pdfrwt>
<pdfrwt beam="2">  1       -1 0.46647995E-01 0.15166607E+04</pdfrwt>
<totfact> 0.15496157E+01</totfact>
</mgrwt>
</event>
<event>
12    1  0.1549527E-007  0.1408173E+04  0.7818608E-02  0.8947924E-01
         -2   -1    0    0    0  501 -0.00000000000E+00  0.00000000000E+00  0.16237164509E+03  0.16237164509E+03  0.00000000000E+00 0.  1.
          2   -1    0    0  501    0  0.00000000000E+00 -0.00000000000E+00 -0.30531054339E+04  0.30531054339E+04  0.00000000000E+00 0. -1.
         23    2    1    2    0    0  0.55635543981E+02 -0.15655824353E+03 -0.17435244626E+04  0.17537720886E+04  0.90736926099E+02 0.  0.
        254    2    1    2    0    0 -0.55635543981E+02  0.15655824353E+03 -0.11472093262E+04  0.14617049904E+04  0.89044171251E+03 0.  0.
        -24    2    4    4    0    0 -0.34980820546E+03  0.17570602907E+03 -0.16316728409E+03  0.43149601396E+03  0.79541550213E+02 0.  0.
         24    2    4    4    0    0  0.29417266148E+03 -0.19147785537E+02 -0.98404204214E+03  0.10302089764E+04  0.78023086109E+02 0.  0.
         11    1    3    3    0    0  0.64792186317E+02 -0.15525532627E+03 -0.13924665444E+04  0.14025923574E+04  0.00000000000E+00 0. -1.
        -11    1    3    3    0    0 -0.91566423357E+01 -0.13029172621E+01 -0.35105791824E+03  0.35117973126E+03  0.00000000000E+00 0.  1.
          4    1    6    6  502    0  0.28121796163E+03 -0.18452325653E+01 -0.93970963857E+03  0.98088794041E+03  0.00000000000E+00 0. -1.
          3    1    5    5  503    0 -0.19749563639E+03  0.61695214188E+02 -0.61907355904E+02  0.21597070764E+03  0.00000000000E+00 0. -1.
         -4    1    5    5    0  503 -0.15231256907E+03  0.11401081488E+03 -0.10125992818E+03  0.21552530632E+03  0.00000000000E+00 0.  1.
         -3    1    6    6    0  502  0.12954699849E+02 -0.17302552972E+02 -0.44332403571E+02  0.49321036019E+02  0.00000000000E+00 0.  1.
<mgrwt>
<rscale>  0 0.14081729E+04</rscale>
<asrwt>0</asrwt>
<pdfrwt beam="1">  1        2 0.46970846E+00 0.14081729E+04</pdfrwt>
<pdfrwt beam="2">  1       -2 0.24980257E-01 0.14081729E+04</pdfrwt>
<totfact> 0.22746882E+01</totfact>
</mgrwt>
</event>
<event>
12    1  0.1549527E-007  0.2156247E+04  0.7818608E-02  0.8536863E-01
          1   -1    0    0  501    0  0.00000000000E+00  0.00000000000E+00  0.18652897298E+04  0.18652897298E+04  0.00000000000E+00 0. -1.
         -1   -1    0    0    0  501 -0.00000000000E+00 -0.00000000000E+00 -0.62314725177E+03  0.62314725177E+03  0.00000000000E+00 0.  1.
         23    2    1    2    0    0  0.71549103097E+03 -0.18605324970E+03  0.26487642975E+01  0.74512823126E+03  0.93090482610E+02 0.  0.
        254    2    1    2    0    0 -0.71549103097E+03  0.18605324970E+03  0.12394937137E+04  0.17433087503E+04  0.97787397212E+03 0.  0.
        -24    2    4    4    0    0  0.38414504039E+02 -0.30571462208E+03  0.38392540884E+03  0.49874610136E+03  0.80074026971E+02 0.  0.
         24    2    4    4    0    0 -0.75390553501E+03  0.49176787178E+03  0.85556830485E+03  0.12445626489E+04  0.82035768734E+02 0.  0.
         11    1    3    3    0    0  0.13622289851E+03 -0.36974523554E+02 -0.36214150715E+02  0.14572322458E+03  0.00000000000E+00 0. -1.
        -11    1    3    3    0    0  0.57926813246E+03 -0.14907872615E+03  0.38862915012E+02  0.59940500668E+03  0.00000000000E+00 0.  1.
          2    1    6    6  502    0 -0.23930600574E+03  0.11161617217E+03  0.25151222771E+03  0.36466962440E+03  0.00000000000E+00 0. -1.
          3    1    5    5  503    0  0.59766850699E+02 -0.25916326321E+03  0.30518743183E+03  0.40481729458E+03  0.00000000000E+00 0. -1.
         -4    1    5    5    0  503 -0.21352346660E+02 -0.46551358867E+02  0.78737977006E+02  0.93928806781E+02  0.00000000000E+00 0.  1.
         -1    1    6    6    0  502 -0.51459952927E+03  0.38015169961E+03  0.60405607714E+03  0.87989302450E+03  0.00000000000E+00 0.  1.
<mgrwt>
<rscale>  0 0.21562469E+04</rscale>
<asrwt>0</asrwt>
<pdfrwt beam="1">  1        1 0.28696765E+00 0.21562469E+04</pdfrwt>
<pdfrwt beam="2">  1       -1 0.95868809E-01 0.21562469E+04</pdfrwt>
<totfact> 0.35309887E+00</totfact>
</mgrwt>
</event>
<event>
12    1  0.1549527E-007  0.1036622E+04  0.7818608E-02  0.9269266E-01
          2   -1    0    0  501    0  0.00000000000E+00  0.00000000000E+00  0.12285463266E+04  0.12285463266E+04  0.00000000000E+00 0. -1.
         -2   -1    0    0    0  501 -0.00000000000E+00 -0.00000000000E+00 -0.21866998995E+03  0.21866998995E+03  0.00000000000E+00 0.  1.
         23    2    1    2    0    0  0.93610850338E+02 -0.18126014198E+02  0.12856206546E+03  0.18399557767E+03  0.90744830344E+02 0.  0.
        254    2    1    2    0    0 -0.93610850338E+02  0.18126014198E+02  0.88131427124E+03  0.12632207389E+04  0.89995569163E+03 0.  0.
        -24    2    4    4    0    0  0.34573671404E+03  0.16604304898E+03  0.21348100148E+03  0.44636090915E+03  0.80992306262E+02 0.  0.
         24    2    4    4    0    0 -0.43934756437E+03 -0.14791703478E+03  0.66783326975E+03  0.81685982979E+03  0.79705544537E+02 0.  0.
         13    1    3    3    0    0  0.72244022287E+02  0.14863989191E+02  0.12419916385E+03  0.14444919256E+03  0.00000000000E+00 0. -1.
        -13    1    3    3    0    0  0.21366828051E+02 -0.32990003389E+02  0.43629016125E+01  0.39546385107E+02  0.00000000000E+00 0.  1.
          2    1    6    6  502    0 -0.41874089537E+03 -0.14294110692E+03  0.65929439610E+03  0.79400579231E+03  0.00000000000E+00 0. -1.
          3    1    5    5  503    0  0.33984639738E+03  0.17420171106E+03  0.20904447693E+03  0.43536353004E+03  0.00000000000E+00 0. -1.
         -4    1    5    5    0  503  0.58903166505E+01 -0.81586620789E+01  0.44365245458E+01  0.10997379106E+02  0.00000000000E+00 0.  1.
         -1    1    6    6    0  502 -0.20606669005E+02 -0.49759278661E+01  0.85388736584E+01  0.22854037476E+02  0.00000000000E+00 0.  1.
<mgrwt>
<rscale>  0 0.10366218E+04</rscale>
<asrwt>0</asrwt>
<pdfrwt beam="1">  1        2 0.18900712E+00 0.10366218E+04</pdfrwt>
<pdfrwt beam="2">  1       -2 0.33641538E-01 0.10366218E+04</pdfrwt>
<totfact> 0.14976190E+02</totfact>
</mgrwt>
</event>
<event>
12    1  0.1549527E-007  0.2677757E+04  0.7818608E-02  0.8342258E-01
          2   -1    0    0  501    0  0.00000000000E+00  0.00000000000E+00  0.16898507812E+04  0.16898507812E+04  0.00000000000E+00 0. -1.
         -2   -1    0    0    0  501 -0.00000000000E+00 -0.00000000000E+00 -0.10608014472E+04  0.10608014472E+04  0.00000000000E+00 0.  1.
         23    2    1    2    0    0  0.66713034982E+03 -0.95625100400E+03  0.79320052207E+02  0.11723000873E+04  0.92287256499E+02 0.  0.
        254    2    1    2    0    0 -0.66713034982E+03  0.95625100400E+03  0.54972928176E+03  0.15783521411E+04  0.91077676293E+03 0.  0.
        -24    2    4    4    0    0 -0.50099642599E+03  0.49658449854E+03 -0.14576882689E+03  0.72474890945E+03  0.80117712192E+02 0.  0.
         24    2    4    4    0    0 -0.16613392384E+03  0.45966650546E+03  0.69549810865E+03  0.85360323169E+03  0.77634277994E+02 0.  0.
         13    1    3    3    0    0  0.36953968830E+03 -0.59191119446E+03  0.75372047685E+02  0.70185425048E+03  0.00000000000E+00 0. -1.
        -13    1    3    3    0    0  0.29759066152E+03 -0.36433980955E+03  0.39480045224E+01  0.47044583682E+03  0.00000000000E+00 0.  1.
          4    1    6    6  502    0 -0.13714848719E+03  0.42763800630E+03  0.65648235520E+03  0.79539490485E+03  0.00000000000E+00 0. -1.
          3    1    5    5  503    0 -0.41702562909E+03  0.36860332345E+03 -0.10575596111E+03  0.56653606124E+03  0.00000000000E+00 0. -1.
         -4    1    5    5    0  503 -0.83970796900E+02  0.12798117509E+03 -0.40012865783E+02  0.15821284821E+03  0.00000000000E+00 0.  1.
         -3    1    6    6    0  502 -0.28985436646E+02  0.32028499155E+02  0.39015753450E+02  0.58208326835E+02  0.00000000000E+00 0.  1.
<mgrwt>
<rscale>  0 0.26777574E+04</rscale>
<asrwt>0</asrwt>
<pdfrwt beam="1">  1        2 0.25997704E+00 0.26777574E+04</pdfrwt>
<pdfrwt beam="2">  1       -2 0.16320022E+00 0.26777574E+04</pdfrwt>
<totfact> 0.20839153E+00</totfact>
</mgrwt>
</event>
<event>
12    1  0.1549527E-007  0.1922258E+04  0.7818608E-02  0.8643856E-01
         -2   -1    0    0    0  501 -0.00000000000E+00  0.00000000000E+00  0.50942277789E+03  0.50942277789E+03  0.00000000000E+00 0.  1.
          2   -1    0    0  501    0  0.00000000000E+00 -0.00000000000E+00 -0.18133643678E+04  0.18133643678E+04  0.00000000000E+00 0. -1.
         23    2    1    2    0    0  0.58634870089E+02  0.69019502021E+03 -0.82969675722E+03  0.10846669549E+04  0.91095993977E+02 0.  0.
        254    2    1    2    0    0 -0.58634870089E+02 -0.69019502021E+03 -0.47424483265E+03  0.12381201908E+04  0.91006935540E+03 0.  0.
        -24    2    4    4    0    0 -0.35652735429E+03 -0.67900041362E+03 -0.14083240786E+03  0.78375321172E+03  0.79259155397E+02 0.  0.
         24    2    4    4    0    0  0.29789248421E+03 -0.11194606585E+02 -0.33341242479E+03  0.45436697907E+03  0.80126495635E+02 0.  0.
         13    1    3    3    0    0  0.78593222792E+02  0.49772106025E+03 -0.62789018256E+03  0.80507715769E+03  0.00000000000E+00 0. -1.
        -13    1    3    3    0    0 -0.19958352703E+02  0.19247395996E+03 -0.20180657466E+03  0.27958979717E+03  0.00000000000E+00 0.  1.
          4    1    6    6  502    0  0.15364471317E+03 -0.35489590213E+02 -0.13325045191E+03  0.20645070073E+03  0.00000000000E+00 0. -1.
          1    1    5    5  503    0 -0.35170734919E+03 -0.64651943722E+03 -0.12241372090E+03  0.74610358613E+03  0.00000000000E+00 0. -1.
         -4    1    5    5    0  503 -0.48200051098E+01 -0.32480976409E+02 -0.18418686965E+02  0.37649625592E+02  0.00000000000E+00 0.  1.
         -3    1    6    6    0  502  0.14424777104E+03  0.24294983628E+02 -0.20016197288E+03  0.24791627834E+03  0.00000000000E+00 0.  1.
<mgrwt>
<rscale>  0 0.19222582E+04</rscale>
<asrwt>0</asrwt>
<pdfrwt beam="1">  1        2 0.27897913E+00 0.19222582E+04</pdfrwt>
<pdfrwt beam="2">  1       -2 0.78372737E-01 0.19222582E+04</pdfrwt>
<totfact> 0.11478990E+01</totfact>
</mgrwt>
</event>
<event>
12    1  0.1549527E-007  0.1745299E+04  0.7818608E-02  0.8735942E-01
         -1   -1    0    0    0  501 -0.00000000000E+00  0.00000000000E+00  0.33021012279E+03  0.33021012279E+03  0.00000000000E+00 0.  1.
          1   -1    0    0  501    0  0.00000000000E+00 -0.00000000000E+00 -0.23061583476E+04  0.23061583476E+04  0.00000000000E+00 0. -1.
         23    2    1    2    0    0 -0.60597581182E+03  0.19307598888E+03 -0.63840095349E+03  0.90566968759E+03  0.90536090050E+02 0.  0.
        254    2    1    2    0    0  0.60597581182E+03 -0.19307598888E+03 -0.13375472713E+04  0.17306987828E+04  0.89543316435E+03 0.  0.
        -24    2    4    4    0    0  0.14653284622E+03 -0.37122364218E+03 -0.11090997922E+04  0.11815718347E+04  0.82041355695E+02 0.  0.
         24    2    4    4    0    0  0.45944296560E+03  0.17814765331E+03 -0.22844747916E+03  0.54912694811E+03  0.80794364839E+02 0.  0.
         13    1    3    3    0    0 -0.48903120382E+02  0.17283241559E+02 -0.21691039982E+02  0.56220341847E+02  0.00000000000E+00 0.  1.
        -13    1    3    3    0    0 -0.55707269144E+03  0.17579274732E+03 -0.61670991351E+03  0.84944934574E+03  0.00000000000E+00 0. -1.
          2    1    6    6  502    0  0.22032267258E+02 -0.79597939729E+01 -0.53921972767E+01  0.24038612940E+02  0.00000000000E+00 0. -1.
          3    1    5    5  503    0  0.68925250334E+02 -0.78029549826E+02 -0.29064909458E+03  0.30873321324E+03  0.00000000000E+00 0. -1.
         -4    1    5    5    0  503  0.77607595889E+02 -0.29319409236E+03 -0.81845069757E+03  0.87283862145E+03  0.00000000000E+00 0.  1.
         -1    1    6    6    0  502  0.43741069834E+03  0.18610744728E+03 -0.22305528188E+03  0.52508833517E+03  0.00000000000E+00 0.  1.
<mgrwt>
<rscale>  0 0.17452986E+04</rscale>
<asrwt>0</asrwt>
<pdfrwt beam="1">  1        1 0.35479359E+00 0.17452986E+04</pdfrwt>
<pdfrwt beam="2">  1       -1 0.50801557E-01 0.17452986E+04</pdfrwt>
<totfact> 0.68088683E+00</totfact>
</mgrwt>
</event>
<event>
12    1  0.1549527E-007  0.1587054E+04  0.7818608E-02  0.8828541E-01
          2   -1    0    0  501    0  0.00000000000E+00  0.00000000000E+00  0.32120689516E+04  0.32120689516E+04  0.00000000000E+00 0. -1.
         -2   -1    0    0    0  501 -0.00000000000E+00 -0.00000000000E+00 -0.19603711967E+03  0.19603711967E+03  0.00000000000E+00 0.  1.
         23    2    1    2    0    0  0.32475140426E+03  0.42292362962E+03  0.70007692150E+03  0.88469109397E+03  0.90789672771E+02 0.  0.
        254    2    1    2    0    0 -0.32475140426E+03 -0.42292362962E+03  0.23159549104E+04  0.25234149773E+04  0.84832077038E+03 0.  0.
        -24    2    4    4    0    0 -0.38349109797E+03  0.77778010312E+02  0.15659219367E+04  0.16161451082E+04  0.81845328369E+02 0.  0.
         24    2    4    4    0    0  0.58739693714E+02 -0.50070163994E+03  0.75003297370E+03  0.90726986908E+03  0.80228859216E+02 0.  0.
         11    1    3    3    0    0  0.32323986350E+03  0.38486850069E+03  0.65687122587E+03  0.82709587084E+03  0.00000000000E+00 0.  1.
        -11    1    3    3    0    0  0.15115407573E+01  0.38055128931E+02  0.43205695626E+02  0.57595223134E+02  0.00000000000E+00 0. -1.
          4    1    6    6  502    0  0.82119824929E+01 -0.31774004141E+02  0.91928943168E+02  0.97611242117E+02  0.00000000000E+00 0. -1.
          3    1    5    5  503    0 -0.20865238544E+03  0.83875165470E+01  0.72721474210E+03  0.75660257039E+03  0.00000000000E+00 0. -1.
         -4    1    5    5    0  503 -0.17483871254E+03  0.69390493765E+02  0.83870719462E+03  0.85954253783E+03  0.00000000000E+00 0.  1.
         -3    1    6    6    0  502  0.50527711221E+02 -0.46892763580E+03  0.65810403053E+03  0.80965862696E+03  0.00000000000E+00 0.  1.
<mgrwt>
<rscale>  0 0.15870536E+04</rscale>
<asrwt>0</asrwt>
<pdfrwt beam="1">  1        2 0.49416441E+00 0.15870536E+04</pdfrwt>
<pdfrwt beam="2">  1       -2 0.30159559E-01 0.15870536E+04</pdfrwt>
<totfact> 0.12515441E+01</totfact>
</mgrwt>
</event>
<event>
12    1  0.1549527E-007  0.1770358E+04  0.7818608E-02  0.8722223E-01
          2   -1    0    0  501    0  0.00000000000E+00  0.00000000000E+00  0.11058909513E+04  0.11058909513E+04  0.00000000000E+00 0. -1.
         -2   -1    0    0    0  501 -0.00000000000E+00 -0.00000000000E+00 -0.70851670071E+03  0.70851670071E+03  0.00000000000E+00 0.  1.
         23    2    1    2    0    0 -0.38078589606E+03  0.47688648227E+03 -0.82137360453E+02  0.62203652170E+03  0.88115110659E+02 0.  0.
        254    2    1    2    0    0  0.38078589606E+03 -0.47688648227E+03  0.47951161104E+03  0.11923711303E+04  0.90520655747E+03 0.  0.
        -24    2    4    4    0    0  0.27701321907E+03 -0.62568562808E+03  0.63805098259E+03  0.93864807466E+03  0.75712105654E+02 0.  0.
         24    2    4    4    0    0  0.10377267699E+03  0.14879914581E+03 -0.15853937155E+03  0.25372305566E+03  0.79565710953E+02 0.  0.
         13    1    3    3    0    0 -0.16396709378E+03  0.22331208106E+03  0.54542365485E+01  0.27709789261E+03  0.00000000000E+00 0.  1.
        -13    1    3    3    0    0 -0.21681880228E+03  0.25357440122E+03 -0.87591597001E+02  0.34493862909E+03  0.00000000000E+00 0. -1.
          4    1    6    6  502    0  0.62986852993E+02  0.71694816581E+02 -0.13134616905E+03  0.16235549420E+03  0.00000000000E+00 0. -1.
          3    1    5    5  503    0  0.23171570847E+03 -0.51048886361E+03  0.55951564567E+03  0.79205353807E+03  0.00000000000E+00 0. -1.
         -4    1    5    5    0  503  0.45297510595E+02 -0.11519676447E+03  0.78535336922E+02  0.14659453658E+03  0.00000000000E+00 0.  1.
         -3    1    6    6    0  502  0.40785824001E+02  0.77104329225E+02 -0.27193202507E+02  0.91367561461E+02  0.00000000000E+00 0.  1.
<mgrwt>
<rscale>  0 0.17703584E+04</rscale>
<asrwt>0</asrwt>
<pdfrwt beam="1">  1        2 0.17013707E+00 0.17703584E+04</pdfrwt>
<pdfrwt beam="2">  1       -2 0.10900257E+00 0.17703584E+04</pdfrwt>
<totfact> 0.13734082E+01</totfact>
</mgrwt>
</event>
<event>
12    1  0.1549527E-007  0.2118400E+04  0.7818608E-02  0.8553181E-01
          4   -1    0    0  501    0  0.00000000000E+00  0.00000000000E+00  0.21403654122E+04  0.21403654122E+04  0.00000000000E+00 0. -1.
         -4   -1    0    0    0  501 -0.00000000000E+00 -0.00000000000E+00 -0.52416482065E+03  0.52416482065E+03  0.00000000000E+00 0.  1.
         23    2    1    2    0    0  0.43370287271E+03 -0.11151353439E+03  0.16042330401E+04  0.16700086053E+04  0.12178524071E+03 0.  0.
        254    2    1    2    0    0 -0.43370287271E+03  0.11151353439E+03  0.11967551532E+02  0.99452162759E+03  0.88791699798E+03 0.  0.
        -24    2    4    4    0    0 -0.39225078204E+03 -0.31275958879E+03 -0.15323376759E+03  0.53042640855E+03  0.78691492387E+02 0.  0.
         24    2    4    4    0    0 -0.41452090672E+02  0.42427312318E+03  0.16520131912E+03  0.46409521903E+03  0.79793092530E+02 0.  0.
         11    1    3    3    0    0  0.19167037447E+03 -0.37508346877E+02  0.49209884061E+03  0.52943902148E+03  0.00000000000E+00 0.  1.
        -11    1    3    3    0    0  0.24203249823E+03 -0.74005187511E+02  0.11121341995E+04  0.11405695838E+04  0.00000000000E+00 0. -1.
          4    1    6    6  502    0 -0.36823201066E+01  0.16183753343E+03  0.10263396719E+03  0.19167336260E+03  0.00000000000E+00 0. -1.
          1    1    5    5  503    0 -0.28790616958E+02 -0.92563793972E+01 -0.26584816410E+02  0.40265775144E+02  0.00000000000E+00 0. -1.
         -2    1    5    5    0  503 -0.36346016508E+03 -0.30350320939E+03 -0.12664895118E+03  0.49016063341E+03  0.00000000000E+00 0.  1.
         -3    1    6    6    0  502 -0.37769770565E+02  0.26243558975E+03  0.62567351929E+02  0.27242185643E+03  0.00000000000E+00 0.  1.
<mgrwt>
<rscale>  0 0.21183996E+04</rscale>
<asrwt>0</asrwt>
<pdfrwt beam="1">  1        4 0.32928698E+00 0.21183996E+04</pdfrwt>
<pdfrwt beam="2">  1       -4 0.80640743E-01 0.21183996E+04</pdfrwt>
<totfact> 0.50684006E-02</totfact>
</mgrwt>
</event>
<event>
12    1  0.1549527E-007  0.1382695E+04  0.7818608E-02  0.8966441E-01
          2   -1    0    0  501    0  0.00000000000E+00  0.00000000000E+00  0.14760178765E+04  0.14760178765E+04  0.00000000000E+00 0. -1.
         -2   -1    0    0    0  501 -0.00000000000E+00 -0.00000000000E+00 -0.32381830098E+03  0.32381830098E+03  0.00000000000E+00 0.  1.
         23    2    1    2    0    0  0.17223344552E+03  0.87002168105E+02 -0.11085804751E+03  0.24435972343E+03  0.10093775670E+03 0.  0.
        254    2    1    2    0    0 -0.17223344552E+03 -0.87002168105E+02  0.12630576230E+04  0.15554764540E+04  0.88710692872E+03 0.  0.
        -24    2    4    4    0    0 -0.48605552874E+03 -0.23470898396E+03  0.85212579987E+03  0.10119485322E+04  0.81136729834E+02 0.  0.
         24    2    4    4    0    0  0.31382208322E+03  0.14770681585E+03  0.41093182314E+03  0.54352792178E+03  0.79095101784E+02 0.  0.
         11    1    3    3    0    0  0.55380015937E+02  0.71748957312E+02 -0.13777590851E+02  0.91677047565E+02  0.00000000000E+00 0. -1.
        -11    1    3    3    0    0  0.11685342958E+03  0.15253210794E+02 -0.97080456654E+02  0.15268267586E+03  0.00000000000E+00 0.  1.
          2    1    6    6  502    0  0.16172385066E+01  0.85737418409E+01  0.32210958614E+02  0.33371700052E+02  0.00000000000E+00 0. -1.
          3    1    5    5  503    0 -0.16025139812E+03 -0.12072271996E+03  0.31723482292E+03  0.37535638877E+03  0.00000000000E+00 0. -1.
         -4    1    5    5    0  503 -0.32580413063E+03 -0.11398626399E+03  0.53489097694E+03  0.63659214347E+03  0.00000000000E+00 0.  1.
         -1    1    6    6    0  502  0.31220484472E+03  0.13913307401E+03  0.37872086452E+03  0.51015622173E+03  0.00000000000E+00 0.  1.
<mgrwt>
<rscale>  0 0.13826953E+04</rscale>
<asrwt>0</asrwt>
<pdfrwt beam="1">  1        2 0.22707967E+00 0.13826953E+04</pdfrwt>
<pdfrwt beam="2">  1       -2 0.49818201E-01 0.13826953E+04</pdfrwt>
<totfact> 0.48647715E+01</totfact>
</mgrwt>
</event>
<event>
12    1  0.1549527E-007  0.1413212E+04  0.7818608E-02  0.8944310E-01
          2   -1    0    0  501    0  0.00000000000E+00  0.00000000000E+00  0.16931891988E+04  0.16931891988E+04  0.00000000000E+00 0. -1.
         -2   -1    0    0    0  501 -0.00000000000E+00 -0.00000000000E+00 -0.29488278783E+03  0.29488278783E+03  0.00000000000E+00 0.  1.
         23    2    1    2    0    0  0.56220035971E+02 -0.15252922112E+02  0.99357163948E+03  0.99928304534E+03  0.89379292059E+02 0.  0.
        254    2    1    2    0    0 -0.56220035971E+02  0.15252922112E+02  0.40473477148E+03  0.98878894128E+03  0.90027772997E+03 0.  0.
        -24    2    4    4    0    0 -0.24777486892E+03  0.39205762838E+03  0.18702106237E+03  0.50653790372E+03  0.80636223204E+02 0.  0.
         24    2    4    4    0    0  0.19155483295E+03 -0.37680470626E+03  0.21771370911E+03  0.48225103757E+03  0.80571480120E+02 0.  0.
         13    1    3    3    0    0 -0.16591000812E+02 -0.17579785256E+02  0.47558410126E+03  0.47619801294E+03  0.00000000000E+00 0.  1.
        -13    1    3    3    0    0  0.72811036783E+02  0.23268631448E+01  0.51798753822E+03  0.52308503240E+03  0.00000000000E+00 0. -1.
          4    1    6    6  502    0  0.98492142506E+02 -0.15496607276E+03  0.13483686905E+03  0.22780730255E+03  0.00000000000E+00 0. -1.
          3    1    5    5  503    0 -0.12212985746E+03  0.14586016870E+03  0.43737871037E+02  0.19520218303E+03  0.00000000000E+00 0. -1.
         -4    1    5    5    0  503 -0.12564501146E+03  0.24619745968E+03  0.14328319133E+03  0.31133572069E+03  0.00000000000E+00 0.  1.
         -3    1    6    6    0  502  0.93062690447E+02 -0.22183863351E+03  0.82876840061E+02  0.25444373501E+03  0.00000000000E+00 0.  1.
<mgrwt>
<rscale>  0 0.14132124E+04</rscale>
<asrwt>0</asrwt>
<pdfrwt beam="1">  1        2 0.26049064E+00 0.14132124E+04</pdfrwt>
<pdfrwt beam="2">  1       -2 0.45366584E-01 0.14132124E+04</pdfrwt>
<totfact> 0.44318128E+01</totfact>
</mgrwt>
</event>
<event>
12    1  0.1549527E-007  0.2006072E+04  0.7818608E-02  0.8603787E-01
         -1   -1    0    0    0  501 -0.00000000000E+00  0.00000000000E+00  0.83250254013E+03  0.83250254013E+03  0.00000000000E+00 0.  1.
          1   -1    0    0  501    0  0.00000000000E+00 -0.00000000000E+00 -0.12085025428E+04  0.12085025428E+04  0.00000000000E+00 0. -1.
         23    2    1    2    0    0  0.12551822785E+03 -0.47131064576E+03 -0.79983759794E+03  0.94271900937E+03  0.10531095485E+03 0.  0.
        254    2    1    2    0    0 -0.12551822785E+03  0.47131064576E+03  0.42383759532E+03  0.10982860735E+04  0.88809089723E+03 0.  0.
        -24    2    4    4    0    0  0.32535077018E+03  0.39830973188E+03  0.35015061008E+03  0.62844536278E+03  0.88511909314E+02 0.  0.
         24    2    4    4    0    0 -0.45086899804E+03  0.73000913878E+02  0.73686985240E+02  0.46984071073E+03  0.81905646031E+02 0.  0.
         11    1    3    3    0    0  0.80381857714E+02 -0.29831107465E+03 -0.40586750839E+03  0.51007761632E+03  0.00000000000E+00 0. -1.
        -11    1    3    3    0    0  0.45136370138E+02 -0.17299957111E+03 -0.39397008955E+03  0.43264139304E+03  0.00000000000E+00 0.  1.
          2    1    6    6  502    0 -0.95454766202E+01  0.59731866094E+01 -0.10718673185E+02  0.15546222596E+02  0.00000000000E+00 0. -1.
          1    1    5    5  503    0  0.24473018862E+03  0.30214991180E+03  0.30811531521E+03  0.49610732900E+03  0.00000000000E+00 0. -1.
         -2    1    5    5    0  503  0.80620581566E+02  0.96159820074E+02  0.42035294870E+02  0.13233803378E+03  0.00000000000E+00 0.  1.
         -1    1    6    6    0  502 -0.44132352142E+03  0.67027727268E+02  0.84405658424E+02  0.45429448814E+03  0.00000000000E+00 0.  1.
<mgrwt>
<rscale>  0 0.20060722E+04</rscale>
<asrwt>0</asrwt>
<pdfrwt beam="1">  1        1 0.18592347E+00 0.20060722E+04</pdfrwt>
<pdfrwt beam="2">  1       -1 0.12807731E+00 0.20060722E+04</pdfrwt>
<totfact> 0.51431933E+00</totfact>
</mgrwt>
</event>
<event>
12    1  0.1549527E-007  0.1636865E+04  0.7818608E-02  0.8798215E-01
          2   -1    0    0  501    0  0.00000000000E+00  0.00000000000E+00  0.57806029048E+03  0.57806029048E+03  0.00000000000E+00 0. -1.
         -2   -1    0    0    0  501 -0.00000000000E+00 -0.00000000000E+00 -0.11587569660E+04  0.11587569660E+04  0.00000000000E+00 0.  1.
         23    2    1    2    0    0 -0.73997673169E+02  0.14948724520E+03 -0.74114136522E+03  0.76505178372E+03  0.90507548956E+02 0.  0.
        254    2    1    2    0    0  0.73997673169E+02 -0.14948724520E+03  0.16044468972E+03  0.97176547274E+03  0.94380270366E+03 0.  0.
        -24    2    4    4    0    0 -0.97612170217E+02 -0.52244864560E+03  0.12573349439E+03  0.55205375176E+03  0.80459369546E+02 0.  0.
         24    2    4    4    0    0  0.17160984339E+03  0.37296140040E+03  0.34711195335E+02  0.41971172099E+03  0.80018229882E+02 0.  0.
         13    1    3    3    0    0 -0.39505728344E+02  0.43008385610E+01 -0.12890931903E+03  0.13489556078E+03  0.00000000000E+00 0. -1.
        -13    1    3    3    0    0 -0.34491944826E+02  0.14518640664E+03 -0.61223204619E+03  0.63015622294E+03  0.00000000000E+00 0.  1.
          2    1    6    6  502    0  0.92805498444E+02  0.11352342481E+03  0.23898512011E+01  0.14664971841E+03  0.00000000000E+00 0. -1.
          1    1    5    5  503    0 -0.18176302994E+01 -0.12255296391E+03  0.18198354578E+01  0.12257995164E+03  0.00000000000E+00 0. -1.
         -2    1    5    5    0  503 -0.95794539918E+02 -0.39989568170E+03  0.12391365893E+03  0.42947380012E+03  0.00000000000E+00 0.  1.
         -1    1    6    6    0  502  0.78804344943E+02  0.25943797560E+03  0.32321344134E+02  0.27306200258E+03  0.00000000000E+00 0.  1.
<mgrwt>
<rscale>  0 0.16368645E+04</rscale>
<asrwt>0</asrwt>
<pdfrwt beam="1">  1        2 0.88932352E-01 0.16368645E+04</pdfrwt>
<pdfrwt beam="2">  1       -2 0.17827030E+00 0.16368645E+04</pdfrwt>
<totfact> 0.92378511E+00</totfact>
</mgrwt>
</event>
<event>
12    1  0.1549527E-007  0.1293605E+04  0.7818608E-02  0.9034652E-01
          2   -1    0    0  501    0  0.00000000000E+00  0.00000000000E+00  0.10434814085E+04  0.10434814085E+04  0.00000000000E+00 0. -1.
         -2   -1    0    0    0  501 -0.00000000000E+00 -0.00000000000E+00 -0.40092073345E+03  0.40092073345E+03  0.00000000000E+00 0.  1.
         23    2    1    2    0    0 -0.78441047176E+02  0.19721504032E+03 -0.10624226759E+03  0.25377366797E+03  0.89815840040E+02 0.  0.
        254    2    1    2    0    0  0.78441047176E+02 -0.19721504032E+03  0.74880294265E+03  0.11906284740E+04  0.90102361020E+03 0.  0.
        -24    2    4    4    0    0  0.38041364745E+03  0.18513299151E+03  0.36932283721E+03  0.56784323616E+03  0.84010803225E+02 0.  0.
         24    2    4    4    0    0 -0.30197260028E+03 -0.38234803183E+03  0.37948010545E+03  0.62278523783E+03  0.80491199947E+02 0.  0.
         13    1    3    3    0    0  0.85856624277E+01  0.10093023548E+02  0.10288790856E+02  0.16776231428E+02  0.00000000000E+00 0. -1.
        -13    1    3    3    0    0 -0.87026709604E+02  0.18712201677E+03 -0.11653105844E+03  0.23699743654E+03  0.00000000000E+00 0.  1.
          4    1    6    6  502    0 -0.12496803388E+03 -0.10111060357E+03  0.14018354348E+03  0.21328804352E+03  0.00000000000E+00 0. -1.
          3    1    5    5  503    0  0.15231621677E+02 -0.90429966073E+01  0.16288464694E+02  0.24064333954E+02  0.00000000000E+00 0. -1.
         -4    1    5    5    0  503  0.36518202578E+03  0.19417598812E+03  0.35303437251E+03  0.54377890221E+03  0.00000000000E+00 0.  1.
         -3    1    6    6    0  502 -0.17700456639E+03 -0.28123742826E+03  0.23929656196E+03  0.40949719431E+03  0.00000000000E+00 0.  1.
<mgrwt>
<rscale>  0 0.12936048E+04</rscale>
<asrwt>0</asrwt>
<pdfrwt beam="1">  1        2 0.16053560E+00 0.12936048E+04</pdfrwt>
<pdfrwt beam="2">  1       -2 0.61680113E-01 0.12936048E+04</pdfrwt>
<totfact> 0.56604630E+01</totfact>
</mgrwt>
</event>
<event>
12    1  0.1549527E-007  0.2130100E+04  0.7818608E-02  0.8548099E-01
         -1   -1    0    0    0  501 -0.00000000000E+00  0.00000000000E+00  0.97064890897E+03  0.97064890897E+03  0.00000000000E+00 0.  1.
          1   -1    0    0  501    0  0.00000000000E+00 -0.00000000000E+00 -0.11686323972E+04  0.11686323972E+04  0.00000000000E+00 0. -1.
         23    2    1    2    0    0 -0.96492166396E+02  0.50739335548E+03 -0.80867690491E+03  0.96548303180E+03  0.10695977192E+03 0.  0.
        254    2    1    2    0    0  0.96492166396E+02 -0.50739335548E+03  0.61069341663E+03  0.11737982744E+04  0.85912582578E+03 0.  0.
        -24    2    4    4    0    0  0.26206765217E+03 -0.39644691335E+03  0.76863428690E+03  0.90708036721E+03  0.78399720438E+02 0.  0.
         24    2    4    4    0    0 -0.16557548577E+03 -0.11094644213E+03 -0.15794087027E+03  0.26671790720E+03  0.80428657874E+02 0.  0.
         11    1    3    3    0    0 -0.11702268762E+03  0.44565922145E+03 -0.68175823425E+03  0.82286131338E+03  0.00000000000E+00 0. -1.
        -11    1    3    3    0    0  0.20530521227E+02  0.61734134034E+02 -0.12691867065E+03  0.14262171843E+03  0.00000000000E+00 0.  1.
          2    1    6    6  502    0 -0.12568967789E+03 -0.37312739211E+02 -0.99741588847E+02  0.16473773150E+03  0.00000000000E+00 0. -1.
          1    1    5    5  503    0  0.26643639701E+03 -0.39216520024E+03  0.74835913485E+03  0.88590252999E+03  0.00000000000E+00 0. -1.
         -2    1    5    5    0  503 -0.43687448434E+01 -0.42817131077E+01  0.20275152047E+02  0.21177837217E+02  0.00000000000E+00 0.  1.
         -1    1    6    6    0  502 -0.39885807881E+02 -0.73633702918E+02 -0.58199281423E+02  0.10198017569E+03  0.00000000000E+00 0.  1.
<mgrwt>
<rscale>  0 0.21301002E+04</rscale>
<asrwt>0</asrwt>
<pdfrwt beam="1">  1        1 0.17978960E+00 0.21301002E+04</pdfrwt>
<pdfrwt beam="2">  1       -1 0.14933060E+00 0.21301002E+04</pdfrwt>
<totfact> 0.36504714E+00</totfact>
</mgrwt>
</event>
<event>
12    1  0.1549527E-007  0.1869594E+04  0.7818608E-02  0.8670141E-01
         -2   -1    0    0    0  501 -0.00000000000E+00  0.00000000000E+00  0.32113742911E+03  0.32113742911E+03  0.00000000000E+00 0.  1.
          2   -1    0    0  501    0  0.00000000000E+00 -0.00000000000E+00 -0.27210962420E+04  0.27210962420E+04  0.00000000000E+00 0. -1.
         23    2    1    2    0    0  0.60625710051E+03  0.33906074446E+03 -0.12105453615E+04  0.13986824789E+04  0.91557328367E+02 0.  0.
        254    2    1    2    0    0 -0.60625710051E+03 -0.33906074446E+03 -0.11894134515E+04  0.16435511922E+04  0.89668628992E+03 0.  0.
        -24    2    4    4    0    0 -0.48093966790E+03  0.70908032708E+01 -0.10934033333E+03  0.49964173344E+03  0.79582093819E+02 0.  0.
         24    2    4    4    0    0 -0.12531743261E+03 -0.34615154773E+03 -0.10800731181E+04  0.11439094588E+04  0.80284222658E+02 0.  0.
         13    1    3    3    0    0  0.21546752839E+02  0.17966685209E+02 -0.93462491440E+02  0.97582281391E+02  0.00000000000E+00 0.  1.
        -13    1    3    3    0    0  0.58471034767E+03  0.32109405925E+03 -0.11170828700E+04  0.13011001976E+04  0.00000000000E+00 0. -1.
          4    1    6    6  502    0 -0.11123876739E+03 -0.27754699686E+03 -0.76983305957E+03  0.82586278427E+03  0.00000000000E+00 0. -1.
          3    1    5    5  503    0 -0.54073846360E+02  0.25056015286E+02 -0.22231265294E+02  0.63608284985E+02  0.00000000000E+00 0. -1.
         -4    1    5    5    0  503 -0.42686582154E+03 -0.17965212016E+02 -0.87109068033E+02  0.43603344846E+03  0.00000000000E+00 0.  1.
         -3    1    6    6    0  502 -0.14078665222E+02 -0.68604550871E+02 -0.31024005857E+03  0.31804667450E+03  0.00000000000E+00 0.  1.
<mgrwt>
<rscale>  0 0.18695944E+04</rscale>
<asrwt>0</asrwt>
<pdfrwt beam="1">  1        2 0.41863019E+00 0.18695944E+04</pdfrwt>
<pdfrwt beam="2">  1       -2 0.49405758E-01 0.18695944E+04</pdfrwt>
<totfact> 0.94079519E+00</totfact>
</mgrwt>
</event>
<event>
12    1  0.1549527E-007  0.2683481E+04  0.7818608E-02  0.8340385E-01
         -2   -1    0    0    0  501 -0.00000000000E+00  0.00000000000E+00  0.98742435505E+03  0.98742435505E+03  0.00000000000E+00 0.  1.
          2   -1    0    0  501    0  0.00000000000E+00 -0.00000000000E+00 -0.18231956732E+04  0.18231956732E+04  0.00000000000E+00 0. -1.
         23    2    1    2    0    0 -0.66137918418E+03 -0.16764606184E+03  0.64052175459E+03  0.94035890076E+03  0.92082120005E+02 0.  0.
        254    2    1    2    0    0  0.66137918418E+03  0.16764606184E+03 -0.14762930727E+04  0.18702611274E+04  0.92353008669E+03 0.  0.
        -24    2    4    4    0    0  0.28830706824E+03 -0.35024484319E+03 -0.87781487978E+03  0.99162871216E+03  0.83523193458E+02 0.  0.
         24    2    4    4    0    0  0.37307211595E+03  0.51789090503E+03 -0.59847819291E+03  0.87863241528E+03  0.80155976552E+02 0.  0.
         13    1    3    3    0    0 -0.56857282706E+03 -0.17501765584E+03  0.56557178211E+03  0.82083961907E+03  0.00000000000E+00 0.  1.
        -13    1    3    3    0    0 -0.92806357125E+02  0.73715940013E+01  0.74949972481E+02  0.11951928169E+03  0.00000000000E+00 0. -1.
          2    1    6    6  502    0  0.15216787581E+03  0.21799191941E+03 -0.30373495009E+03  0.40364645331E+03  0.00000000000E+00 0. -1.
          1    1    5    5  503    0  0.55823844614E+02 -0.26780417635E+02 -0.97059145112E+02  0.11512588782E+03  0.00000000000E+00 0. -1.
         -4    1    5    5    0  503  0.23248322362E+03 -0.32346442556E+03 -0.78075573467E+03  0.87650282434E+03  0.00000000000E+00 0.  1.
         -1    1    6    6    0  502  0.22090424013E+03  0.29989898562E+03 -0.29474324282E+03  0.47498596197E+03  0.00000000000E+00 0.  1.
<mgrwt>
<rscale>  0 0.26834812E+04</rscale>
<asrwt>0</asrwt>
<pdfrwt beam="1">  1        2 0.28049164E+00 0.26834812E+04</pdfrwt>
<pdfrwt beam="2">  1       -2 0.15191144E+00 0.26834812E+04</pdfrwt>
<totfact> 0.21321128E+00</totfact>
</mgrwt>
</event>
<event>
12    1  0.1549527E-007  0.2824450E+04  0.7818608E-02  0.8295718E-01
          1   -1    0    0  501    0  0.00000000000E+00  0.00000000000E+00  0.12191318769E+04  0.12191318769E+04  0.00000000000E+00 0.  1.
         -1   -1    0    0    0  501 -0.00000000000E+00 -0.00000000000E+00 -0.16359015720E+04  0.16359015720E+04  0.00000000000E+00 0. -1.
         23    2    1    2    0    0 -0.31519275047E+03  0.43902763217E+03  0.96933836756E+03  0.11133808757E+04  0.88929026760E+02 0.  0.
        254    2    1    2    0    0  0.31519275047E+03 -0.43902763217E+03 -0.13861080627E+04  0.17416525732E+04  0.90551995712E+03 0.  0.
        -24    2    4    4    0    0 -0.26392470699E+03  0.14974295062E+02 -0.18957004390E+03  0.33470592546E+03  0.78808467335E+02 0.  0.
         24    2    4    4    0    0  0.57911745746E+03 -0.45400192723E+03 -0.11965380188E+04  0.14069466478E+04  0.79377955828E+02 0.  0.
         13    1    3    3    0    0 -0.13892681808E+03  0.23079722606E+03  0.40282594721E+03  0.48459959150E+03  0.00000000000E+00 0. -1.
        -13    1    3    3    0    0 -0.17626593239E+03  0.20823040610E+03  0.56651242035E+03  0.62878128420E+03  0.00000000000E+00 0.  1.
          2    1    6    6  502    0  0.50652585630E+03 -0.40482066581E+03 -0.10969056274E+04  0.12742253216E+04  0.00000000000E+00 0. -1.
          3    1    5    5  503    0 -0.16564212330E+03  0.35679517700E+02 -0.84467278109E+02  0.18932792204E+03  0.00000000000E+00 0. -1.
         -4    1    5    5    0  503 -0.98282583693E+02 -0.20705222638E+02 -0.10510276579E+03  0.14537800342E+03  0.00000000000E+00 0.  1.
         -1    1    6    6    0  502  0.72591601162E+02 -0.49181261420E+02 -0.99632391322E+02  0.13272132622E+03  0.00000000000E+00 0.  1.
<mgrwt>
<rscale>  0 0.28244502E+04</rscale>
<asrwt>0</asrwt>
<pdfrwt beam="1">  1        1 0.18755875E+00 0.28244502E+04</pdfrwt>
<pdfrwt beam="2">  1       -1 0.25167716E+00 0.28244502E+04</pdfrwt>
<totfact> 0.60768003E-01</totfact>
</mgrwt>
</event>
<event>
12    1  0.1549527E-007  0.3415985E+04  0.7818608E-02  0.8133994E-01
         -2   -1    0    0    0  501 -0.00000000000E+00  0.00000000000E+00  0.26305868901E+04  0.26305868901E+04  0.00000000000E+00 0. -1.
          2   -1    0    0  501    0  0.00000000000E+00 -0.00000000000E+00 -0.11089685334E+04  0.11089685334E+04  0.00000000000E+00 0.  1.
         23    2    1    2    0    0 -0.87579654360E+02 -0.11979602471E+04 -0.42887018315E+03  0.12787105176E+04  0.91607884464E+02 0.  0.
        254    2    1    2    0    0  0.87579654360E+02  0.11979602471E+04  0.19504885398E+04  0.24608449059E+04  0.89920696039E+03 0.  0.
        -24    2    4    4    0    0 -0.20926048885E+03  0.43728694937E+03  0.20602954617E+03  0.53279083524E+03  0.80050433700E+02 0.  0.
         24    2    4    4    0    0  0.29684014321E+03  0.76067329768E+03  0.17444589936E+04  0.19280540706E+04  0.86702840303E+02 0.  0.
         13    1    3    3    0    0 -0.38533942814E+02 -0.22925777295E+03 -0.52665983268E+02  0.23836463035E+03  0.00000000000E+00 0. -1.
        -13    1    3    3    0    0 -0.49045711546E+02 -0.96870247410E+03 -0.37620419988E+03  0.10403458873E+04  0.00000000000E+00 0.  1.
          4    1    6    6  502    0  0.22937719303E+03  0.48540015193E+03  0.11827169987E+04  0.12988636200E+04  0.00000000000E+00 0. -1.
          1    1    5    5  503    0 -0.14920865041E+03  0.32080492260E+03  0.18755413391E+03  0.40044421942E+03  0.00000000000E+00 0. -1.
         -2    1    5    5    0  503 -0.60051838435E+02  0.11648202677E+03  0.18475412267E+02  0.13234661581E+03  0.00000000000E+00 0.  1.
         -3    1    6    6    0  502  0.67462950179E+02  0.27527314575E+03  0.56174199489E+03  0.62919045069E+03  0.00000000000E+00 0.  1.
<mgrwt>
<rscale>  0 0.34159848E+04</rscale>
<asrwt>0</asrwt>
<pdfrwt beam="1">  1        2 0.17061055E+00 0.34159848E+04</pdfrwt>
<pdfrwt beam="2">  1       -2 0.40470567E+00 0.34159848E+04</pdfrwt>
<totfact> 0.12292844E-01</totfact>
</mgrwt>
</event>
<event>
12    1  0.1549527E-007  0.2213786E+04  0.7818608E-02  0.8512712E-01
         -2   -1    0    0    0  501 -0.00000000000E+00  0.00000000000E+00  0.39627476775E+03  0.39627476775E+03  0.00000000000E+00 0.  1.
          2   -1    0    0  501    0  0.00000000000E+00 -0.00000000000E+00 -0.30918238011E+04  0.30918238011E+04  0.00000000000E+00 0. -1.
         23    2    1    2    0    0 -0.65934315094E+03 -0.62886188349E+03 -0.10166624133E+04  0.13681669181E+04  0.89875436427E+02 0.  0.
        254    2    1    2    0    0  0.65934315094E+03  0.62886188349E+03 -0.16788866201E+04  0.21199316508E+04  0.91937438593E+03 0.  0.
        -24    2    4    4    0    0  0.13131103899E+03 -0.95334988353E+02  0.34823075645E+02  0.18450597329E+03  0.80613017678E+02 0.  0.
         24    2    4    4    0    0  0.52803211195E+03  0.72419687184E+03 -0.17137096958E+04  0.19354256775E+04  0.76109205833E+02 0.  0.
         11    1    3    3    0    0 -0.38268224365E+03 -0.32559062312E+03 -0.50776934893E+03  0.71434212054E+03  0.00000000000E+00 0.  1.
        -11    1    3    3    0    0 -0.27666090729E+03 -0.30327126037E+03 -0.50889306434E+03  0.65382479757E+03  0.00000000000E+00 0. -1.
          2    1    6    6  502    0  0.34505023382E+03  0.52488120918E+03 -0.11603977770E+04  0.13195010225E+04  0.00000000000E+00 0. -1.
          3    1    5    5  503    0  0.13428073348E+03 -0.81454607970E+02  0.11849573381E+02  0.15750105057E+03  0.00000000000E+00 0. -1.
         -4    1    5    5    0  503 -0.29696944854E+01 -0.13880380383E+02  0.22973502264E+02  0.27004922722E+02  0.00000000000E+00 0.  1.
         -1    1    6    6    0  502  0.18298187813E+03  0.19931566267E+03 -0.55331191878E+03  0.61592465495E+03  0.00000000000E+00 0.  1.
<mgrwt>
<rscale>  0 0.22137857E+04</rscale>
<asrwt>0</asrwt>
<pdfrwt beam="1">  1        2 0.47566520E+00 0.22137857E+04</pdfrwt>
<pdfrwt beam="2">  1       -2 0.60965349E-01 0.22137857E+04</pdfrwt>
<totfact> 0.34867966E+00</totfact>
</mgrwt>
</event>
<event>
12    1  0.1549527E-007  0.1177592E+04  0.7818608E-02  0.9132700E-01
         -2   -1    0    0    0  501 -0.00000000000E+00  0.00000000000E+00  0.40998390489E+03  0.40998390489E+03  0.00000000000E+00 0.  1.
          2   -1    0    0  501    0  0.00000000000E+00 -0.00000000000E+00 -0.84559526938E+03  0.84559526938E+03  0.00000000000E+00 0. -1.
         23    2    1    2    0    0 -0.33501814983E+02  0.13800465458E+03 -0.27571533128E+03  0.32336914994E+03  0.91547839611E+02 0.  0.
        254    2    1    2    0    0  0.33501814983E+02 -0.13800465458E+03 -0.15989603322E+03  0.93221002433E+03  0.90734840703E+03 0.  0.
        -24    2    4    4    0    0  0.47329193265E+02 -0.46001523005E+03  0.13485798938E+03  0.48846991790E+03  0.81006906984E+02 0.  0.
         24    2    4    4    0    0 -0.13827378282E+02  0.32201057547E+03 -0.29475402260E+03  0.44374010643E+03  0.78379468680E+02 0.  0.
         11    1    3    3    0    0 -0.10585217554E+02  0.53063350469E+01 -0.10628312939E+03  0.10694067334E+03  0.00000000000E+00 0. -1.
        -11    1    3    3    0    0 -0.22916597429E+02  0.13269831953E+03 -0.16943220189E+03  0.21642847660E+03  0.00000000000E+00 0.  1.
          4    1    6    6  502    0 -0.25264230992E+01  0.61522166823E+01  0.48599699068E+01  0.82372259455E+01  0.00000000000E+00 0. -1.
          3    1    5    5  503    0  0.52050011934E+02 -0.16135781626E+03  0.31838917417E+02  0.17250873970E+03  0.00000000000E+00 0. -1.
         -4    1    5    5    0  503 -0.47208186691E+01 -0.29865741379E+03  0.10301907196E+03  0.31596117820E+03  0.00000000000E+00 0.  1.
         -3    1    6    6    0  502 -0.11300955183E+02  0.31585835879E+03 -0.29961399251E+03  0.43550288049E+03  0.00000000000E+00 0.  1.
<mgrwt>
<rscale>  0 0.11775915E+04</rscale>
<asrwt>0</asrwt>
<pdfrwt beam="1">  1        2 0.13009158E+00 0.11775915E+04</pdfrwt>
<pdfrwt beam="2">  1       -2 0.63074447E-01 0.11775915E+04</pdfrwt>
<totfact> 0.73578355E+01</totfact>
</mgrwt>
</event>
<event>
12    1  0.1549527E-007  0.1096620E+04  0.7818608E-02  0.9208493E-01
         -4   -1    0    0    0  501 -0.00000000000E+00  0.00000000000E+00  0.28899162881E+03  0.28899162881E+03  0.00000000000E+00 0.  1.
          4   -1    0    0  501    0  0.00000000000E+00 -0.00000000000E+00 -0.10403200263E+04  0.10403200263E+04  0.00000000000E+00 0. -1.
         23    2    1    2    0    0  0.11396627663E+03  0.67558616486E+02 -0.27200671794E+02  0.16258250183E+03  0.90225908062E+02 0.  0.
        254    2    1    2    0    0 -0.11396627663E+03 -0.67558616486E+02 -0.72412772565E+03  0.11667291532E+04  0.90517593598E+03 0.  0.
        -24    2    4    4    0    0  0.13800963234E+03  0.28506140544E+03 -0.63796681115E+03  0.71708463825E+03  0.83078654304E+02 0.  0.
         24    2    4    4    0    0 -0.25197590897E+03 -0.35262002192E+03 -0.86160914499E+02  0.44964451498E+03  0.83209062618E+02 0.  0.
         13    1    3    3    0    0 -0.24940456082E+01  0.13002633167E+02 -0.31223094090E+02  0.33914161310E+02  0.00000000000E+00 0. -1.
        -13    1    3    3    0    0  0.11646032224E+03  0.54555983318E+02  0.40224222965E+01  0.12866834052E+03  0.00000000000E+00 0.  1.
          4    1    6    6  502    0 -0.25181571921E+03 -0.33161471930E+03 -0.94612132875E+02  0.42700226485E+03  0.00000000000E+00 0. -1.
          3    1    5    5  503    0  0.14796448382E+03  0.27751842653E+03 -0.60564864624E+03  0.68243699213E+03  0.00000000000E+00 0. -1.
         -4    1    5    5    0  503 -0.99548514770E+01  0.75429789070E+01 -0.32318164908E+02  0.34647646121E+02  0.00000000000E+00 0.  1.
         -3    1    6    6    0  502 -0.16018976082E+00 -0.21005302622E+02  0.84512183760E+01  0.22642250132E+02  0.00000000000E+00 0.  1.
<mgrwt>
<rscale>  0 0.10966199E+04</rscale>
<asrwt>0</asrwt>
<pdfrwt beam="1">  1        4 0.16004924E+00 0.10966199E+04</pdfrwt>
<pdfrwt beam="2">  1       -4 0.44460250E-01 0.10966199E+04</pdfrwt>
<totfact> 0.24334281E+00</totfact>
</mgrwt>
</event>
<event>
12    1  0.1549527E-007  0.2523977E+04  0.7818608E-02  0.8394493E-01
          4   -1    0    0  501    0  0.00000000000E+00  0.00000000000E+00  0.26094315435E+04  0.26094315435E+04  0.00000000000E+00 0. -1.
         -4   -1    0    0    0  501 -0.00000000000E+00 -0.00000000000E+00 -0.61033003135E+03  0.61033003135E+03  0.00000000000E+00 0.  1.
         23    2    1    2    0    0 -0.82077966053E+03 -0.10226320944E+03  0.17960243523E+04  0.19795104424E+04  0.92849891072E+02 0.  0.
        254    2    1    2    0    0  0.82077966053E+03  0.10226320944E+03  0.20307715985E+03  0.12402511325E+04  0.90157946050E+03 0.  0.
        -24    2    4    4    0    0  0.43663614186E+03 -0.36388904712E+03  0.25601336151E+03  0.62852757840E+03  0.80235382130E+02 0.  0.
         24    2    4    4    0    0  0.38414351867E+03  0.46615225656E+03 -0.52936201660E+02  0.61172355407E+03  0.80865913272E+02 0.  0.
         13    1    3    3    0    0 -0.21102268633E+03 -0.47738710851E+02  0.39003493766E+03  0.44602333039E+03  0.00000000000E+00 0.  1.
        -13    1    3    3    0    0 -0.60975697420E+03 -0.54524498591E+02  0.14059894147E+04  0.15334871120E+04  0.00000000000E+00 0. -1.
          4    1    6    6  502    0  0.14067333911E+03  0.14076660407E+03  0.15499251220E+02  0.19961075108E+03  0.00000000000E+00 0. -1.
          3    1    5    5  503    0  0.23438074105E+03 -0.24653190495E+03  0.14901932967E+03  0.37137457176E+03  0.00000000000E+00 0. -1.
         -4    1    5    5    0  503  0.20225540081E+03 -0.11735714216E+03  0.10699403183E+03  0.25715300663E+03  0.00000000000E+00 0.  1.
         -3    1    6    6    0  502  0.24347017956E+03  0.32538565248E+03 -0.68435452880E+02  0.41211280299E+03  0.00000000000E+00 0.  1.
<mgrwt>
<rscale>  0 0.25239766E+04</rscale>
<asrwt>0</asrwt>
<pdfrwt beam="1">  1        4 0.40145100E+00 0.25239766E+04</pdfrwt>
<pdfrwt beam="2">  1       -4 0.93896929E-01 0.25239766E+04</pdfrwt>
<totfact> 0.11337540E-02</totfact>
</mgrwt>
</event>
<event>
12    1  0.1549527E-007  0.1516598E+04  0.7818608E-02  0.8873490E-01
         -1   -1    0    0    0  501 -0.00000000000E+00  0.00000000000E+00  0.61183104083E+03  0.61183104083E+03  0.00000000000E+00 0.  1.
          1   -1    0    0  501    0  0.00000000000E+00 -0.00000000000E+00 -0.93983093455E+03  0.93983093455E+03  0.00000000000E+00 0. -1.
         23    2    1    2    0    0  0.40839629729E+03  0.16490327414E+03 -0.75061431204E+02  0.45576096718E+03  0.90017860920E+02 0.  0.
        254    2    1    2    0    0 -0.40839629729E+03 -0.16490327414E+03 -0.25293846252E+03  0.10959010082E+04  0.97110273839E+03 0.  0.
        -24    2    4    4    0    0 -0.38212968620E+03 -0.33809546357E+03 -0.54215996105E+03  0.74855945534E+03  0.77924291860E+02 0.  0.
         24    2    4    4    0    0 -0.26266611091E+02  0.17319218943E+03  0.28922149852E+03  0.34734155286E+03  0.79445640532E+02 0.  0.
         11    1    3    3    0    0  0.32516951400E+02  0.31087162557E+02  0.13684521232E+02  0.47021589994E+02  0.00000000000E+00 0.  1.
        -11    1    3    3    0    0  0.37587934589E+03  0.13381611158E+03 -0.88745952435E+02  0.40873937718E+03  0.00000000000E+00 0. -1.
          2    1    6    6  502    0  0.13596130449E+02  0.12728244482E+03  0.16313729824E+03  0.20736309605E+03  0.00000000000E+00 0. -1.
          1    1    5    5  503    0 -0.11773453892E+03 -0.15197703839E+03 -0.18539648170E+03  0.26707732453E+03  0.00000000000E+00 0. -1.
         -2    1    5    5    0  503 -0.26439514728E+03 -0.18611842518E+03 -0.35676347934E+03  0.48148213081E+03  0.00000000000E+00 0.  1.
         -1    1    6    6    0  502 -0.39862741540E+02  0.45909744609E+02  0.12608420028E+03  0.13997845682E+03  0.00000000000E+00 0.  1.
<mgrwt>
<rscale>  0 0.15165985E+04</rscale>
<asrwt>0</asrwt>
<pdfrwt beam="1">  1        1 0.14458937E+00 0.15165985E+04</pdfrwt>
<pdfrwt beam="2">  1       -1 0.94127852E-01 0.15165985E+04</pdfrwt>
<totfact> 0.17841250E+01</totfact>
</mgrwt>
</event>
<event>
12    1  0.1549527E-007  0.1538110E+04  0.7818608E-02  0.8859498E-01
         -2   -1    0    0    0  501 -0.00000000000E+00  0.00000000000E+00  0.16533928651E+03  0.16533928651E+03  0.00000000000E+00 0.  1.
          2   -1    0    0  501    0  0.00000000000E+00 -0.00000000000E+00 -0.35771646175E+04  0.35771646175E+04  0.00000000000E+00 0. -1.
         23    2    1    2    0    0 -0.32670046666E+03 -0.21559024703E+03 -0.38230812861E+03  0.55485193917E+03  0.92134790782E+02 0.  0.
        254    2    1    2    0    0  0.32670046666E+03  0.21559024703E+03 -0.30295172024E+04  0.31876519648E+04  0.91100945104E+03 0.  0.
        -24    2    4    4    0    0  0.14004209298E+03 -0.33040813239E+03 -0.16457840708E+04  0.16863426802E+04  0.79781612361E+02 0.  0.
         24    2    4    4    0    0  0.18665837368E+03  0.54599837942E+03 -0.13837331316E+04  0.15013092847E+04  0.79098734931E+02 0.  0.
         11    1    3    3    0    0 -0.28041722786E+03 -0.21881986138E+03 -0.33585574941E+03  0.48919836246E+03  0.00000000000E+00 0.  1.
        -11    1    3    3    0    0 -0.46283238795E+02  0.32296143533E+01 -0.46452379198E+02  0.65653576714E+02  0.00000000000E+00 0. -1.
          4    1    6    6  502    0  0.39164631303E+02  0.89947936964E+02 -0.31717354770E+03  0.33199933595E+03  0.00000000000E+00 0. -1.
          1    1    5    5  503    0  0.56635789011E+01 -0.20668979622E+02 -0.39314717647E+02  0.44776443229E+02  0.00000000000E+00 0. -1.
         -2    1    5    5    0  503  0.13437851408E+03 -0.30973915277E+03 -0.16064693531E+04  0.16415662369E+04  0.00000000000E+00 0.  1.
         -3    1    6    6    0  502  0.14749374238E+03  0.45605044245E+03 -0.10665595839E+04  0.11693099487E+04  0.00000000000E+00 0.  1.
<mgrwt>
<rscale>  0 0.15381103E+04</rscale>
<asrwt>0</asrwt>
<pdfrwt beam="1">  1        2 0.55033298E+00 0.15381103E+04</pdfrwt>
<pdfrwt beam="2">  1       -2 0.25436815E-01 0.15381103E+04</pdfrwt>
<totfact> 0.97415658E+00</totfact>
</mgrwt>
</event>
<event>
12    1  0.1549527E-007  0.1836841E+04  0.7818608E-02  0.8686949E-01
          1   -1    0    0  501    0  0.00000000000E+00  0.00000000000E+00  0.23891803278E+04  0.23891803278E+04  0.00000000000E+00 0. -1.
         -1   -1    0    0    0  501 -0.00000000000E+00 -0.00000000000E+00 -0.35304850711E+03  0.35304850711E+03  0.00000000000E+00 0.  1.
         23    2    1    2    0    0 -0.34537572737E+02  0.31504124475E+03 -0.14602844172E+03  0.36114533110E+03  0.93047378049E+02 0.  0.
        254    2    1    2    0    0  0.34537572737E+02 -0.31504124475E+03  0.21821602625E+04  0.23810835039E+04  0.89849396854E+03 0.  0.
        -24    2    4    4    0    0 -0.70379901475E+02  0.16881308286E+03  0.16027248154E+04  0.16149574910E+04  0.76874418902E+02 0.  0.
         24    2    4    4    0    0  0.10491747421E+03 -0.48385432761E+03  0.57943544701E+03  0.76612601285E+03  0.77980405005E+02 0.  0.
         11    1    3    3    0    0  0.19151551870E+02  0.16582958315E+03 -0.10548605594E+03  0.19746782164E+03  0.00000000000E+00 0.  1.
        -11    1    3    3    0    0 -0.53689124607E+02  0.14921166160E+03 -0.40542385785E+02  0.16367750946E+03  0.00000000000E+00 0. -1.
          2    1    6    6  502    0  0.31162364405E+02 -0.64013544103E+02  0.53048291913E+02  0.88785967691E+02  0.00000000000E+00 0. -1.
          1    1    5    5  503    0  0.37636352834E+01 -0.67475737506E+01  0.53476921936E+02  0.54032174506E+02  0.00000000000E+00 0. -1.
         -2    1    5    5    0  503 -0.74143536759E+02  0.17556065661E+03  0.15492478935E+04  0.15609253165E+04  0.00000000000E+00 0.  1.
         -1    1    6    6    0  502  0.73755109807E+02 -0.41984078350E+03  0.52638715510E+03  0.67734004515E+03  0.00000000000E+00 0.  1.
<mgrwt>
<rscale>  0 0.18368414E+04</rscale>
<asrwt>0</asrwt>
<pdfrwt beam="1">  1        1 0.36756619E+00 0.18368414E+04</pdfrwt>
<pdfrwt beam="2">  1       -1 0.54315157E-01 0.18368414E+04</pdfrwt>
<totfact> 0.52079433E+00</totfact>
</mgrwt>
</event>
<event>
12    1  0.1549527E-007  0.1786358E+04  0.7818608E-02  0.8713588E-01
          2   -1    0    0  501    0  0.00000000000E+00  0.00000000000E+00  0.77036347578E+03  0.77036347578E+03  0.00000000000E+00 0.  1.
         -2   -1    0    0    0  501 -0.00000000000E+00 -0.00000000000E+00 -0.10355739952E+04  0.10355739952E+04  0.00000000000E+00 0. -1.
         23    2    1    2    0    0 -0.41516618059E+03  0.50322831601E+03 -0.18238053976E+03  0.68444147543E+03  0.97958034187E+02 0.  0.
        254    2    1    2    0    0  0.41516618059E+03 -0.50322831601E+03 -0.82829979637E+02  0.11214959955E+04  0.90845515405E+03 0.  0.
        -24    2    4    4    0    0  0.50641046521E+03 -0.94849314976E+02  0.25346338729E+03  0.57976954615E+03  0.80256377427E+02 0.  0.
         24    2    4    4    0    0 -0.91244284621E+02 -0.40837900104E+03 -0.33629336693E+03  0.54172644938E+03  0.72631875622E+02 0.  0.
         11    1    3    3    0    0 -0.33904067097E+03  0.46190938585E+03 -0.16236522374E+03  0.59554288106E+03  0.00000000000E+00 0.  1.
        -11    1    3    3    0    0 -0.76125509618E+02  0.41318930165E+02 -0.20015316027E+02  0.88898594366E+02  0.00000000000E+00 0. -1.
          4    1    6    6  502    0 -0.90527798587E+02 -0.37397900574E+03 -0.32965744991E+03  0.50668492511E+03  0.00000000000E+00 0. -1.
          1    1    5    5  503    0  0.23324429755E+03 -0.70397449345E+01  0.13285069784E+03  0.26851772431E+03  0.00000000000E+00 0. -1.
         -2    1    5    5    0  503  0.27316616765E+03 -0.87809570042E+02  0.12061268945E+03  0.31125182184E+03  0.00000000000E+00 0.  1.
         -3    1    6    6    0  502 -0.71648603453E+00 -0.34399995297E+02 -0.66359170160E+01  0.35041524272E+02  0.00000000000E+00 0.  1.
<mgrwt>
<rscale>  0 0.17863576E+04</rscale>
<asrwt>0</asrwt>
<pdfrwt beam="1">  1        2 0.11851746E+00 0.17863576E+04</pdfrwt>
<pdfrwt beam="2">  1       -2 0.15931908E+00 0.17863576E+04</pdfrwt>
<totfact> 0.87166146E+00</totfact>
</mgrwt>
</event>
<event>
12    1  0.1549527E-007  0.1564571E+04  0.7818608E-02  0.8842614E-01
          2   -1    0    0  501    0  0.00000000000E+00  0.00000000000E+00  0.12420706828E+04  0.12420706828E+04  0.00000000000E+00 0. -1.
         -2   -1    0    0    0  501 -0.00000000000E+00 -0.00000000000E+00 -0.49270161073E+03  0.49270161073E+03  0.00000000000E+00 0.  1.
         23    2    1    2    0    0 -0.20573189551E+03  0.17124618444E+03  0.74465074647E+03  0.79683929925E+03  0.93793742263E+02 0.  0.
        254    2    1    2    0    0  0.20573189551E+03 -0.17124618444E+03  0.47183256073E+01  0.93793299429E+03  0.89891332767E+03 0.  0.
        -24    2    4    4    0    0 -0.64048124944E+02  0.13278653396E+01  0.40592917970E+03  0.41825260385E+03  0.77799846821E+02 0.  0.
         24    2    4    4    0    0  0.26978002045E+03 -0.17257404978E+03 -0.40121085409E+03  0.51968039044E+03  0.80836233662E+02 0.  0.
         11    1    3    3    0    0 -0.15276692033E+03  0.16306997268E+03  0.65850628904E+03  0.69538484355E+03  0.00000000000E+00 0. -1.
        -11    1    3    3    0    0 -0.52964975174E+02  0.81762117637E+01  0.86144457434E+02  0.10145445570E+03  0.00000000000E+00 0.  1.
          2    1    6    6  502    0  0.11166881610E+03 -0.38758058805E+02 -0.19059956931E+03  0.22427730030E+03  0.00000000000E+00 0. -1.
          1    1    5    5  503    0 -0.51508543099E+02 -0.21801588019E+02  0.13611738023E+03  0.14716106976E+03  0.00000000000E+00 0. -1.
         -2    1    5    5    0  503 -0.12539581846E+02  0.23129453358E+02  0.26981179946E+03  0.27109153409E+03  0.00000000000E+00 0.  1.
         -1    1    6    6    0  502  0.15811120436E+03 -0.13381599097E+03 -0.21061128478E+03  0.29540309013E+03  0.00000000000E+00 0.  1.
<mgrwt>
<rscale>  0 0.15645705E+04</rscale>
<asrwt>0</asrwt>
<pdfrwt beam="1">  1        2 0.19108780E+00 0.15645705E+04</pdfrwt>
<pdfrwt beam="2">  1       -2 0.75800248E-01 0.15645705E+04</pdfrwt>
<totfact> 0.26814307E+01</totfact>
</mgrwt>
</event>
<event>
12    1  0.1549527E-007  0.1695175E+04  0.7818608E-02  0.8764121E-01
          2   -1    0    0  501    0  0.00000000000E+00  0.00000000000E+00  0.16487500735E+04  0.16487500735E+04  0.00000000000E+00 0. -1.
         -2   -1    0    0    0  501 -0.00000000000E+00 -0.00000000000E+00 -0.43572687047E+03  0.43572687047E+03  0.00000000000E+00 0.  1.
         23    2    1    2    0    0  0.25618556540E+03  0.11989963394E+03 -0.22914319610E+03  0.37542463494E+03  0.91815500106E+02 0.  0.
        254    2    1    2    0    0 -0.25618556540E+03 -0.11989963394E+03  0.14421663991E+04  0.17090523090E+04  0.87235824413E+03 0.  0.
        -24    2    4    4    0    0 -0.28779310847E+03  0.21263655286E+03  0.12758163020E+04  0.13272262321E+04  0.76046418393E+02 0.  0.
         24    2    4    4    0    0  0.31607543070E+02 -0.33253618680E+03  0.16635009713E+03  0.38182607696E+03  0.80866840706E+02 0.  0.
         11    1    3    3    0    0  0.26402102956E+03  0.11484113584E+03 -0.21982740235E+03  0.36224256701E+03  0.00000000000E+00 0.  1.
        -11    1    3    3    0    0 -0.78354641585E+01  0.50584981043E+01 -0.93157937478E+01  0.13182067926E+02  0.00000000000E+00 0. -1.
          4    1    6    6  502    0  0.34714412280E+02 -0.10090977906E+03  0.22227737765E+02  0.10900434054E+03  0.00000000000E+00 0. -1.
          1    1    5    5  503    0 -0.29721711634E+02 -0.25104055695E+01  0.10404797402E+03  0.10823891711E+03  0.00000000000E+00 0. -1.
         -2    1    5    5    0  503 -0.25807139684E+03  0.21514695843E+03  0.11717683280E+04  0.12189873150E+04  0.00000000000E+00 0.  1.
         -3    1    6    6    0  502 -0.31068692099E+01 -0.23162640773E+03  0.14412235936E+03  0.27282173642E+03  0.00000000000E+00 0.  1.
<mgrwt>
<rscale>  0 0.16951752E+04</rscale>
<asrwt>0</asrwt>
<pdfrwt beam="1">  1        2 0.25365385E+00 0.16951752E+04</pdfrwt>
<pdfrwt beam="2">  1       -2 0.67034904E-01 0.16951752E+04</pdfrwt>
<totfact> 0.20361981E+01</totfact>
</mgrwt>
</event>
<event>
12    1  0.1549527E-007  0.4066439E+04  0.7818608E-02  0.7991276E-01
          2   -1    0    0  501    0  0.00000000000E+00  0.00000000000E+00  0.24953432828E+04  0.24953432828E+04  0.00000000000E+00 0.  1.
         -2   -1    0    0    0  501 -0.00000000000E+00 -0.00000000000E+00 -0.16566783387E+04  0.16566783387E+04  0.00000000000E+00 0. -1.
         23    2    1    2    0    0 -0.13034847522E+04  0.91667421991E+03 -0.71599333235E+03  0.17495316224E+04  0.94076145137E+02 0.  0.
        254    2    1    2    0    0  0.13034847522E+04 -0.91667421991E+03  0.15546582765E+04  0.24024899991E+04  0.90312331091E+03 0.  0.
        -24    2    4    4    0    0  0.80702943625E+03 -0.44511327680E+02  0.83541493610E+03  0.11652559049E+04  0.81396800793E+02 0.  0.
         24    2    4    4    0    0  0.49645531592E+03 -0.87216289223E+03  0.71924334036E+03  0.12372340942E+04  0.79380286971E+02 0.  0.
         13    1    3    3    0    0 -0.38734048641E+03  0.22434857335E+03 -0.21788115502E+03  0.49783243415E+03  0.00000000000E+00 0.  1.
        -13    1    3    3    0    0 -0.91614426576E+03  0.69232564656E+03 -0.49811217734E+03  0.12516991882E+04  0.00000000000E+00 0. -1.
          4    1    6    6  502    0  0.20850434359E+03 -0.42772289420E+03  0.37172306325E+03  0.60382031373E+03  0.00000000000E+00 0. -1.
          3    1    5    5  503    0  0.35107175997E+03  0.14456334534E+02  0.39369409649E+03  0.52768874147E+03  0.00000000000E+00 0. -1.
         -4    1    5    5    0  503  0.45595767629E+03 -0.58967662214E+02  0.44172083961E+03  0.63756716344E+03  0.00000000000E+00 0.  1.
         -3    1    6    6    0  502  0.28795097232E+03 -0.44443999802E+03  0.34752027711E+03  0.63341378049E+03  0.00000000000E+00 0.  1.
<mgrwt>
<rscale>  0 0.40664388E+04</rscale>
<asrwt>0</asrwt>
<pdfrwt beam="1">  1        2 0.38389897E+00 0.40664388E+04</pdfrwt>
<pdfrwt beam="2">  1       -2 0.25487359E+00 0.40664388E+04</pdfrwt>
<totfact> 0.16485704E-01</totfact>
</mgrwt>
</event>
<event>
12    1  0.1549527E-007  0.2371710E+04  0.7818608E-02  0.8450171E-01
         -1   -1    0    0    0  501 -0.00000000000E+00  0.00000000000E+00  0.13318590536E+04  0.13318590536E+04  0.00000000000E+00 0.  1.
          1   -1    0    0  501    0  0.00000000000E+00 -0.00000000000E+00 -0.10558568095E+04  0.10558568095E+04  0.00000000000E+00 0. -1.
         23    2    1    2    0    0  0.24814940485E+03  0.19192392357E+03  0.10893975238E+04  0.11371577569E+04  0.89038641347E+02 0.  0.
        254    2    1    2    0    0 -0.24814940485E+03 -0.19192392357E+03 -0.81339527973E+03  0.12505581062E+04  0.89658840973E+03 0.  0.
        -24    2    4    4    0    0 -0.45347889661E+03 -0.34822480869E+03 -0.79058678237E+03  0.97904777149E+03  0.81261622766E+02 0.  0.
         24    2    4    4    0    0  0.20532949176E+03  0.15630088512E+03 -0.22808497354E+02  0.27151033476E+03  0.81286330050E+02 0.  0.
         11    1    3    3    0    0  0.62584723180E+02  0.10149596824E+03  0.37102259453E+03  0.38971277217E+03  0.00000000000E+00 0. -1.
        -11    1    3    3    0    0  0.18556468167E+03  0.90427955328E+02  0.71837492925E+03  0.74744498471E+03  0.00000000000E+00 0.  1.
          4    1    6    6  502    0  0.36803002644E+02  0.15030563537E+01 -0.21552877975E+02  0.42676067427E+02  0.00000000000E+00 0. -1.
          3    1    5    5  503    0 -0.59157971639E+02 -0.77296818695E+02 -0.10671037631E+03  0.14443534263E+03  0.00000000000E+00 0. -1.
         -4    1    5    5    0  503 -0.39432092497E+03 -0.27092799000E+03 -0.68387640606E+03  0.83461242885E+03  0.00000000000E+00 0.  1.
         -3    1    6    6    0  502  0.16852648912E+03  0.15479782877E+03 -0.12556193784E+01  0.22883426733E+03  0.00000000000E+00 0.  1.
<mgrwt>
<rscale>  0 0.23717103E+04</rscale>
<asrwt>0</asrwt>
<pdfrwt beam="1">  1        1 0.16243951E+00 0.23717103E+04</pdfrwt>
<pdfrwt beam="2">  1       -1 0.20490139E+00 0.23717103E+04</pdfrwt>
<totfact> 0.17135507E+00</totfact>
</mgrwt>
</event>
<event>
12    1  0.1549527E-007  0.1678636E+04  0.7818608E-02  0.8773644E-01
         -1   -1    0    0    0  501 -0.00000000000E+00  0.00000000000E+00  0.28856242789E+03  0.28856242789E+03  0.00000000000E+00 0.  1.
          1   -1    0    0  501    0  0.00000000000E+00 -0.00000000000E+00 -0.24412552727E+04  0.24412552727E+04  0.00000000000E+00 0. -1.
         23    2    1    2    0    0  0.41263934409E+03  0.14152325262E+03 -0.14117488847E+04  0.14804202146E+04  0.91153931221E+02 0.  0.
        254    2    1    2    0    0 -0.41263934409E+03 -0.14152325262E+03 -0.74094396015E+03  0.12493974860E+04  0.90647452614E+03 0.  0.
        -24    2    4    4    0    0 -0.15697589774E+03 -0.23073089455E+03  0.14157153506E+03  0.32289212075E+03  0.79615601037E+02 0.  0.
         24    2    4    4    0    0 -0.25566344635E+03  0.89207641928E+02 -0.88251549521E+03  0.92650536522E+03  0.79099881913E+02 0.  0.
         13    1    3    3    0    0  0.31120609743E+03  0.14678094453E+03 -0.10880096843E+04  0.11411217962E+04  0.00000000000E+00 0. -1.
        -13    1    3    3    0    0  0.10143324666E+03 -0.52576919103E+01 -0.32373920045E+03  0.33929841844E+03  0.00000000000E+00 0.  1.
          4    1    6    6  502    0 -0.32755319128E+02 -0.42685654822E+01 -0.19403281065E+03  0.19682444764E+03  0.00000000000E+00 0. -1.
          1    1    5    5  503    0 -0.15030068734E+03 -0.18655712586E+03  0.14145909733E+03  0.27821670338E+03  0.00000000000E+00 0. -1.
         -2    1    5    5    0  503 -0.66752103986E+01 -0.44173768695E+02  0.11243773452E+00  0.44675417367E+02  0.00000000000E+00 0.  1.
         -3    1    6    6    0  502 -0.22290812722E+03  0.93476207410E+02 -0.68848268457E+03  0.72968091758E+03  0.00000000000E+00 0.  1.
<mgrwt>
<rscale>  0 0.16786358E+04</rscale>
<asrwt>0</asrwt>
<pdfrwt beam="1">  1        1 0.37557773E+00 0.16786358E+04</pdfrwt>
<pdfrwt beam="2">  1       -1 0.44394220E-01 0.16786358E+04</pdfrwt>
<totfact> 0.71346382E+00</totfact>
</mgrwt>
</event>
<event>
12    1  0.1549527E-007  0.1531295E+04  0.7818608E-02  0.8863905E-01
         -2   -1    0    0    0  501 -0.00000000000E+00  0.00000000000E+00  0.31739643299E+03  0.31739643299E+03  0.00000000000E+00 0.  1.
          2   -1    0    0  501    0  0.00000000000E+00 -0.00000000000E+00 -0.18469525157E+04  0.18469525157E+04  0.00000000000E+00 0. -1.
         23    2    1    2    0    0  0.29388595980E+03  0.39375666124E+03 -0.40774141985E+03  0.64502364813E+03  0.91592442612E+02 0.  0.
        254    2    1    2    0    0 -0.29388595980E+03 -0.39375666124E+03 -0.11218146628E+04  0.15193253005E+04  0.89914846687E+03 0.  0.
        -24    2    4    4    0    0 -0.14404607491E+03 -0.22531119174E+03  0.82836789763E+02  0.29106810110E+03  0.79651120018E+02 0.  0.
         24    2    4    4    0    0 -0.14983988490E+03 -0.16844546949E+03 -0.12046514526E+04  0.12282571994E+04  0.81269664857E+02 0.  0.
         11    1    3    3    0    0  0.62999018724E+02  0.48656283590E+02 -0.34663085600E+02  0.86820733677E+02  0.00000000000E+00 0. -1.
        -11    1    3    3    0    0  0.23088694108E+03  0.34510037765E+03 -0.37307833425E+03  0.55820291445E+03  0.00000000000E+00 0.  1.
          4    1    6    6  502    0 -0.35084714054E+02  0.88210992370E+00 -0.17495144590E+03  0.17843688997E+03  0.00000000000E+00 0. -1.
          3    1    5    5  503    0 -0.11332335437E+01 -0.28332684839E+01 -0.10282682941E+02  0.10725912410E+02  0.00000000000E+00 0. -1.
         -4    1    5    5    0  503 -0.14291284136E+03 -0.22247792326E+03  0.93119472704E+02  0.28034218869E+03  0.00000000000E+00 0.  1.
         -3    1    6    6    0  502 -0.11475517084E+03 -0.16932757942E+03 -0.10297000067E+04  0.10498203095E+04  0.00000000000E+00 0.  1.
<mgrwt>
<rscale>  0 0.15312951E+04</rscale>
<asrwt>0</asrwt>
<pdfrwt beam="1">  1        2 0.28414654E+00 0.15312951E+04</pdfrwt>
<pdfrwt beam="2">  1       -2 0.48830221E-01 0.15312951E+04</pdfrwt>
<totfact> 0.31108293E+01</totfact>
</mgrwt>
</event>
<event>
12    1  0.1549527E-007  0.3187405E+04  0.7818608E-02  0.8192151E-01
         -1   -1    0    0    0  501 -0.00000000000E+00  0.00000000000E+00  0.13091675128E+04  0.13091675128E+04  0.00000000000E+00 0.  1.
          1   -1    0    0  501    0  0.00000000000E+00 -0.00000000000E+00 -0.19400785425E+04  0.19400785425E+04  0.00000000000E+00 0. -1.
         23    2    1    2    0    0  0.58255774644E+03 -0.81785466619E+03  0.79623753087E+03  0.12847108560E+04  0.90708295693E+02 0.  0.
        254    2    1    2    0    0 -0.58255774644E+03  0.81785466619E+03 -0.14271485606E+04  0.19645351993E+04  0.90243323976E+03 0.  0.
        -24    2    4    4    0    0  0.96567442904E+02  0.56063914475E+03 -0.88362964154E+03  0.10537547885E+04  0.77176999013E+02 0.  0.
         24    2    4    4    0    0 -0.67912518934E+03  0.25721552144E+03 -0.54351891903E+03  0.91078041077E+03  0.82081021173E+02 0.  0.
         13    1    3    3    0    0  0.45047368880E+03 -0.56185656305E+03  0.56837117030E+03  0.91741764152E+03  0.00000000000E+00 0.  1.
        -13    1    3    3    0    0  0.13208405764E+03 -0.25599810314E+03  0.22786636057E+03  0.36729321444E+03  0.00000000000E+00 0. -1.
          2    1    6    6  502    0 -0.46958167677E+03  0.21361127347E+03 -0.36317007974E+03  0.63089558100E+03  0.00000000000E+00 0. -1.
          3    1    5    5  503    0  0.14347608096E+02  0.12232919126E+03 -0.25284927937E+03  0.28125263193E+03  0.00000000000E+00 0. -1.
         -4    1    5    5    0  503  0.82219834808E+02  0.43830995349E+03 -0.63078036217E+03  0.77250215655E+03  0.00000000000E+00 0.  1.
         -1    1    6    6    0  502 -0.20954351257E+03  0.43604247970E+02 -0.18034883929E+03  0.27988482977E+03  0.00000000000E+00 0.  1.
<mgrwt>
<rscale>  0 0.31874051E+04</rscale>
<asrwt>0</asrwt>
<pdfrwt beam="1">  1        1 0.29847362E+00 0.31874051E+04</pdfrwt>
<pdfrwt beam="2">  1       -1 0.20141039E+00 0.31874051E+04</pdfrwt>
<totfact> 0.40340800E-01</totfact>
</mgrwt>
</event>
<event>
12    1  0.1549527E-007  0.3002905E+04  0.7818608E-02  0.8242902E-01
          2   -1    0    0  501    0  0.00000000000E+00  0.00000000000E+00  0.26634031293E+04  0.26634031293E+04  0.00000000000E+00 0. -1.
         -2   -1    0    0    0  501 -0.00000000000E+00 -0.00000000000E+00 -0.84642045110E+03  0.84642045110E+03  0.00000000000E+00 0.  1.
         23    2    1    2    0    0 -0.11940838379E+04  0.36328324014E+03  0.14773545216E+04  0.19362140792E+04  0.92399422468E+02 0.  0.
        254    2    1    2    0    0  0.11940838379E+04 -0.36328324014E+03  0.33962815661E+03  0.15736095012E+04  0.89615213721E+03 0.  0.
        -24    2    4    4    0    0  0.67657481626E+03  0.19249868909E+03  0.38998537310E+03  0.80832242981E+03  0.80543975549E+02 0.  0.
         24    2    4    4    0    0  0.51750902168E+03 -0.55578192924E+03 -0.50357216493E+02  0.76528707143E+03  0.80120609424E+02 0.  0.
         13    1    3    3    0    0 -0.10830148695E+04  0.30951555020E+03  0.13605519415E+04  0.17663019756E+04  0.00000000000E+00 0.  1.
        -13    1    3    3    0    0 -0.11106896841E+03  0.53767689943E+02  0.11680258011E+03  0.16991210359E+03  0.00000000000E+00 0. -1.
          4    1    6    6  502    0  0.31597023116E+03 -0.34662053430E+03  0.76815953065E+01  0.46908633393E+03  0.00000000000E+00 0. -1.
          3    1    5    5  503    0  0.58933537434E+03  0.17328210885E+03  0.30844473969E+03  0.68737255556E+03  0.00000000000E+00 0. -1.
         -4    1    5    5    0  503  0.87239441914E+02  0.19216580243E+02  0.81540633416E+02  0.12094987424E+03  0.00000000000E+00 0.  1.
         -3    1    6    6    0  502  0.20153879052E+03 -0.20916139494E+03 -0.58038811800E+02  0.29620073749E+03  0.00000000000E+00 0.  1.
<mgrwt>
<rscale>  0 0.30029045E+04</rscale>
<asrwt>0</asrwt>
<pdfrwt beam="1">  1        2 0.40975432E+00 0.30029045E+04</pdfrwt>
<pdfrwt beam="2">  1       -2 0.13021853E+00 0.30029045E+04</pdfrwt>
<totfact> 0.10329518E+00</totfact>
</mgrwt>
</event>
<event>
12    1  0.1549527E-007  0.2042700E+04  0.7818608E-02  0.8586913E-01
          1   -1    0    0  501    0  0.00000000000E+00  0.00000000000E+00  0.70849792348E+03  0.70849792348E+03  0.00000000000E+00 0. -1.
         -1   -1    0    0    0  501 -0.00000000000E+00 -0.00000000000E+00 -0.14723483986E+04  0.14723483986E+04  0.00000000000E+00 0.  1.
         23    2    1    2    0    0 -0.51057210416E+03  0.56784699153E+03 -0.78483924033E+02  0.77305144904E+03  0.91185180711E+02 0.  0.
        254    2    1    2    0    0  0.51057210416E+03 -0.56784699153E+03 -0.68536655109E+03  0.14077948730E+04  0.96385943781E+03 0.  0.
        -24    2    4    4    0    0  0.71449120787E+03 -0.57175192612E+03 -0.30445290841E+03  0.96805403696E+03  0.83899308006E+02 0.  0.
         24    2    4    4    0    0 -0.20391910371E+03  0.39049345812E+01 -0.38091364268E+03  0.43974083608E+03  0.81722398190E+02 0.  0.
         11    1    3    3    0    0 -0.28087857761E+03  0.30647905268E+03 -0.88153620090E+02  0.42496264051E+03  0.00000000000E+00 0.  1.
        -11    1    3    3    0    0 -0.22969352655E+03  0.26136793886E+03  0.96696960566E+01  0.34808880853E+03  0.00000000000E+00 0. -1.
          4    1    6    6  502    0 -0.12217665102E+03 -0.22283836151E+02 -0.28583023599E+03  0.31164503399E+03  0.00000000000E+00 0. -1.
          3    1    5    5  503    0  0.36744780682E+03 -0.25510140756E+03 -0.11808071019E+03  0.46264205709E+03  0.00000000000E+00 0. -1.
         -4    1    5    5    0  503  0.34704340106E+03 -0.31665051856E+03 -0.18637219823E+03  0.50541197986E+03  0.00000000000E+00 0.  1.
         -3    1    6    6    0  502 -0.81742452691E+02  0.26188770732E+02 -0.95083406692E+02  0.12809580209E+03  0.00000000000E+00 0.  1.
<mgrwt>
<rscale>  0 0.20427000E+04</rscale>
<asrwt>0</asrwt>
<pdfrwt beam="1">  1        1 0.10899968E+00 0.20427000E+04</pdfrwt>
<pdfrwt beam="2">  1       -1 0.22651513E+00 0.20427000E+04</pdfrwt>
<totfact> 0.24608890E+00</totfact>
</mgrwt>
</event>
<event>
12    1  0.1549527E-007  0.1170884E+04  0.7818608E-02  0.9138731E-01
          2   -1    0    0  501    0  0.00000000000E+00  0.00000000000E+00  0.13647372434E+04  0.13647372434E+04  0.00000000000E+00 0. -1.
         -2   -1    0    0    0  501 -0.00000000000E+00 -0.00000000000E+00 -0.25114154535E+03  0.25114154535E+03  0.00000000000E+00 0.  1.
         23    2    1    2    0    0 -0.14449775693E+03  0.30232947176E+01 -0.22438151114E+02  0.17173448645E+03  0.90002895194E+02 0.  0.
        254    2    1    2    0    0  0.14449775693E+03 -0.30232947176E+01  0.11360338492E+04  0.14441443023E+04  0.87982448098E+03 0.  0.
        -24    2    4    4    0    0 -0.25723559687E+03  0.18935815851E+03  0.15491399561E+03  0.36371292050E+03  0.79133292713E+02 0.  0.
         24    2    4    4    0    0  0.40173335380E+03 -0.19238145322E+03  0.98111985357E+03  0.10804313818E+04  0.79595807809E+02 0.  0.
         13    1    3    3    0    0 -0.78875121270E+02  0.44832010041E+02 -0.24225543616E+02  0.93904583718E+02  0.00000000000E+00 0.  1.
        -13    1    3    3    0    0 -0.65622635658E+02 -0.41808715323E+02  0.17873925017E+01  0.77829902735E+02  0.00000000000E+00 0. -1.
          2    1    6    6  502    0  0.53147287364E+02 -0.82573941860E+00  0.89093734498E+02  0.10374492531E+03  0.00000000000E+00 0. -1.
          1    1    5    5  503    0 -0.86071448429E+02  0.10388455111E+03  0.87803215181E+02  0.16096489925E+03  0.00000000000E+00 0. -1.
         -2    1    5    5    0  503 -0.17116414844E+03  0.85473607392E+02  0.67110780431E+02  0.20274802125E+03  0.00000000000E+00 0.  1.
         -1    1    6    6    0  502  0.34858606643E+03 -0.19155571380E+03  0.89202611907E+03  0.97668645650E+03  0.00000000000E+00 0.  1.
<mgrwt>
<rscale>  0 0.11708838E+04</rscale>
<asrwt>0</asrwt>
<pdfrwt beam="1">  1        2 0.20995957E+00 0.11708838E+04</pdfrwt>
<pdfrwt beam="2">  1       -2 0.38637162E-01 0.11708838E+04</pdfrwt>
<totfact> 0.94795761E+01</totfact>
</mgrwt>
</event>
<event>
12    1  0.1549527E-007  0.2883262E+04  0.7818608E-02  0.8277875E-01
          1   -1    0    0  501    0  0.00000000000E+00  0.00000000000E+00  0.37053434056E+04  0.37053434056E+04  0.00000000000E+00 0. -1.
         -1   -1    0    0    0  501 -0.00000000000E+00 -0.00000000000E+00 -0.56089281802E+03  0.56089281802E+03  0.00000000000E+00 0.  1.
         23    2    1    2    0    0 -0.10790984328E+04  0.35328654905E+03  0.23551415047E+04  0.26161832490E+04  0.91969951015E+02 0.  0.
        254    2    1    2    0    0  0.10790984328E+04 -0.35328654905E+03  0.78930908292E+03  0.16500529746E+04  0.90022284864E+03 0.  0.
        -24    2    4    4    0    0  0.10724448614E+04 -0.43311068256E+03  0.37179462822E+03  0.12174969053E+04  0.79653153976E+02 0.  0.
         24    2    4    4    0    0  0.66535714583E+01  0.79824133518E+02  0.41751445470E+03  0.43255606927E+03  0.79813976684E+02 0.  0.
         11    1    3    3    0    0 -0.21106709743E+03  0.89545303001E+02  0.55058070872E+03  0.59641160093E+03  0.00000000000E+00 0. -1.
        -11    1    3    3    0    0 -0.86803133540E+03  0.26374124604E+03  0.18045607960E+04  0.20197716481E+04  0.00000000000E+00 0.  1.
          2    1    6    6  502    0  0.22994502167E+00 -0.65768822286E+01  0.45955106022E+00  0.65969266889E+01  0.00000000000E+00 0. -1.
          1    1    5    5  503    0  0.24983094333E+03 -0.69332112783E+02  0.99708823673E+02  0.27778461374E+03  0.00000000000E+00 0. -1.
         -2    1    5    5    0  503  0.82261391803E+03 -0.36377856978E+03  0.27208580455E+03  0.93971229161E+03  0.00000000000E+00 0.  1.
         -1    1    6    6    0  502  0.64236264366E+01  0.86401015747E+02  0.41705490364E+03  0.42595914258E+03  0.00000000000E+00 0.  1.
<mgrwt>
<rscale>  0 0.28832624E+04</rscale>
<asrwt>0</asrwt>
<pdfrwt beam="1">  1        1 0.57005282E+00 0.28832624E+04</pdfrwt>
<pdfrwt beam="2">  1       -1 0.86291205E-01 0.28832624E+04</pdfrwt>
<totfact> 0.19443018E-01</totfact>
</mgrwt>
</event>
<event>
12    1  0.1549527E-007  0.2366253E+04  0.7818608E-02  0.8452247E-01
          1   -1    0    0  501    0  0.00000000000E+00  0.00000000000E+00  0.14553516834E+04  0.14553516834E+04  0.00000000000E+00 0. -1.
         -1   -1    0    0    0  501 -0.00000000000E+00 -0.00000000000E+00 -0.96182169606E+03  0.96182169606E+03  0.00000000000E+00 0.  1.
         23    2    1    2    0    0  0.44274090207E+03 -0.84305785894E+03  0.58567383869E+03  0.11216457756E+04  0.91155584607E+02 0.  0.
        254    2    1    2    0    0 -0.44274090207E+03  0.84305785894E+03 -0.92143851398E+02  0.12955276039E+04  0.87357611181E+03 0.  0.
        -24    2    4    4    0    0  0.25585296703E+03  0.29354063718E+03  0.84639780185E+01  0.39760244983E+03  0.79932613947E+02 0.  0.
         24    2    4    4    0    0 -0.69859386910E+03  0.54951722176E+03 -0.10060782942E+03  0.89792515403E+03  0.78390534860E+02 0.  0.
         13    1    3    3    0    0  0.19829673130E+03 -0.37781951221E+03  0.31586933521E+03  0.53088851407E+03  0.00000000000E+00 0. -1.
        -13    1    3    3    0    0  0.24444417077E+03 -0.46523834673E+03  0.26980450348E+03  0.59075726148E+03  0.00000000000E+00 0.  1.
          2    1    6    6  502    0 -0.68922789675E+03  0.52688156940E+03 -0.10113323529E+03  0.87342270013E+03  0.00000000000E+00 0. -1.
          1    1    5    5  503    0  0.20587821263E+03  0.27180795567E+03 -0.66767968566E+01  0.34104249415E+03  0.00000000000E+00 0. -1.
         -2    1    5    5    0  503  0.49974754392E+02  0.21732681517E+02  0.15140774875E+02  0.56559955678E+02  0.00000000000E+00 0.  1.
         -1    1    6    6    0  502 -0.93659723500E+01  0.22635652359E+02  0.52540587448E+00  0.24502453900E+02  0.00000000000E+00 0.  1.
<mgrwt>
<rscale>  0 0.23662534E+04</rscale>
<asrwt>0</asrwt>
<pdfrwt beam="1">  1        1 0.22390026E+00 0.23662534E+04</pdfrwt>
<pdfrwt beam="2">  1       -1 0.14797257E+00 0.23662534E+04</pdfrwt>
<totfact> 0.22856865E+00</totfact>
</mgrwt>
</event>
<event>
12    1  0.1549527E-007  0.1874112E+04  0.7818608E-02  0.8667851E-01
          1   -1    0    0  501    0  0.00000000000E+00  0.00000000000E+00  0.13753661304E+04  0.13753661304E+04  0.00000000000E+00 0. -1.
         -1   -1    0    0    0  501 -0.00000000000E+00 -0.00000000000E+00 -0.63842911141E+03  0.63842911141E+03  0.00000000000E+00 0.  1.
         23    2    1    2    0    0  0.12765903169E+03  0.15266870405E+03 -0.44993233285E+03  0.49948965932E+03  0.86291680080E+02 0.  0.
        254    2    1    2    0    0 -0.12765903169E+03 -0.15266870405E+03  0.11868693519E+04  0.15143055825E+04  0.91916156214E+03 0.  0.
        -24    2    4    4    0    0  0.37186857159E+03 -0.30960160068E+02  0.72215439327E+03  0.81681077205E+03  0.80175454883E+02 0.  0.
         24    2    4    4    0    0 -0.49952760327E+03 -0.12170854398E+03  0.46471495861E+03  0.69749481049E+03  0.78728786333E+02 0.  0.
         11    1    3    3    0    0  0.10539350194E+02  0.22873364825E+02 -0.11892698444E+02  0.27851481059E+02  0.00000000000E+00 0. -1.
        -11    1    3    3    0    0  0.11711968150E+03  0.12979533922E+03 -0.43803963441E+03  0.47163817826E+03  0.00000000000E+00 0.  1.
          2    1    6    6  502    0 -0.46253756662E+03 -0.12975238953E+03  0.44492883726E+03  0.65478114920E+03  0.00000000000E+00 0. -1.
          3    1    5    5  503    0  0.25564437879E+03 -0.57859804289E+02  0.48199751121E+03  0.54865599985E+03  0.00000000000E+00 0. -1.
         -4    1    5    5    0  503  0.11622419280E+03  0.26899644221E+02  0.24015688206E+03  0.26815477219E+03  0.00000000000E+00 0.  1.
         -1    1    6    6    0  502 -0.36990036652E+02  0.80438455518E+01  0.19786121356E+02  0.42713661293E+02  0.00000000000E+00 0.  1.
<mgrwt>
<rscale>  0 0.18741118E+04</rscale>
<asrwt>0</asrwt>
<pdfrwt beam="1">  1        1 0.21159479E+00 0.18741118E+04</pdfrwt>
<pdfrwt beam="2">  1       -1 0.98219864E-01 0.18741118E+04</pdfrwt>
<totfact> 0.74454114E+00</totfact>
</mgrwt>
</event>
<event>
12    1  0.1549527E-007  0.1378481E+04  0.7818608E-02  0.8969544E-01
          2   -1    0    0  501    0  0.00000000000E+00  0.00000000000E+00  0.18291525691E+04  0.18291525691E+04  0.00000000000E+00 0. -1.
         -2   -1    0    0    0  501 -0.00000000000E+00 -0.00000000000E+00 -0.25971177529E+03  0.25971177529E+03  0.00000000000E+00 0.  1.
         23    2    1    2    0    0 -0.18663839648E+03 -0.24512436578E+03  0.10003261666E+03  0.33712878151E+03  0.93431499988E+02 0.  0.
        254    2    1    2    0    0  0.18663839648E+03  0.24512436578E+03  0.14694081772E+04  0.17517355629E+04  0.90249501131E+03 0.  0.
        -24    2    4    4    0    0  0.31641574615E+03  0.35037039826E+03  0.14880980431E+04  0.15632761417E+04  0.80735177054E+02 0.  0.
         24    2    4    4    0    0 -0.12977734967E+03 -0.10524603249E+03 -0.18689865956E+02  0.18845942121E+03  0.85139617754E+02 0.  0.
         13    1    3    3    0    0 -0.74756209839E+02 -0.14200458103E+03  0.11040160175E+02  0.16085918400E+03  0.00000000000E+00 0.  1.
        -13    1    3    3    0    0 -0.11188218664E+03 -0.10311978475E+03  0.88992456481E+02  0.17626959751E+03  0.00000000000E+00 0. -1.
          4    1    6    6  502    0 -0.10520592888E+03 -0.11185255366E+03  0.50804299818E+01  0.15363948711E+03  0.00000000000E+00 0. -1.
          3    1    5    5  503    0  0.11498122814E+03  0.17504562909E+03  0.57624073932E+03  0.61311911138E+03  0.00000000000E+00 0. -1.
         -2    1    5    5    0  503  0.20143451801E+03  0.17532476917E+03  0.91185730381E+03  0.95015703031E+03  0.00000000000E+00 0.  1.
         -3    1    6    6    0  502 -0.24571420793E+02  0.66065211696E+01 -0.23770295938E+02  0.34819934100E+02  0.00000000000E+00 0.  1.
<mgrwt>
<rscale>  0 0.13784810E+04</rscale>
<asrwt>0</asrwt>
<pdfrwt beam="1">  1        2 0.28140808E+00 0.13784810E+04</pdfrwt>
<pdfrwt beam="2">  1       -2 0.39955659E-01 0.13784810E+04</pdfrwt>
<totfact> 0.48037507E+01</totfact>
</mgrwt>
</event>
<event>
12    1  0.1549527E-007  0.2135721E+04  0.7818608E-02  0.8545669E-01
          2   -1    0    0  501    0  0.00000000000E+00  0.00000000000E+00  0.35493762628E+03  0.35493762628E+03  0.00000000000E+00 0. -1.
         -2   -1    0    0    0  501 -0.00000000000E+00 -0.00000000000E+00 -0.32127503567E+04  0.32127503567E+04  0.00000000000E+00 0.  1.
         23    2    1    2    0    0 -0.61427561200E+03 -0.15569104855E+03 -0.18686325212E+03  0.66681256701E+03  0.90260148608E+02 0.  0.
        254    2    1    2    0    0  0.61427561200E+03  0.15569104855E+03 -0.26709494783E+04  0.29008754160E+04  0.93783411820E+03 0.  0.
        -24    2    4    4    0    0  0.17551396253E+03 -0.22152502368E+03 -0.19548146259E+04  0.19767688924E+04  0.80228082461E+02 0.  0.
         24    2    4    4    0    0  0.43876164948E+03  0.37721607223E+03 -0.71613485242E+03  0.92410652358E+03  0.79498363963E+02 0.  0.
         11    1    3    3    0    0 -0.56701058818E+02 -0.28118137570E+02 -0.44532387065E+02  0.77387164499E+02  0.00000000000E+00 0.  1.
        -11    1    3    3    0    0 -0.55757455319E+03 -0.12757291098E+03 -0.14233086505E+03  0.58942540251E+03  0.00000000000E+00 0. -1.
          4    1    6    6  502    0  0.10989093745E+03  0.57676142699E+02 -0.17981598288E+03  0.21848648303E+03  0.00000000000E+00 0. -1.
          3    1    5    5  503    0  0.13881612737E+02 -0.69063717791E+02 -0.54958572153E+03  0.55408208922E+03  0.00000000000E+00 0. -1.
         -4    1    5    5    0  503  0.16163234979E+03 -0.15246130589E+03 -0.14052289044E+04  0.14226868032E+04  0.00000000000E+00 0.  1.
         -3    1    6    6    0  502  0.32887071202E+03  0.31953992953E+03 -0.53631886955E+03  0.70562004055E+03  0.00000000000E+00 0.  1.
<mgrwt>
<rscale>  0 0.21357209E+04</rscale>
<asrwt>0</asrwt>
<pdfrwt beam="1">  1        2 0.54605792E-01 0.21357209E+04</pdfrwt>
<pdfrwt beam="2">  1       -2 0.49426926E+00 0.21357209E+04</pdfrwt>
<totfact> 0.14926825E-01</totfact>
</mgrwt>
</event>
<event>
12    1  0.1549527E-007  0.1351990E+04  0.7818608E-02  0.8989323E-01
         -1   -1    0    0    0  501 -0.00000000000E+00  0.00000000000E+00  0.37154839013E+03  0.37154839013E+03  0.00000000000E+00 0.  1.
          1   -1    0    0  501    0  0.00000000000E+00 -0.00000000000E+00 -0.12299048846E+04  0.12299048846E+04  0.00000000000E+00 0. -1.
         23    2    1    2    0    0 -0.33297986312E+03  0.14025077696E+03 -0.27425955303E+03  0.46338573152E+03  0.94668706900E+02 0.  0.
        254    2    1    2    0    0  0.33297986312E+03 -0.14025077696E+03 -0.58409694142E+03  0.11380675432E+04  0.90745943501E+03 0.  0.
        -24    2    4    4    0    0  0.25514212244E+03  0.35384209438E+03 -0.40753114498E+03  0.60202611419E+03  0.77795100372E+02 0.  0.
         24    2    4    4    0    0  0.77837740684E+02 -0.49409287134E+03 -0.17656579645E+03  0.53604142900E+03  0.77320461347E+02 0.  0.
         11    1    3    3    0    0 -0.10779409606E+03  0.83654153312E+02 -0.66382204313E+02  0.15173721218E+03  0.00000000000E+00 0. -1.
        -11    1    3    3    0    0 -0.22518576707E+03  0.56596623649E+02 -0.20787734872E+03  0.31164851934E+03  0.00000000000E+00 0.  1.
          2    1    6    6  502    0  0.49667123819E+02 -0.21411643182E+03 -0.40582451891E+02  0.22351645346E+03  0.00000000000E+00 0. -1.
          3    1    5    5  503    0  0.11550898071E+03  0.17456201043E+03 -0.24719981059E+03  0.32391660418E+03  0.00000000000E+00 0. -1.
         -4    1    5    5    0  503  0.13963314173E+03  0.17928008394E+03 -0.16033133439E+03  0.27810951000E+03  0.00000000000E+00 0.  1.
         -1    1    6    6    0  502  0.28170616865E+02 -0.27997643952E+03 -0.13598334456E+03  0.31252497554E+03  0.00000000000E+00 0.  1.
<mgrwt>
<rscale>  0 0.13519899E+04</rscale>
<asrwt>0</asrwt>
<pdfrwt beam="1">  1        1 0.18921614E+00 0.13519899E+04</pdfrwt>
<pdfrwt beam="2">  1       -1 0.57161290E-01 0.13519899E+04</pdfrwt>
<totfact> 0.30818186E+01</totfact>
</mgrwt>
</event>
<event>
12    1  0.1549527E-007  0.3133949E+04  0.7818608E-02  0.8206482E-01
          2   -1    0    0  501    0  0.00000000000E+00  0.00000000000E+00  0.33120140845E+04  0.33120140845E+04  0.00000000000E+00 0. -1.
         -2   -1    0    0    0  501 -0.00000000000E+00 -0.00000000000E+00 -0.74136423746E+03  0.74136423746E+03  0.00000000000E+00 0.  1.
         23    2    1    2    0    0  0.19148081766E+03  0.14221921552E+04  0.12886762830E+04  0.19301240825E+04  0.73464149716E+02 0.  0.
        254    2    1    2    0    0 -0.19148081766E+03 -0.14221921552E+04  0.12819735640E+04  0.21232542395E+04  0.89747251593E+03 0.  0.
        -24    2    4    4    0    0  0.18492487550E+03 -0.13219895394E+03  0.52813038773E+03  0.58034492730E+03  0.78770268487E+02 0.  0.
         24    2    4    4    0    0 -0.37640569315E+03 -0.12899932013E+04  0.75384317628E+03  0.15429093122E+04  0.80783080334E+02 0.  0.
         13    1    3    3    0    0  0.13775889410E+03  0.10816369679E+04  0.10191289152E+04  0.14924944854E+04  0.00000000000E+00 0. -1.
        -13    1    3    3    0    0  0.53721923559E+02  0.34055518737E+03  0.26954736783E+03  0.43762959706E+03  0.00000000000E+00 0.  1.
          2    1    6    6  502    0 -0.33400396984E+03 -0.11552270077E+04  0.70181171539E+03  0.13923533226E+04  0.00000000000E+00 0. -1.
          1    1    5    5  503    0  0.16022960019E+03 -0.92974861754E+02  0.34671485717E+03  0.39310182126E+03  0.00000000000E+00 0. -1.
         -2    1    5    5    0  503  0.24695275303E+02 -0.39224092186E+02  0.18141553057E+03  0.18724310604E+03  0.00000000000E+00 0.  1.
         -1    1    6    6    0  502 -0.42401723315E+02 -0.13476619361E+03  0.52031460888E+02  0.15055598959E+03  0.00000000000E+00 0.  1.
<mgrwt>
<rscale>  0 0.31339488E+04</rscale>
<asrwt>0</asrwt>
<pdfrwt beam="1">  1        2 0.50954062E+00 0.31339488E+04</pdfrwt>
<pdfrwt beam="2">  1       -2 0.11405604E+00 0.31339488E+04</pdfrwt>
<totfact> 0.55642406E-01</totfact>
</mgrwt>
</event>
<event>
12    1  0.1549527E-007  0.1514162E+04  0.7818608E-02  0.8875090E-01
          2   -1    0    0  501    0  0.00000000000E+00  0.00000000000E+00  0.18635576254E+04  0.18635576254E+04  0.00000000000E+00 0. -1.
         -2   -1    0    0    0  501 -0.00000000000E+00 -0.00000000000E+00 -0.30756846088E+03  0.30756846088E+03  0.00000000000E+00 0.  1.
         23    2    1    2    0    0  0.34618671044E+03  0.27428933082E+02  0.10148572139E+04  0.10774470165E+04  0.10178076363E+03 0.  0.
        254    2    1    2    0    0 -0.34618671044E+03 -0.27428933082E+02  0.54113195058E+03  0.10936790698E+04  0.88471042430E+03 0.  0.
        -24    2    4    4    0    0 -0.79859779789E+02  0.32638853797E+03  0.54290433779E+03  0.64367786116E+03  0.81663987242E+02 0.  0.
         24    2    4    4    0    0 -0.26632693065E+03 -0.35381747105E+03 -0.17723872144E+01  0.45000120861E+03  0.79881847644E+02 0.  0.
         11    1    3    3    0    0  0.14438777488E+02  0.25114809991E+02  0.10775958573E+03  0.11158566348E+03  0.00000000000E+00 0.  1.
        -11    1    3    3    0    0  0.33174793295E+03  0.23141230911E+01  0.90709762822E+03  0.96586135304E+03  0.00000000000E+00 0. -1.
          4    1    6    6  502    0 -0.24154848354E+03 -0.29368098946E+03 -0.24650460049E+02  0.38105359026E+03  0.00000000000E+00 0. -1.
          3    1    5    5  503    0 -0.36668081657E+02  0.17864387270E+03  0.21849384880E+03  0.28460102500E+03  0.00000000000E+00 0. -1.
         -4    1    5    5    0  503 -0.43191698132E+02  0.14774466527E+03  0.32441048899E+03  0.35907683617E+03  0.00000000000E+00 0.  1.
         -3    1    6    6    0  502 -0.24778447115E+02 -0.60136481592E+02  0.22878072835E+02  0.68947618352E+02  0.00000000000E+00 0.  1.
<mgrwt>
<rscale>  0 0.15141619E+04</rscale>
<asrwt>0</asrwt>
<pdfrwt beam="1">  1        2 0.28670117E+00 0.15141619E+04</pdfrwt>
<pdfrwt beam="2">  1       -2 0.47318225E-01 0.15141619E+04</pdfrwt>
<totfact> 0.32504042E+01</totfact>
</mgrwt>
</event>
<event>
12    1  0.1549527E-007  0.4749514E+04  0.7818608E-02  0.7868353E-01
          1   -1    0    0  501    0  0.00000000000E+00  0.00000000000E+00  0.26145299877E+04  0.26145299877E+04  0.00000000000E+00 0. -1.
         -1   -1    0    0    0  501 -0.00000000000E+00 -0.00000000000E+00 -0.21569729772E+04  0.21569729772E+04  0.00000000000E+00 0.  1.
         23    2    1    2    0    0  0.86847741076E+03  0.29510275075E+02 -0.19057473142E+04  0.20965748316E+04  0.92894184605E+02 0.  0.
        254    2    1    2    0    0 -0.86847741076E+03 -0.29510275075E+02  0.23633043248E+04  0.26749281333E+04  0.90272327838E+03 0.  0.
        -24    2    4    4    0    0 -0.84571557615E+03  0.30627999468E+03  0.16083441141E+04  0.18445349136E+04  0.80597687125E+02 0.  0.
         24    2    4    4    0    0 -0.22761834610E+02 -0.33579026975E+03  0.75496021073E+03  0.83039321974E+03  0.79465547431E+02 0.  0.
         11    1    3    3    0    0  0.75630324324E+03  0.64361134701E+01 -0.15905472683E+04  0.17612145332E+04  0.00000000000E+00 0.  1.
        -11    1    3    3    0    0  0.11217416752E+03  0.23074161605E+02 -0.31520004593E+03  0.33536029841E+03  0.00000000000E+00 0. -1.
          4    1    6    6  502    0  0.61434652298E+01 -0.16785087320E+02  0.12575893612E+02  0.21854848925E+02  0.00000000000E+00 0. -1.
          3    1    5    5  503    0  0.38511701041E+00 -0.16276908720E+01  0.90671507700E+01  0.92201364292E+01  0.00000000000E+00 0. -1.
         -4    1    5    5    0  503 -0.84610069316E+03  0.30790768555E+03  0.15992769633E+04  0.18353147771E+04  0.00000000000E+00 0.  1.
         -3    1    6    6    0  502 -0.28905299840E+02 -0.31900518243E+03  0.74238431712E+03  0.80853837082E+03  0.00000000000E+00 0.  1.
<mgrwt>
<rscale>  0 0.47495139E+04</rscale>
<asrwt>0</asrwt>
<pdfrwt beam="1">  1        1 0.40223538E+00 0.47495139E+04</pdfrwt>
<pdfrwt beam="2">  1       -1 0.33184200E+00 0.47495139E+04</pdfrwt>
<totfact> 0.16995228E-02</totfact>
</mgrwt>
</event>
<event>
12    1  0.1549527E-007  0.2036936E+04  0.7818608E-02  0.8589544E-01
          1   -1    0    0  501    0  0.00000000000E+00  0.00000000000E+00  0.10168160894E+04  0.10168160894E+04  0.00000000000E+00 0. -1.
         -1   -1    0    0    0  501 -0.00000000000E+00 -0.00000000000E+00 -0.10201223095E+04  0.10201223095E+04  0.00000000000E+00 0.  1.
         23    2    1    2    0    0  0.62573735217E+03  0.36666585727E+03  0.39001200276E+03  0.82856865863E+03  0.91790930832E+02 0.  0.
        254    2    1    2    0    0 -0.62573735217E+03 -0.36666585727E+03 -0.39331822287E+03  0.12083697403E+04  0.88287435125E+03 0.  0.
        -24    2    4    4    0    0 -0.99870940731E+02 -0.38529261646E+01  0.26059986129E+03  0.29046418068E+03  0.80424515613E+02 0.  0.
         24    2    4    4    0    0 -0.52586641144E+03 -0.36281293110E+03 -0.65391808416E+03  0.91790555964E+03  0.82298541719E+02 0.  0.
         11    1    3    3    0    0  0.42442557789E+03  0.26299998681E+03  0.22108359079E+03  0.54606228431E+03  0.00000000000E+00 0.  1.
        -11    1    3    3    0    0  0.20131177428E+03  0.10366587045E+03  0.16892841197E+03  0.28250637432E+03  0.00000000000E+00 0. -1.
          4    1    6    6  502    0 -0.44194252393E+03 -0.32469090572E+03 -0.52308414192E+03  0.75786172765E+03  0.00000000000E+00 0. -1.
          3    1    5    5  503    0 -0.95040257136E+02  0.89923139451E+01  0.14220678591E+03  0.17127837617E+03  0.00000000000E+00 0. -1.
         -4    1    5    5    0  503 -0.48306835955E+01 -0.12845240110E+02  0.11839307538E+03  0.11918580451E+03  0.00000000000E+00 0.  1.
         -3    1    6    6    0  502 -0.83923887512E+02 -0.38122025382E+02 -0.13083394225E+03  0.16004383199E+03  0.00000000000E+00 0.  1.
<mgrwt>
<rscale>  0 0.20369357E+04</rscale>
<asrwt>0</asrwt>
<pdfrwt beam="1">  1        1 0.15643324E+00 0.20369357E+04</pdfrwt>
<pdfrwt beam="2">  1       -1 0.15694189E+00 0.20369357E+04</pdfrwt>
<totfact> 0.41862450E+00</totfact>
</mgrwt>
</event>
<event>
12    1  0.1549527E-007  0.1699367E+04  0.7818608E-02  0.8761725E-01
          2   -1    0    0  501    0  0.00000000000E+00  0.00000000000E+00  0.16093599366E+04  0.16093599366E+04  0.00000000000E+00 0. -1.
         -2   -1    0    0    0  501 -0.00000000000E+00 -0.00000000000E+00 -0.44860195226E+03  0.44860195226E+03  0.00000000000E+00 0.  1.
         23    2    1    2    0    0  0.17212802572E+03 -0.34978183391E+03  0.98914628731E+03  0.10670061787E+04  0.90091170721E+02 0.  0.
        254    2    1    2    0    0 -0.17212802572E+03  0.34978183391E+03  0.17161169700E+03  0.99095571016E+03  0.89474424076E+03 0.  0.
        -24    2    4    4    0    0  0.14959005429E+03  0.92373087807E+02  0.44792060099E+03  0.48783776585E+03  0.80267361382E+02 0.  0.
         24    2    4    4    0    0 -0.32171808002E+03  0.25740874611E+03 -0.27630890399E+03  0.50311794431E+03  0.83781083091E+02 0.  0.
         11    1    3    3    0    0  0.17615458989E+03 -0.28450658663E+03  0.83563567812E+03  0.90014522379E+03  0.00000000000E+00 0. -1.
        -11    1    3    3    0    0 -0.40265641677E+01 -0.65275247289E+02  0.15351060919E+03  0.16686095487E+03  0.00000000000E+00 0.  1.
          4    1    6    6  502    0 -0.12706433306E+02  0.92267217198E+01  0.56837720170E+01  0.16700033096E+02  0.00000000000E+00 0. -1.
          1    1    5    5  503    0  0.11135916471E+03  0.24103073462E+02  0.23971944945E+03  0.26541898229E+03  0.00000000000E+00 0. -1.
         -2    1    5    5    0  503  0.38230889580E+02  0.68270014345E+02  0.20820115154E+03  0.22241878356E+03  0.00000000000E+00 0.  1.
         -3    1    6    6    0  502 -0.30901164671E+03  0.24818202439E+03 -0.28199267601E+03  0.48641791122E+03  0.00000000000E+00 0.  1.
<mgrwt>
<rscale>  0 0.16993670E+04</rscale>
<asrwt>0</asrwt>
<pdfrwt beam="1">  1        2 0.24759383E+00 0.16993670E+04</pdfrwt>
<pdfrwt beam="2">  1       -2 0.69015686E-01 0.16993670E+04</pdfrwt>
<totfact> 0.20100622E+01</totfact>
</mgrwt>
</event>
<event>
12    1  0.1549527E-007  0.1307757E+04  0.7818608E-02  0.9023436E-01
          2   -1    0    0  501    0  0.00000000000E+00  0.00000000000E+00  0.19048515223E+04  0.19048515223E+04  0.00000000000E+00 0.  1.
         -2   -1    0    0    0  501 -0.00000000000E+00 -0.00000000000E+00 -0.22445699707E+03  0.22445699707E+03  0.00000000000E+00 0. -1.
         23    2    1    2    0    0  0.89590774274E+02 -0.32966187208E+03  0.41435579360E+03  0.54483397314E+03  0.91923217180E+02 0.  0.
        254    2    1    2    0    0 -0.89590774274E+02  0.32966187208E+03  0.12660387316E+04  0.15844745462E+04  0.88938296639E+03 0.  0.
        -24    2    4    4    0    0  0.44124896500E+02  0.25125656147E+03 -0.38884429038E+02  0.26818664160E+03  0.73042520050E+02 0.  0.
         24    2    4    4    0    0 -0.13371567077E+03  0.78405310612E+02  0.13049231607E+04  0.13162879046E+04  0.75908624527E+02 0.  0.
         13    1    3    3    0    0  0.60215561212E+02 -0.29424690164E+03  0.31444139767E+03  0.43483392865E+03  0.00000000000E+00 0. -1.
        -13    1    3    3    0    0  0.29375213061E+02 -0.35414970448E+02  0.99914395931E+02  0.11000004449E+03  0.00000000000E+00 0.  1.
          2    1    6    6  502    0 -0.74277040123E+02  0.12268055804E+02  0.40133225033E+03  0.40833216752E+03  0.00000000000E+00 0. -1.
          1    1    5    5  503    0  0.31701203871E+02  0.93114357956E+02  0.17356288346E+02  0.99882384480E+02  0.00000000000E+00 0. -1.
         -2    1    5    5    0  503  0.12423692630E+02  0.15814220352E+03 -0.56240717384E+02  0.16830425712E+03  0.00000000000E+00 0.  1.
         -1    1    6    6    0  502 -0.59438630651E+02  0.66137254808E+02  0.90359091033E+03  0.90795573709E+03  0.00000000000E+00 0.  1.
<mgrwt>
<rscale>  0 0.13077572E+04</rscale>
<asrwt>0</asrwt>
<pdfrwt beam="1">  1        2 0.29305407E+00 0.13077572E+04</pdfrwt>
<pdfrwt beam="2">  1       -2 0.34531847E-01 0.13077572E+04</pdfrwt>
<totfact> 0.58140205E+01</totfact>
</mgrwt>
</event>
<event>
12    1  0.1549527E-007  0.2190177E+04  0.7818608E-02  0.8522528E-01
          1   -1    0    0  501    0  0.00000000000E+00  0.00000000000E+00  0.14455895531E+04  0.14455895531E+04  0.00000000000E+00 0. -1.
         -1   -1    0    0    0  501 -0.00000000000E+00 -0.00000000000E+00 -0.82957096929E+03  0.82957096929E+03  0.00000000000E+00 0.  1.
         23    2    1    2    0    0  0.17973461349E+03 -0.55005091744E+02 -0.66919879286E+03  0.70160137681E+03  0.95327730287E+02 0.  0.
        254    2    1    2    0    0 -0.17973461349E+03  0.55005091744E+02  0.12852173767E+04  0.15735591456E+04  0.88824241509E+03 0.  0.
        -24    2    4    4    0    0 -0.46975980935E+03  0.11785657232E+03  0.39022314166E+03  0.62717540192E+03  0.80687262722E+02 0.  0.
         24    2    4    4    0    0  0.29002519585E+03 -0.62851480577E+02  0.89499423505E+03  0.94638374370E+03  0.81009794025E+02 0.  0.
         11    1    3    3    0    0  0.17845479575E+03 -0.41322370246E+02 -0.66028177441E+03  0.68521943495E+03  0.00000000000E+00 0.  1.
        -11    1    3    3    0    0  0.12798177494E+01 -0.13682721498E+02 -0.89170184504E+01  0.16381941860E+02  0.00000000000E+00 0. -1.
          2    1    6    6  502    0  0.27138697717E+02 -0.18111836927E+02  0.45298680510E+02  0.55825782633E+02  0.00000000000E+00 0. -1.
          1    1    5    5  503    0 -0.29553539281E+03  0.11208341561E+03  0.23656040949E+03  0.39479702101E+03  0.00000000000E+00 0. -1.
         -2    1    5    5    0  503 -0.17422441654E+03  0.57731567099E+01  0.15366273217E+03  0.23237838091E+03  0.00000000000E+00 0.  1.
         -1    1    6    6    0  502  0.26288649814E+03 -0.44739643650E+02  0.84969555454E+03  0.89055796107E+03  0.00000000000E+00 0.  1.
<mgrwt>
<rscale>  0 0.21901773E+04</rscale>
<asrwt>0</asrwt>
<pdfrwt beam="1">  1        1 0.22239839E+00 0.21901773E+04</pdfrwt>
<pdfrwt beam="2">  1       -1 0.12762630E+00 0.21901773E+04</pdfrwt>
<totfact> 0.34603550E+00</totfact>
</mgrwt>
</event>
<event>
12    1  0.1549527E-007  0.2072351E+04  0.7818608E-02  0.8573522E-01
         -2   -1    0    0    0  501 -0.00000000000E+00  0.00000000000E+00  0.63116589694E+03  0.63116589694E+03  0.00000000000E+00 0.  1.
          2   -1    0    0  501    0  0.00000000000E+00 -0.00000000000E+00 -0.17010729210E+04  0.17010729210E+04  0.00000000000E+00 0. -1.
         23    2    1    2    0    0  0.53600686176E+03 -0.62194362652E+03 -0.24130755136E+03  0.86050455040E+03  0.90119456860E+02 0.  0.
        254    2    1    2    0    0 -0.53600686176E+03  0.62194362652E+03 -0.82859947271E+03  0.14717342675E+04  0.89738923419E+03 0.  0.
        -24    2    4    4    0    0 -0.16241545091E+03  0.14957389944E+03  0.17704203204E+03  0.29680808791E+03  0.89442885961E+02 0.  0.
         24    2    4    4    0    0 -0.37359141085E+03  0.47236972707E+03 -0.10056415048E+04  0.11749261796E+04  0.80205923561E+02 0.  0.
         13    1    3    3    0    0  0.53941102964E+03 -0.61770722869E+03 -0.24196968801E+03  0.85502971247E+03  0.00000000000E+00 0.  1.
        -13    1    3    3    0    0 -0.34041678837E+01 -0.42363978248E+01  0.66213665625E+00  0.54748379393E+01  0.00000000000E+00 0. -1.
          4    1    6    6  502    0 -0.26245009482E+03  0.27181441649E+03 -0.64720069248E+03  0.74942102028E+03  0.00000000000E+00 0. -1.
          3    1    5    5  503    0 -0.40584928817E+02  0.82060049437E+02  0.10726660802E+03  0.14102167690E+03  0.00000000000E+00 0. -1.
         -4    1    5    5    0  503 -0.12183052210E+03  0.67513850006E+02  0.69775424024E+02  0.15578641101E+03  0.00000000000E+00 0.  1.
         -3    1    6    6    0  502 -0.11114131603E+03  0.20055531059E+03 -0.35844081227E+03  0.42550515935E+03  0.00000000000E+00 0.  1.
<mgrwt>
<rscale>  0 0.20723506E+04</rscale>
<asrwt>0</asrwt>
<pdfrwt beam="1">  1        2 0.26170352E+00 0.20723506E+04</pdfrwt>
<pdfrwt beam="2">  1       -2 0.97102447E-01 0.20723506E+04</pdfrwt>
<totfact> 0.80088081E+00</totfact>
</mgrwt>
</event>
<event>
12    1  0.1549527E-007  0.1711853E+04  0.7818608E-02  0.8754633E-01
         -2   -1    0    0    0  501 -0.00000000000E+00  0.00000000000E+00  0.49982994878E+03  0.49982994878E+03  0.00000000000E+00 0. -1.
          2   -1    0    0  501    0  0.00000000000E+00 -0.00000000000E+00 -0.14657179937E+04  0.14657179937E+04  0.00000000000E+00 0.  1.
         23    2    1    2    0    0 -0.10872724232E+03  0.59471200337E+03 -0.20888734119E+03  0.64614391203E+03  0.91455199761E+02 0.  0.
        254    2    1    2    0    0  0.10872724232E+03 -0.59471200337E+03 -0.75700070369E+03  0.13194040304E+04  0.89569690739E+03 0.  0.
        -24    2    4    4    0    0  0.43456657757E+03 -0.55464698753E+02 -0.30993925484E+03  0.54264231579E+03  0.80460537180E+02 0.  0.
         24    2    4    4    0    0 -0.32583933525E+03 -0.53924730462E+03 -0.44706144885E+03  0.77676171462E+03  0.80844878127E+02 0.  0.
         13    1    3    3    0    0 -0.97103904587E-01 -0.50850188153E-01  0.48671273237E+01  0.48683614589E+01  0.00000000000E+00 0. -1.
        -13    1    3    3    0    0 -0.10863013842E+03  0.59476285356E+03 -0.21375446851E+03  0.64127555057E+03  0.00000000000E+00 0.  1.
          4    1    6    6  502    0 -0.23471983991E+03 -0.35810479332E+03 -0.26028688663E+03  0.50108054203E+03  0.00000000000E+00 0. -1.
          1    1    5    5  503    0  0.34125522659E+03 -0.23615090731E+02 -0.20568063093E+03  0.39914574296E+03  0.00000000000E+00 0. -1.
         -2    1    5    5    0  503  0.93311350984E+02 -0.31849608022E+02 -0.10425862391E+03  0.14349657283E+03  0.00000000000E+00 0.  1.
         -3    1    6    6    0  502 -0.91119495338E+02 -0.18114251130E+03 -0.18677456222E+03  0.27568117259E+03  0.00000000000E+00 0.  1.
<mgrwt>
<rscale>  0 0.17118525E+04</rscale>
<asrwt>0</asrwt>
<pdfrwt beam="1">  1        2 0.22549507E+00 0.17118525E+04</pdfrwt>
<pdfrwt beam="2">  1       -2 0.76896916E-01 0.17118525E+04</pdfrwt>
<totfact> 0.19060924E+01</totfact>
</mgrwt>
</event>
<event>
12    1  0.1549527E-007  0.1528889E+04  0.7818608E-02  0.8865466E-01
          3   -1    0    0  501    0  0.00000000000E+00  0.00000000000E+00  0.10879446434E+04  0.10879446434E+04  0.00000000000E+00 0. -1.
         -3   -1    0    0    0  501 -0.00000000000E+00 -0.00000000000E+00 -0.53713677223E+03  0.53713677223E+03  0.00000000000E+00 0.  1.
         23    2    1    2    0    0 -0.34048068600E+03  0.34790286953E+03  0.25526105074E+03  0.55707063663E+03  0.90586897507E+02 0.  0.
        254    2    1    2    0    0  0.34048068600E+03 -0.34790286953E+03  0.29554682039E+03  0.10680107790E+04  0.90351292010E+03 0.  0.
        -24    2    4    4    0    0  0.19934987232E+03  0.24217853939E+03 -0.10262697881E+03  0.33789004995E+03  0.72433228154E+02 0.  0.
         24    2    4    4    0    0  0.14113081367E+03 -0.59008140892E+03  0.39817379920E+03  0.73012072901E+03  0.80124458490E+02 0.  0.
         11    1    3    3    0    0 -0.24104649068E+03  0.27366939697E+03  0.14993144757E+03  0.39430671878E+03  0.00000000000E+00 0.  1.
        -11    1    3    3    0    0 -0.99434195316E+02  0.74233472559E+02  0.10532960318E+03  0.16276391784E+03  0.00000000000E+00 0. -1.
          4    1    6    6  502    0  0.99333317868E+02 -0.46750299784E+03  0.27509066728E+03  0.55145356673E+03  0.00000000000E+00 0. -1.
          3    1    5    5  503    0  0.42118870494E+02  0.29839182586E+02  0.65013776147E+01  0.52025416672E+02  0.00000000000E+00 0. -1.
         -4    1    5    5    0  503  0.15723100183E+03  0.21233935680E+03 -0.10912835642E+03  0.28586463328E+03  0.00000000000E+00 0.  1.
         -3    1    6    6    0  502  0.41797495806E+02 -0.12257841108E+03  0.12308313191E+03  0.17866716229E+03  0.00000000000E+00 0.  1.
<mgrwt>
<rscale>  0 0.15288886E+04</rscale>
<asrwt>0</asrwt>
<pdfrwt beam="1">  1        3 0.16737610E+00 0.15288886E+04</pdfrwt>
<pdfrwt beam="2">  1       -3 0.82636427E-01 0.15288886E+04</pdfrwt>
<totfact> 0.82716614E-01</totfact>
</mgrwt>
</event>
<event>
12    1  0.1549527E-007  0.1917486E+04  0.7818608E-02  0.8646201E-01
         -1   -1    0    0    0  501 -0.00000000000E+00  0.00000000000E+00  0.49936452017E+03  0.49936452017E+03  0.00000000000E+00 0.  1.
          1   -1    0    0  501    0  0.00000000000E+00 -0.00000000000E+00 -0.18407153404E+04  0.18407153404E+04  0.00000000000E+00 0. -1.
         23    2    1    2    0    0 -0.52297497292E+03  0.48756837385E+03 -0.32098428812E+03  0.78914800485E+03  0.92184157361E+02 0.  0.
        254    2    1    2    0    0  0.52297497292E+03 -0.48756837385E+03 -0.10203665321E+04  0.15509318557E+04  0.92358866368E+03 0.  0.
        -24    2    4    4    0    0  0.18236455482E+03 -0.22687581658E+03 -0.10690904765E+04  0.11108131151E+04  0.78878784563E+02 0.  0.
         24    2    4    4    0    0  0.34061041810E+03 -0.26069255727E+03  0.48723944429E+02  0.44011874060E+03  0.85757896043E+02 0.  0.
         11    1    3    3    0    0 -0.36952826887E+03  0.37322351498E+03 -0.27269100417E+03  0.59178316753E+03  0.00000000000E+00 0.  1.
        -11    1    3    3    0    0 -0.15344670405E+03  0.11434485887E+03 -0.48293283949E+02  0.19736483732E+03  0.00000000000E+00 0. -1.
          2    1    6    6  502    0  0.26834174574E+03 -0.23519241753E+03  0.17154124851E+02  0.35723525830E+03  0.00000000000E+00 0. -1.
          3    1    5    5  503    0  0.12975308804E+03 -0.20902680847E+03 -0.87181237404E+03  0.90586140554E+03  0.00000000000E+00 0. -1.
         -4    1    5    5    0  503  0.52611466785E+02 -0.17849008106E+02 -0.19727810247E+03  0.20495170953E+03  0.00000000000E+00 0.  1.
         -1    1    6    6    0  502  0.72268672352E+02 -0.25500139747E+02  0.31569819578E+02  0.82883482304E+02  0.00000000000E+00 0.  1.
<mgrwt>
<rscale>  0 0.19174858E+04</rscale>
<asrwt>0</asrwt>
<pdfrwt beam="1">  1        1 0.28318698E+00 0.19174858E+04</pdfrwt>
<pdfrwt beam="2">  1       -1 0.76825309E-01 0.19174858E+04</pdfrwt>
<totfact> 0.60695672E+00</totfact>
</mgrwt>
</event>
<event>
12    1  0.3042065E-007  0.1989619E+04  0.7818608E-02  0.8611490E-01
         -2   -1    0    0    0  501 -0.00000000000E+00  0.00000000000E+00  0.12045451335E+04  0.12045451335E+04  0.00000000000E+00 0.  1.
          2   -1    0    0  501    0  0.00000000000E+00 -0.00000000000E+00 -0.82159308739E+03  0.82159308739E+03  0.00000000000E+00 0. -1.
         23    2    1    2    0    0 -0.50243427296E+03 -0.57512985081E+03 -0.33373292619E+02  0.76965147976E+03  0.89638606100E+02 0.  0.
        254    2    1    2    0    0  0.50243427296E+03  0.57512985081E+03  0.41632533873E+03  0.12564867411E+04  0.90676215131E+03 0.  0.
        -24    2    4    4    0    0  0.56631499669E+03 -0.25076613598E+02  0.25247751339E+03  0.62610624973E+03  0.83202338618E+02 0.  0.
         24    2    4    4    0    0 -0.63880723737E+02  0.60020646441E+03  0.16384782534E+03  0.63038049141E+03  0.78771233904E+02 0.  0.
         13    1    3    3    0    0 -0.47007419699E+03 -0.55441336089E+03 -0.14917837174E+02  0.72702576796E+03  0.00000000000E+00 0. -1.
        -13    1    3    3    0    0 -0.32360075964E+02 -0.20716489925E+02 -0.18455455444E+02  0.42625711805E+02  0.00000000000E+00 0.  1.
          2    1    6    6  502    0 -0.75467228695E+02  0.44452957365E+03  0.14218368068E+03  0.47277694900E+03  0.00000000000E+00 0. -1.
          3    1    5    5  503    0  0.49013169646E+03 -0.64488057078E+01  0.18952453955E+03  0.52553802723E+03  0.00000000000E+00 0. -1.
         -4    1    5    5    0  503  0.76183300229E+02 -0.18627807891E+02  0.62952973847E+02  0.10056822250E+03  0.00000000000E+00 0.  1.
         -1    1    6    6    0  502  0.11586504958E+02  0.15567689076E+03  0.21664144657E+02  0.15760354240E+03  0.00000000000E+00 0.  1.
<mgrwt>
<rscale>  0 0.19896190E+04</rscale>
<asrwt>0</asrwt>
<pdfrwt beam="1">  1        2 0.12639894E+00 0.19896190E+04</pdfrwt>
<pdfrwt beam="2">  1       -2 0.18531464E+00 0.19896190E+04</pdfrwt>
<totfact> 0.51503742E+00</totfact>
</mgrwt>
</event>
<event>
12    1  0.1549527E-007  0.1247830E+04  0.7818608E-02  0.9071992E-01
          2   -1    0    0  501    0  0.00000000000E+00  0.00000000000E+00  0.49976797961E+03  0.49976797961E+03  0.00000000000E+00 0. -1.
         -2   -1    0    0    0  501 -0.00000000000E+00 -0.00000000000E+00 -0.77890086514E+03  0.77890086514E+03  0.00000000000E+00 0.  1.
         23    2    1    2    0    0 -0.99691366231E+02  0.20513213262E+03 -0.24965978924E+03  0.35044427296E+03  0.91997922514E+02 0.  0.
        254    2    1    2    0    0  0.99691366231E+02 -0.20513213262E+03 -0.29473096278E+02  0.92822457179E+03  0.89928562311E+03 0.  0.
        -24    2    4    4    0    0  0.43375283405E+03 -0.25084268980E+03  0.16075388695E+03  0.53290740475E+03  0.84171929999E+02 0.  0.
         24    2    4    4    0    0 -0.33406146782E+03  0.45710557174E+02 -0.19022698323E+03  0.39531716704E+03  0.80017736086E+02 0.  0.
         11    1    3    3    0    0 -0.11591755998E+03  0.18095559228E+03 -0.23268833419E+03  0.31674227371E+03  0.00000000000E+00 0.  1.
        -11    1    3    3    0    0  0.16226193746E+02  0.24176540337E+02 -0.16971455057E+02  0.33701999242E+02  0.00000000000E+00 0. -1.
          2    1    6    6  502    0 -0.22192443208E+03  0.50559235624E+02 -0.16260420796E+03  0.27972632752E+03  0.00000000000E+00 0. -1.
          3    1    5    5  503    0  0.20012051691E+03 -0.16408941648E+03  0.77422240967E+02  0.27012545471E+03  0.00000000000E+00 0. -1.
         -4    1    5    5    0  503  0.23363231714E+03 -0.86753273319E+02  0.83331645981E+02  0.26278195004E+03  0.00000000000E+00 0.  1.
         -3    1    6    6    0  502 -0.11213703574E+03 -0.48486784497E+01 -0.27622775265E+02  0.11559083952E+03  0.00000000000E+00 0.  1.
<mgrwt>
<rscale>  0 0.12478297E+04</rscale>
<asrwt>0</asrwt>
<pdfrwt beam="1">  1        2 0.76887382E-01 0.12478297E+04</pdfrwt>
<pdfrwt beam="2">  1       -2 0.11983090E+00 0.12478297E+04</pdfrwt>
<totfact> 0.32285100E+01</totfact>
</mgrwt>
</event>
<event>
12    1  0.1549527E-007  0.1117909E+04  0.7818608E-02  0.9187910E-01
         -2   -1    0    0    0  501 -0.00000000000E+00  0.00000000000E+00  0.22282352815E+03  0.22282352815E+03  0.00000000000E+00 0.  1.
          2   -1    0    0  501    0  0.00000000000E+00 -0.00000000000E+00 -0.14021419243E+04  0.14021419243E+04  0.00000000000E+00 0. -1.
         23    2    1    2    0    0  0.24716893828E+02 -0.11516421986E+03 -0.41484233609E+03  0.44197036202E+03  0.96798319783E+02 0.  0.
        254    2    1    2    0    0 -0.24716893828E+02  0.11516421986E+03 -0.76447606010E+03  0.11829950905E+04  0.89508659649E+03 0.  0.
        -24    2    4    4    0    0 -0.44123926947E+03  0.10275351156E+03 -0.51420635524E+03  0.69028871200E+03  0.82704008862E+02 0.  0.
         24    2    4    4    0    0  0.41652237564E+03  0.12410708307E+02 -0.25026970486E+03  0.49270637846E+03  0.80496801903E+02 0.  0.
         11    1    3    3    0    0  0.93874649770E+01 -0.76691369714E+02 -0.38021793422E+03  0.38798887637E+03  0.00000000000E+00 0. -1.
        -11    1    3    3    0    0  0.15329428851E+02 -0.38472850151E+02 -0.34624401872E+02  0.53981485647E+02  0.00000000000E+00 0.  1.
          2    1    6    6  502    0  0.10773667427E+03  0.32577956808E+02 -0.44175082980E+02  0.12091299437E+03  0.00000000000E+00 0. -1.
          1    1    5    5  503    0 -0.31904031629E+03  0.36555096769E+02 -0.34504727725E+03  0.47136039508E+03  0.00000000000E+00 0. -1.
         -2    1    5    5    0  503 -0.12219895318E+03  0.66198414789E+02 -0.16915907800E+03  0.21892831692E+03  0.00000000000E+00 0.  1.
         -1    1    6    6    0  502  0.30878570137E+03 -0.20167248501E+02 -0.20609462188E+03  0.37179338409E+03  0.00000000000E+00 0.  1.
<mgrwt>
<rscale>  0 0.11179091E+04</rscale>
<asrwt>0</asrwt>
<pdfrwt beam="1">  1        2 0.21571414E+00 0.11179091E+04</pdfrwt>
<pdfrwt beam="2">  1       -2 0.34280544E-01 0.11179091E+04</pdfrwt>
<totfact> 0.11398258E+02</totfact>
</mgrwt>
</event>
<event>
12    1  0.1549527E-007  0.2442486E+04  0.7818608E-02  0.8423767E-01
         -2   -1    0    0    0  501 -0.00000000000E+00  0.00000000000E+00  0.56487226206E+03  0.56487226206E+03  0.00000000000E+00 0.  1.
          2   -1    0    0  501    0  0.00000000000E+00 -0.00000000000E+00 -0.26403036093E+04  0.26403036093E+04  0.00000000000E+00 0. -1.
         23    2    1    2    0    0 -0.91022306943E+03  0.37837132636E+03 -0.41798440050E+03  0.10759131560E+04  0.10586436376E+03 0.  0.
        254    2    1    2    0    0  0.91022306943E+03 -0.37837132636E+03 -0.16574469468E+04  0.21292627154E+04  0.90275048212E+03 0.  0.
        -24    2    4    4    0    0 -0.78015264521E+02  0.16094319299E+03 -0.35648933397E+03  0.40693666280E+03  0.80769483240E+02 0.  0.
         24    2    4    4    0    0  0.98823833395E+03 -0.53931451936E+03 -0.13009576128E+04  0.17223260526E+04  0.80256872549E+02 0.  0.
         13    1    3    3    0    0 -0.23275812093E+03  0.62333736630E+02 -0.67247277866E+02  0.25016801147E+03  0.00000000000E+00 0. -1.
        -13    1    3    3    0    0 -0.67746494850E+03  0.31603758973E+03 -0.35073712263E+03  0.82574514455E+03  0.00000000000E+00 0.  1.
          2    1    6    6  502    0  0.74839984494E+03 -0.39353705507E+03 -0.92621946722E+03  0.12541356558E+04  0.00000000000E+00 0. -1.
          3    1    5    5  503    0 -0.63644541212E+02  0.12919574131E+03 -0.19906387535E+03  0.24570021096E+03  0.00000000000E+00 0. -1.
         -2    1    5    5    0  503 -0.14370723310E+02  0.31747451683E+02 -0.15742545862E+03  0.16123645183E+03  0.00000000000E+00 0.  1.
         -1    1    6    6    0  502  0.23983848901E+03 -0.14577746428E+03 -0.37473814558E+03  0.46819039680E+03  0.00000000000E+00 0.  1.
<mgrwt>
<rscale>  0 0.24424858E+04</rscale>
<asrwt>0</asrwt>
<pdfrwt beam="1">  1        2 0.40620055E+00 0.24424858E+04</pdfrwt>
<pdfrwt beam="2">  1       -2 0.86903426E-01 0.24424858E+04</pdfrwt>
<totfact> 0.29572011E+00</totfact>
</mgrwt>
</event>
<event>
12    1  0.1549527E-007  0.1658905E+04  0.7818608E-02  0.8785156E-01
         -2   -1    0    0    0  501 -0.00000000000E+00  0.00000000000E+00  0.18651249526E+03  0.18651249526E+03  0.00000000000E+00 0.  1.
          2   -1    0    0  501    0  0.00000000000E+00 -0.00000000000E+00 -0.36887149733E+04  0.36887149733E+04  0.00000000000E+00 0. -1.
         23    2    1    2    0    0 -0.49491613631E+03 -0.30530242084E+03 -0.12704391898E+04  0.14003428380E+04  0.93769818133E+02 0.  0.
        254    2    1    2    0    0  0.49491613631E+03  0.30530242084E+03 -0.22317632882E+04  0.24748846305E+04  0.89785021566E+03 0.  0.
        -24    2    4    4    0    0 -0.45705252616E+02  0.37830894175E+03 -0.15446850168E+04  0.15929515163E+04  0.78969023925E+02 0.  0.
         24    2    4    4    0    0  0.54062138893E+03 -0.73006520912E+02 -0.68707827139E+03  0.88193311420E+03  0.90155580194E+02 0.  0.
         11    1    3    3    0    0 -0.92089303416E+02 -0.43651975865E+02 -0.15071067249E+03  0.18193306902E+03  0.00000000000E+00 0.  1.
        -11    1    3    3    0    0 -0.40282683289E+03 -0.26165044497E+03 -0.11197285173E+04  0.12184097690E+04  0.00000000000E+00 0. -1.
          2    1    6    6  502    0  0.43284011533E+03 -0.24716113246E+02 -0.56368140358E+03  0.71112458573E+03  0.00000000000E+00 0. -1.
          3    1    5    5  503    0 -0.83497937441E+01  0.28156071530E+03 -0.12204025116E+04  0.12524889004E+04  0.00000000000E+00 0. -1.
         -4    1    5    5    0  503 -0.37355458872E+02  0.96748226451E+02 -0.32428250518E+03  0.34046261586E+03  0.00000000000E+00 0.  1.
         -1    1    6    6    0  502  0.10778127360E+03 -0.48290407666E+02 -0.12339686782E+03  0.17080852847E+03  0.00000000000E+00 0.  1.
<mgrwt>
<rscale>  0 0.16589050E+04</rscale>
<asrwt>0</asrwt>
<pdfrwt beam="1">  1        2 0.56749461E+00 0.16589050E+04</pdfrwt>
<pdfrwt beam="2">  1       -2 0.28694230E-01 0.16589050E+04</pdfrwt>
<totfact> 0.64125025E+00</totfact>
</mgrwt>
</event>
<event>
12    1  0.1549527E-007  0.1367747E+04  0.7818608E-02  0.8977502E-01
          2   -1    0    0  501    0  0.00000000000E+00  0.00000000000E+00  0.21010864016E+04  0.21010864016E+04  0.00000000000E+00 0. -1.
         -2   -1    0    0    0  501 -0.00000000000E+00 -0.00000000000E+00 -0.22259090139E+03  0.22259090139E+03  0.00000000000E+00 0.  1.
         23    2    1    2    0    0 -0.25390450424E+03  0.11533463289E+03  0.10127953449E+03  0.31088050272E+03  0.92841628847E+02 0.  0.
        254    2    1    2    0    0  0.25390450424E+03 -0.11533463289E+03  0.17772159657E+04  0.20127968003E+04  0.90282046694E+03 0.  0.
        -24    2    4    4    0    0  0.27797876012E+03 -0.47310147131E+03  0.84012334852E+03  0.10065426610E+04  0.78890394718E+02 0.  0.
         24    2    4    4    0    0 -0.24074255879E+02  0.35776683842E+03  0.93709261722E+03  0.10062541393E+04  0.76342250265E+02 0.  0.
         13    1    3    3    0    0 -0.11024568286E+03  0.98240865222E+02  0.67255926588E+02  0.16226132580E+03  0.00000000000E+00 0. -1.
        -13    1    3    3    0    0 -0.14365882138E+03  0.17093767665E+02  0.34023607904E+02  0.14861917692E+03  0.00000000000E+00 0.  1.
          2    1    6    6  502    0  0.29438768829E+01 -0.33592828696E+01  0.10606125430E+02  0.11508305224E+02  0.00000000000E+00 0. -1.
          3    1    5    5  503    0  0.16098130707E+03 -0.29115614601E+03  0.43917977056E+03  0.55096801491E+03  0.00000000000E+00 0. -1.
         -4    1    5    5    0  503  0.11699745305E+03 -0.18194532530E+03  0.40094357796E+03  0.45557464605E+03  0.00000000000E+00 0.  1.
         -1    1    6    6    0  502 -0.27018132762E+02  0.36112612129E+03  0.92648649179E+03  0.99474583409E+03  0.00000000000E+00 0.  1.
<mgrwt>
<rscale>  0 0.13677466E+04</rscale>
<asrwt>0</asrwt>
<pdfrwt beam="1">  1        2 0.32324405E+00 0.13677466E+04</pdfrwt>
<pdfrwt beam="2">  1       -2 0.34244755E-01 0.13677466E+04</pdfrwt>
<totfact> 0.45772977E+01</totfact>
</mgrwt>
</event>
<event>
12    1  0.1553507E-007  0.2086081E+04  0.7818608E-02  0.8567400E-01
          2   -1    0    0  501    0  0.00000000000E+00  0.00000000000E+00  0.26793387916E+04  0.26793387916E+04  0.00000000000E+00 0. -1.
         -2   -1    0    0    0  501 -0.00000000000E+00 -0.00000000000E+00 -0.40604534475E+03  0.40604534475E+03  0.00000000000E+00 0.  1.
         23    2    1    2    0    0 -0.54055772613E+03 -0.64856558802E+03  0.88066103503E+03  0.12234537363E+04  0.91843393663E+02 0.  0.
        254    2    1    2    0    0  0.54055772613E+03  0.64856558802E+03  0.13926324118E+04  0.18619304001E+04  0.90250750856E+03 0.  0.
        -24    2    4    4    0    0  0.36853401456E+03 -0.14158657104E+03  0.31064599858E+03  0.50881496569E+03  0.80793909987E+02 0.  0.
         24    2    4    4    0    0  0.17202371157E+03  0.79015215906E+03  0.10819864133E+04  0.13531154344E+04  0.79335921879E+02 0.  0.
         13    1    3    3    0    0 -0.32564727248E+03 -0.40883572472E+03  0.60589743479E+03  0.80019028822E+03  0.00000000000E+00 0. -1.
        -13    1    3    3    0    0 -0.21491045365E+03 -0.23972986330E+03  0.27476360024E+03  0.42326344806E+03  0.00000000000E+00 0.  1.
          2    1    6    6  502    0  0.16728789736E+03  0.65812559682E+03  0.87540695862E+03  0.11079042761E+04  0.00000000000E+00 0. -1.
          1    1    5    5  503    0  0.35820442176E+03 -0.15087667733E+03  0.30381744413E+03  0.49333479391E+03  0.00000000000E+00 0. -1.
         -2    1    5    5    0  503  0.10329592803E+02  0.92901062914E+01  0.68285544530E+01  0.15480171778E+02  0.00000000000E+00 0.  1.
         -1    1    6    6    0  502  0.47358142113E+01  0.13202656224E+03  0.20657945465E+03  0.24521115830E+03  0.00000000000E+00 0.  1.
<mgrwt>
<rscale>  0 0.20860806E+04</rscale>
<asrwt>0</asrwt>
<pdfrwt beam="1">  1        2 0.41220596E+00 0.20860806E+04</pdfrwt>
<pdfrwt beam="2">  1       -2 0.62468516E-01 0.20860806E+04</pdfrwt>
<totfact> 0.59958417E+00</totfact>
</mgrwt>
</event>
<event>
12    1  0.1549527E-007  0.1616501E+04  0.7818608E-02  0.8810474E-01
          2   -1    0    0  501    0  0.00000000000E+00  0.00000000000E+00  0.22791578879E+04  0.22791578879E+04  0.00000000000E+00 0. -1.
         -2   -1    0    0    0  501 -0.00000000000E+00 -0.00000000000E+00 -0.28662732973E+03  0.28662732973E+03  0.00000000000E+00 0.  1.
         23    2    1    2    0    0  0.39807831342E+02  0.43962818260E+03  0.11958343488E+04  0.12775115151E+04  0.84606612863E+02 0.  0.
        254    2    1    2    0    0 -0.39807831342E+02 -0.43962818260E+03  0.79669620935E+03  0.12882737026E+04  0.91107995278E+03 0.  0.
        -24    2    4    4    0    0 -0.33413906057E+03  0.12384637514E+03  0.21612663225E+03  0.42361833951E+03  0.75861320639E+02 0.  0.
         24    2    4    4    0    0  0.29433122923E+03 -0.56347455774E+03  0.58056957710E+03  0.86465536305E+03  0.80208561097E+02 0.  0.
         13    1    3    3    0    0  0.64992957473E+02  0.34865975905E+03  0.96597029267E+03  0.10290220204E+04  0.00000000000E+00 0. -1.
        -13    1    3    3    0    0 -0.25185126131E+02  0.90968423553E+02  0.22986405616E+03  0.24848949470E+03  0.00000000000E+00 0.  1.
          4    1    6    6  502    0  0.71089066821E+02 -0.12951356583E+03  0.91660810965E+02  0.17386524501E+03  0.00000000000E+00 0. -1.
          3    1    5    5  503    0 -0.74104541407E+02  0.12804314231E+02  0.80026650621E+02  0.10981665780E+03  0.00000000000E+00 0. -1.
         -4    1    5    5    0  503 -0.26003451917E+03  0.11104206091E+03  0.13609998162E+03  0.31380168172E+03  0.00000000000E+00 0.  1.
         -3    1    6    6    0  502  0.22324216241E+03 -0.43396099192E+03  0.48890876613E+03  0.69079011804E+03  0.00000000000E+00 0.  1.
<mgrwt>
<rscale>  0 0.16165011E+04</rscale>
<asrwt>0</asrwt>
<pdfrwt beam="1">  1        2 0.35063966E+00 0.16165011E+04</pdfrwt>
<pdfrwt beam="2">  1       -2 0.44096514E-01 0.16165011E+04</pdfrwt>
<totfact> 0.21781877E+01</totfact>
</mgrwt>
</event>
<event>
12    1  0.1549527E-007  0.2975937E+04  0.7818608E-02  0.8250636E-01
          1   -1    0    0  501    0  0.00000000000E+00  0.00000000000E+00  0.28309366058E+04  0.28309366058E+04  0.00000000000E+00 0. -1.
         -1   -1    0    0    0  501 -0.00000000000E+00 -0.00000000000E+00 -0.78209123783E+03  0.78209123783E+03  0.00000000000E+00 0.  1.
         23    2    1    2    0    0  0.36329283119E+03  0.61720045213E+03 -0.45855305852E+03  0.85541537914E+03  0.92447196253E+02 0.  0.
        254    2    1    2    0    0 -0.36329283119E+03 -0.61720045213E+03  0.25073984265E+04  0.27576124645E+04  0.89691780883E+03 0.  0.
        -24    2    4    4    0    0 -0.55177586194E+03 -0.23578722763E+03  0.20040613928E+04  0.20934799480E+04  0.79649282145E+02 0.  0.
         24    2    4    4    0    0  0.18848303075E+03 -0.38141322450E+03  0.50333703367E+03  0.66413251644E+03  0.81987372323E+02 0.  0.
         13    1    3    3    0    0  0.24376789174E+03  0.32935271666E+03 -0.24177287324E+03  0.47576267114E+03  0.00000000000E+00 0. -1.
        -13    1    3    3    0    0  0.11952493945E+03  0.28784773547E+03 -0.21678018528E+03  0.37965270801E+03  0.00000000000E+00 0.  1.
          4    1    6    6  502    0  0.14268754204E+03 -0.34793202861E+03  0.44759053931E+03  0.58459705957E+03  0.00000000000E+00 0. -1.
          1    1    5    5  503    0 -0.34859473764E+03 -0.11289768212E+03  0.11447139463E+04  0.12019293642E+04  0.00000000000E+00 0. -1.
         -2    1    5    5    0  503 -0.20318112430E+03 -0.12288954551E+03  0.85934744649E+03  0.89155058379E+03  0.00000000000E+00 0.  1.
         -3    1    6    6    0  502  0.45795488713E+02 -0.33481195891E+02  0.55746494367E+02  0.79535456866E+02  0.00000000000E+00 0.  1.
<mgrwt>
<rscale>  0 0.29759373E+04</rscale>
<asrwt>0</asrwt>
<pdfrwt beam="1">  1        1 0.43552870E+00 0.29759373E+04</pdfrwt>
<pdfrwt beam="2">  1       -1 0.12032173E+00 0.29759373E+04</pdfrwt>
<totfact> 0.41514961E-01</totfact>
</mgrwt>
</event>
<event>
12    1  0.1549527E-007  0.1559240E+04  0.7818608E-02  0.8845987E-01
         -2   -1    0    0    0  501 -0.00000000000E+00  0.00000000000E+00  0.77028013819E+03  0.77028013819E+03  0.00000000000E+00 0.  1.
          2   -1    0    0  501    0  0.00000000000E+00 -0.00000000000E+00 -0.78907360080E+03  0.78907360080E+03  0.00000000000E+00 0. -1.
         23    2    1    2    0    0  0.17171727442E+03 -0.32027357828E+03 -0.35583915115E+03  0.51783759661E+03  0.97325678476E+02 0.  0.
        254    2    1    2    0    0 -0.17171727442E+03  0.32027357828E+03  0.33704568855E+03  0.10415161424E+04  0.91602079200E+03 0.  0.
        -24    2    4    4    0    0  0.20867401422E+03 -0.19169194061E+03  0.26245731648E+03  0.39440672481E+03  0.79888530418E+02 0.  0.
         24    2    4    4    0    0 -0.38039128864E+03  0.51196551889E+03  0.74588372064E+02  0.64710941757E+03  0.79880836611E+02 0.  0.
         11    1    3    3    0    0  0.21865271337E+02 -0.34293916174E+01 -0.41510028133E+02  0.47041824509E+02  0.00000000000E+00 0.  1.
        -11    1    3    3    0    0  0.14985200308E+03 -0.31684418666E+03 -0.31432912302E+03  0.47079577210E+03  0.00000000000E+00 0. -1.
          2    1    6    6  502    0 -0.37002041841E+03  0.49721364090E+03  0.86065002819E+02  0.62573452793E+03  0.00000000000E+00 0. -1.
          1    1    5    5  503    0  0.92110199803E+02 -0.13808356406E+03  0.15351257520E+03  0.22609172987E+03  0.00000000000E+00 0. -1.
         -2    1    5    5    0  503  0.11656381441E+03 -0.53608376551E+02  0.10894474129E+03  0.16831499494E+03  0.00000000000E+00 0.  1.
         -1    1    6    6    0  502 -0.10370870227E+02  0.14751877991E+02 -0.11476630756E+02  0.21374889638E+02  0.00000000000E+00 0.  1.
<mgrwt>
<rscale>  0 0.15592405E+04</rscale>
<asrwt>0</asrwt>
<pdfrwt beam="1">  1        2 0.12139594E+00 0.15592405E+04</pdfrwt>
<pdfrwt beam="2">  1       -2 0.11850464E+00 0.15592405E+04</pdfrwt>
<totfact> 0.18484896E+01</totfact>
</mgrwt>
</event>
<event>
12    1  0.1549527E-007  0.2172006E+04  0.7818608E-02  0.8530171E-01
         -1   -1    0    0    0  501 -0.00000000000E+00  0.00000000000E+00  0.13716587522E+04  0.13716587522E+04  0.00000000000E+00 0.  1.
          1   -1    0    0  501    0  0.00000000000E+00 -0.00000000000E+00 -0.85983631782E+03  0.85983631782E+03  0.00000000000E+00 0. -1.
         23    2    1    2    0    0 -0.47317715435E+03 -0.69835874172E+03  0.53368388246E+03  0.10024462103E+04  0.92078046815E+02 0.  0.
        254    2    1    2    0    0  0.47317715435E+03  0.69835874172E+03 -0.21861448047E+02  0.12290488597E+04  0.89357799051E+03 0.  0.
        -24    2    4    4    0    0  0.69478304182E+03  0.36302205436E+03  0.11678707799E+03  0.79650894423E+03  0.79238813179E+02 0.  0.
         24    2    4    4    0    0 -0.22160588747E+03  0.33533668736E+03 -0.13864852603E+03  0.43253991549E+03  0.79419780084E+02 0.  0.
         11    1    3    3    0    0 -0.68849237980E+02 -0.16872928611E+03  0.11707699063E+03  0.21660288848E+03  0.00000000000E+00 0. -1.
        -11    1    3    3    0    0 -0.40432791637E+03 -0.52962945560E+03  0.41660689183E+03  0.78584332186E+03  0.00000000000E+00 0.  1.
          4    1    6    6  502    0 -0.73741824840E+01  0.46054788531E+02 -0.33829598558E+02  0.57618259714E+02  0.00000000000E+00 0. -1.
          3    1    5    5  503    0  0.35434630266E+03  0.18281441552E+03  0.99383489076E+02  0.41092516427E+03  0.00000000000E+00 0. -1.
         -4    1    5    5    0  503  0.34043673916E+03  0.18020763883E+03  0.17403588910E+02  0.38558377996E+03  0.00000000000E+00 0.  1.
         -3    1    6    6    0  502 -0.21423170498E+03  0.28928189883E+03 -0.10481892747E+03  0.37492165577E+03  0.00000000000E+00 0.  1.
<mgrwt>
<rscale>  0 0.21720055E+04</rscale>
<asrwt>0</asrwt>
<pdfrwt beam="1">  1        1 0.13228251E+00 0.21720055E+04</pdfrwt>
<pdfrwt beam="2">  1       -1 0.21102442E+00 0.21720055E+04</pdfrwt>
<totfact> 0.22718319E+00</totfact>
</mgrwt>
</event>
<event>
12    1  0.1549527E-007  0.2906194E+04  0.7818608E-02  0.8271037E-01
         -2   -1    0    0    0  501 -0.00000000000E+00  0.00000000000E+00  0.86595203458E+03  0.86595203458E+03  0.00000000000E+00 0.  1.
          2   -1    0    0  501    0  0.00000000000E+00 -0.00000000000E+00 -0.24383462508E+04  0.24383462508E+04  0.00000000000E+00 0. -1.
         23    2    1    2    0    0  0.33659680449E+02 -0.11470610929E+04 -0.14380897897E+04  0.18421416051E+04  0.92202629250E+02 0.  0.
        254    2    1    2    0    0 -0.33659680449E+02  0.11470610929E+04 -0.13430442647E+03  0.14621566803E+04  0.89609282652E+03 0.  0.
        -24    2    4    4    0    0 -0.19837775691E+03  0.24767301655E+03  0.30277083322E+03  0.44491079758E+03  0.74697943721E+02 0.  0.
         24    2    4    4    0    0  0.16471807646E+03  0.89938807637E+03 -0.43707525968E+03  0.10172458827E+04  0.87883141758E+02 0.  0.
         13    1    3    3    0    0  0.17056029663E+02 -0.14457300814E+03 -0.22991971621E+03  0.27213110578E+03  0.00000000000E+00 0.  1.
        -13    1    3    3    0    0  0.16603650786E+02 -0.10024880848E+04 -0.12081700735E+04  0.15700104993E+04  0.00000000000E+00 0. -1.
          2    1    6    6  502    0  0.89021290272E+02  0.68045868389E+03 -0.30989888431E+03  0.75298481333E+03  0.00000000000E+00 0. -1.
          1    1    5    5  503    0 -0.19264128711E+03  0.23874924430E+03  0.26405460731E+03  0.40476746756E+03  0.00000000000E+00 0. -1.
         -2    1    5    5    0  503 -0.57364698026E+01  0.89237722508E+01  0.38716225910E+02  0.40143330028E+02  0.00000000000E+00 0.  1.
         -1    1    6    6    0  502  0.75696786192E+02  0.21892939247E+03 -0.12717637538E+03  0.26426106937E+03  0.00000000000E+00 0.  1.
<mgrwt>
<rscale>  0 0.29061940E+04</rscale>
<asrwt>0</asrwt>
<pdfrwt beam="1">  1        2 0.37513019E+00 0.29061940E+04</pdfrwt>
<pdfrwt beam="2">  1       -2 0.13322339E+00 0.29061940E+04</pdfrwt>
<totfact> 0.13299976E+00</totfact>
</mgrwt>
</event>
<event>
12    1  0.1549527E-007  0.2838874E+04  0.7818608E-02  0.8291300E-01
          2   -1    0    0  501    0  0.00000000000E+00  0.00000000000E+00  0.10647440281E+04  0.10647440281E+04  0.00000000000E+00 0. -1.
         -2   -1    0    0    0  501 -0.00000000000E+00 -0.00000000000E+00 -0.18922866598E+04  0.18922866598E+04  0.00000000000E+00 0.  1.
         23    2    1    2    0    0  0.49709329585E+03 -0.84218335359E+03 -0.12324099999E+04  0.15759215013E+04  0.91211975768E+02 0.  0.
        254    2    1    2    0    0 -0.49709329585E+03  0.84218335359E+03  0.40486736819E+03  0.13811091866E+04  0.88722626966E+03 0.  0.
        -24    2    4    4    0    0 -0.19610273622E+03  0.87046480121E+03  0.35204209016E+02  0.89637072412E+03  0.77947966057E+02 0.  0.
         24    2    4    4    0    0 -0.30099055963E+03 -0.28281447624E+02  0.36966315917E+03  0.48473846246E+03  0.83218798789E+02 0.  0.
         13    1    3    3    0    0  0.10917729353E+02 -0.26662776724E+01 -0.81545907138E+01  0.13885359216E+02  0.00000000000E+00 0. -1.
        -13    1    3    3    0    0  0.48617556649E+03 -0.83951707592E+03 -0.12242554092E+04  0.15620361421E+04  0.00000000000E+00 0.  1.
          4    1    6    6  502    0 -0.24896828720E+03 -0.95873182644E+00  0.33185070435E+03  0.41486264857E+03  0.00000000000E+00 0. -1.
          1    1    5    5  503    0 -0.11171909256E+03  0.55822262033E+03 -0.12492034320E+02  0.56942927604E+03  0.00000000000E+00 0. -1.
         -2    1    5    5    0  503 -0.84383643663E+02  0.31224218088E+03  0.47696243336E+02  0.32694144807E+03  0.00000000000E+00 0.  1.
         -3    1    6    6    0  502 -0.52022272427E+02 -0.27322715797E+02  0.37812454816E+02  0.69875813886E+02  0.00000000000E+00 0.  1.
<mgrwt>
<rscale>  0 0.28388737E+04</rscale>
<asrwt>0</asrwt>
<pdfrwt beam="1">  1        2 0.16380677E+00 0.28388737E+04</pdfrwt>
<pdfrwt beam="2">  1       -2 0.29112102E+00 0.28388737E+04</pdfrwt>
<totfact> 0.71585468E-01</totfact>
</mgrwt>
</event>
<event>
12    1  0.1549527E-007  0.1676129E+04  0.7818608E-02  0.8775097E-01
          2   -1    0    0  501    0  0.00000000000E+00  0.00000000000E+00  0.68640179178E+03  0.68640179178E+03  0.00000000000E+00 0. -1.
         -2   -1    0    0    0  501 -0.00000000000E+00 -0.00000000000E+00 -0.10232370825E+04  0.10232370825E+04  0.00000000000E+00 0.  1.
         23    2    1    2    0    0 -0.18782981999E+03  0.54139440014E+03 -0.26103271170E+03  0.63570897020E+03  0.87177293087E+02 0.  0.
        254    2    1    2    0    0  0.18782981999E+03 -0.54139440014E+03 -0.75802579022E+02  0.10739299041E+04  0.90509196777E+03 0.  0.
        -24    2    4    4    0    0  0.25300438498E+03 -0.13970086603E+03 -0.43297025135E+03  0.52671540662E+03  0.80239206297E+02 0.  0.
         24    2    4    4    0    0 -0.65174564993E+02 -0.40169353411E+03  0.35716767233E+03  0.54721449746E+03  0.79180432018E+02 0.  0.
         13    1    3    3    0    0 -0.23202036242E+02  0.53741581356E+02  0.15788793111E+00  0.58536458563E+02  0.00000000000E+00 0. -1.
        -13    1    3    3    0    0 -0.16462778375E+03  0.48765281878E+03 -0.26119059963E+03  0.57717251163E+03  0.00000000000E+00 0.  1.
          2    1    6    6  502    0 -0.50199442043E+02 -0.96129663883E+02  0.10102460972E+03  0.14821223981E+03  0.00000000000E+00 0. -1.
          1    1    5    5  503    0  0.13461283193E+03 -0.46842061945E+02 -0.15454919229E+03  0.21023854576E+03  0.00000000000E+00 0. -1.
         -2    1    5    5    0  503  0.11839155306E+03 -0.92858804086E+02 -0.27842105906E+03  0.31647686086E+03  0.00000000000E+00 0.  1.
         -1    1    6    6    0  502 -0.14975122949E+02 -0.30556387022E+03  0.25614306260E+03  0.39900225765E+03  0.00000000000E+00 0.  1.
<mgrwt>
<rscale>  0 0.16761286E+04</rscale>
<asrwt>0</asrwt>
<pdfrwt beam="1">  1        2 0.10560028E+00 0.16761286E+04</pdfrwt>
<pdfrwt beam="2">  1       -2 0.15742109E+00 0.16761286E+04</pdfrwt>
<totfact> 0.10534711E+01</totfact>
</mgrwt>
</event>
<event>
12    1  0.1549527E-007  0.2348352E+04  0.7818608E-02  0.8459097E-01
         -1   -1    0    0    0  501 -0.00000000000E+00  0.00000000000E+00  0.12397185085E+04  0.12397185085E+04  0.00000000000E+00 0.  1.
          1   -1    0    0  501    0  0.00000000000E+00 -0.00000000000E+00 -0.11120986716E+04  0.11120986716E+04  0.00000000000E+00 0. -1.
         23    2    1    2    0    0  0.75398778438E+03  0.34893299720E+03 -0.49689018125E+03  0.97198651929E+03  0.87213106397E+02 0.  0.
        254    2    1    2    0    0 -0.75398778438E+03 -0.34893299720E+03  0.62451001809E+03  0.13798306608E+04  0.90756160913E+03 0.  0.
        -24    2    4    4    0    0 -0.15842695729E+03  0.26418161709E+03  0.36474755485E+03  0.48309686213E+03  0.73829342567E+02 0.  0.
         24    2    4    4    0    0 -0.59556082709E+03 -0.61311461430E+03  0.25976246324E+03  0.89673379872E+03  0.77799353564E+02 0.  0.
         11    1    3    3    0    0  0.43785146507E+03  0.15731434325E+03 -0.26102646862E+03  0.53347589015E+03  0.00000000000E+00 0. -1.
        -11    1    3    3    0    0  0.31613631932E+03  0.19161865395E+03 -0.23586371263E+03  0.43851062914E+03  0.00000000000E+00 0.  1.
          2    1    6    6  502    0 -0.18990508258E+03 -0.24597898244E+03  0.10737129828E+03  0.32878290084E+03  0.00000000000E+00 0. -1.
          1    1    5    5  503    0 -0.10899602955E+03  0.11182386968E+03  0.16739688618E+03  0.22892450675E+03  0.00000000000E+00 0. -1.
         -2    1    5    5    0  503 -0.49430927739E+02  0.15235774742E+03  0.19735066867E+03  0.25417235538E+03  0.00000000000E+00 0.  1.
         -1    1    6    6    0  502 -0.40565574451E+03 -0.36713563186E+03  0.15239116496E+03  0.56795089788E+03  0.00000000000E+00 0.  1.
<mgrwt>
<rscale>  0 0.23483520E+04</rscale>
<asrwt>0</asrwt>
<pdfrwt beam="1">  1        1 0.17109210E+00 0.23483520E+04</pdfrwt>
<pdfrwt beam="2">  1       -1 0.19072593E+00 0.23483520E+04</pdfrwt>
<totfact> 0.19517270E+00</totfact>
</mgrwt>
</event>
<event>
12    1  0.1549527E-007  0.1557121E+04  0.7818608E-02  0.8847332E-01
          2   -1    0    0  501    0  0.00000000000E+00  0.00000000000E+00  0.13472038384E+04  0.13472038384E+04  0.00000000000E+00 0. -1.
         -2   -1    0    0    0  501 -0.00000000000E+00 -0.00000000000E+00 -0.44993678119E+03  0.44993678119E+03  0.00000000000E+00 0.  1.
         23    2    1    2    0    0 -0.95043393444E+02 -0.26287460891E+03  0.81368347374E+03  0.86515605230E+03  0.90982925546E+02 0.  0.
        254    2    1    2    0    0  0.95043393444E+02  0.26287460891E+03  0.83583583481E+02  0.93198456730E+03  0.88513993900E+03 0.  0.
        -24    2    4    4    0    0 -0.21619672879E+00 -0.22787096067E+03 -0.23241367283E+03  0.33505005798E+03  0.79480844069E+02 0.  0.
         24    2    4    4    0    0  0.95259590173E+02  0.49074556958E+03  0.31599725631E+03  0.59693450932E+03  0.81061327663E+02 0.  0.
         11    1    3    3    0    0 -0.72628271727E+02 -0.12041543973E+03  0.50898336988E+03  0.52805190540E+03  0.00000000000E+00 0. -1.
        -11    1    3    3    0    0 -0.22415121716E+02 -0.14245916918E+03  0.30470010387E+03  0.33710414691E+03  0.00000000000E+00 0.  1.
          4    1    6    6  502    0  0.19608805803E+02  0.36774103800E+02  0.51003533874E+02  0.65865016837E+02  0.00000000000E+00 0. -1.
          3    1    5    5  503    0 -0.88874773408E+01 -0.17587987344E+03 -0.12676945161E+03  0.21698666088E+03  0.00000000000E+00 0. -1.
         -4    1    5    5    0  503  0.86712806120E+01 -0.51991087227E+02 -0.10564422122E+03  0.11806339710E+03  0.00000000000E+00 0.  1.
         -3    1    6    6    0  502  0.75650784369E+02  0.45397146578E+03  0.26499372244E+03  0.53106949249E+03  0.00000000000E+00 0.  1.
<mgrwt>
<rscale>  0 0.15571211E+04</rscale>
<asrwt>0</asrwt>
<pdfrwt beam="1">  1        2 0.20726213E+00 0.15571211E+04</pdfrwt>
<pdfrwt beam="2">  1       -2 0.69221044E-01 0.15571211E+04</pdfrwt>
<totfact> 0.28441475E+01</totfact>
</mgrwt>
</event>
<event>
12    1  0.1549527E-007  0.1622757E+04  0.7818608E-02  0.8806688E-01
         -1   -1    0    0    0  501 -0.00000000000E+00  0.00000000000E+00  0.21119996342E+04  0.21119996342E+04  0.00000000000E+00 0.  1.
          1   -1    0    0  501    0  0.00000000000E+00 -0.00000000000E+00 -0.31171191804E+03  0.31171191804E+03  0.00000000000E+00 0. -1.
         23    2    1    2    0    0  0.55388627698E+03  0.88119793207E+01  0.53171853854E+03  0.77321423350E+03  0.90928476551E+02 0.  0.
        254    2    1    2    0    0 -0.55388627698E+03 -0.88119793207E+01  0.12685691776E+04  0.16504973187E+04  0.89889152958E+03 0.  0.
        -24    2    4    4    0    0 -0.60929750924E+03  0.32620807121E+03  0.72814292269E+03  0.10070671638E+04  0.79605250759E+02 0.  0.
         24    2    4    4    0    0  0.55411232262E+02 -0.33502005053E+03  0.54042625488E+03  0.64343015495E+03  0.81443160647E+02 0.  0.
         13    1    3    3    0    0  0.36958896812E+02  0.15666016322E+02  0.66819887286E+02  0.77950506463E+02  0.00000000000E+00 0.  1.
        -13    1    3    3    0    0  0.51692738017E+03 -0.68540370010E+01  0.46489865126E+03  0.69526372704E+03  0.00000000000E+00 0. -1.
          2    1    6    6  502    0 -0.11735311919E+02 -0.14759239464E+03  0.19651066889E+03  0.24604405192E+03  0.00000000000E+00 0. -1.
          3    1    5    5  503    0 -0.95577724860E+02  0.54213182401E+02  0.76791606377E+02  0.13405641143E+03  0.00000000000E+00 0. -1.
         -2    1    5    5    0  503 -0.51371978438E+03  0.27199488881E+03  0.65135131632E+03  0.87301075232E+03  0.00000000000E+00 0.  1.
         -1    1    6    6    0  502  0.67146544181E+02 -0.18742765590E+03  0.34391558599E+03  0.39738610302E+03  0.00000000000E+00 0.  1.
<mgrwt>
<rscale>  0 0.16227575E+04</rscale>
<asrwt>0</asrwt>
<pdfrwt beam="1">  1        1 0.47955681E-01 0.16227575E+04</pdfrwt>
<pdfrwt beam="2">  1       -1 0.32492301E+00 0.16227575E+04</pdfrwt>
<totfact> 0.18202914E+00</totfact>
</mgrwt>
</event>
<event>
12    1  0.1549527E-007  0.1914380E+04  0.7818608E-02  0.8647732E-01
         -1   -1    0    0    0  501 -0.00000000000E+00  0.00000000000E+00  0.65730141753E+03  0.65730141753E+03  0.00000000000E+00 0.  1.
          1   -1    0    0  501    0  0.00000000000E+00 -0.00000000000E+00 -0.13939000814E+04  0.13939000814E+04  0.00000000000E+00 0. -1.
         23    2    1    2    0    0 -0.36980904530E+03  0.71076414803E+02 -0.96079011694E+03  0.10359462379E+04  0.90864582454E+02 0.  0.
        254    2    1    2    0    0  0.36980904530E+03 -0.71076414803E+02  0.22419145307E+03  0.10152552610E+04  0.91578974150E+03 0.  0.
        -24    2    4    4    0    0 -0.16568983628E+03 -0.27249063027E+03 -0.11117453773E+03  0.34736183246E+03  0.81216989476E+02 0.  0.
         24    2    4    4    0    0  0.53549888158E+03  0.20141421547E+03  0.33536599079E+03  0.66789342854E+03  0.79275126868E+02 0.  0.
         13    1    3    3    0    0 -0.32605176290E+03  0.81283143026E+02 -0.89737273583E+03  0.95822467534E+03  0.00000000000E+00 0. -1.
        -13    1    3    3    0    0 -0.43757282392E+02 -0.10206728222E+02 -0.63417381114E+02  0.77721562586E+02  0.00000000000E+00 0.  1.
          2    1    6    6  502    0  0.22259361157E+03  0.12101913433E+03  0.12650395211E+03  0.28319038947E+03  0.00000000000E+00 0. -1.
          3    1    5    5  503    0 -0.17969722329E+02 -0.95635817009E+02 -0.18826079225E+02  0.99113781457E+02  0.00000000000E+00 0. -1.
         -4    1    5    5    0  503 -0.14772011395E+03 -0.17685481326E+03 -0.92348458501E+02  0.24824805100E+03  0.00000000000E+00 0.  1.
         -1    1    6    6    0  502  0.31290527001E+03  0.80395081139E+02  0.20886203868E+03  0.38470303907E+03  0.00000000000E+00 0.  1.
<mgrwt>
<rscale>  0 0.19143798E+04</rscale>
<asrwt>0</asrwt>
<pdfrwt beam="1">  1        1 0.21444616E+00 0.19143798E+04</pdfrwt>
<pdfrwt beam="2">  1       -1 0.10112330E+00 0.19143798E+04</pdfrwt>
<totfact> 0.67356452E+00</totfact>
</mgrwt>
</event>
<event>
12    1  0.1549527E-007  0.2335087E+04  0.7818608E-02  0.8464214E-01
         -2   -1    0    0    0  501 -0.00000000000E+00  0.00000000000E+00  0.92783103244E+03  0.92783103244E+03  0.00000000000E+00 0. -1.
          2   -1    0    0  501    0  0.00000000000E+00 -0.00000000000E+00 -0.14691877078E+04  0.14691877078E+04  0.00000000000E+00 0.  1.
         23    2    1    2    0    0 -0.73200802940E+03  0.58826881127E+03 -0.55106694404E+03  0.10925505715E+04  0.89977914813E+02 0.  0.
        254    2    1    2    0    0  0.73200802940E+03 -0.58826881127E+03  0.97102687277E+01  0.13044681686E+04  0.90534356145E+03 0.  0.
        -24    2    4    4    0    0  0.67176887334E+03 -0.47879511167E+03  0.37507306540E+03  0.91013632221E+03  0.84558515111E+02 0.  0.
         24    2    4    4    0    0  0.60239156063E+02 -0.10947369959E+03 -0.36536279667E+03  0.39433184643E+03  0.79964899116E+02 0.  0.
         13    1    3    3    0    0 -0.46151679147E+03  0.37126277389E+03 -0.29661259465E+03  0.66242948862E+03  0.00000000000E+00 0. -1.
        -13    1    3    3    0    0 -0.27049123793E+03  0.21700603738E+03 -0.25445434939E+03  0.43012108293E+03  0.00000000000E+00 0.  1.
          4    1    6    6  502    0  0.72564466239E+02 -0.96650985524E+02 -0.25086090332E+03  0.27845683252E+03  0.00000000000E+00 0. -1.
          1    1    5    5  503    0  0.63681019878E+03 -0.46504527896E+03  0.33990875462E+03  0.85868055889E+03  0.00000000000E+00 0. -1.
         -2    1    5    5    0  503  0.34958674559E+02 -0.13749832717E+02  0.35164310780E+02  0.51455763325E+02  0.00000000000E+00 0.  1.
         -3    1    6    6    0  502 -0.12325310175E+02 -0.12822714070E+02 -0.11450189335E+03  0.11587501391E+03  0.00000000000E+00 0.  1.
<mgrwt>
<rscale>  0 0.23350871E+04</rscale>
<asrwt>0</asrwt>
<pdfrwt beam="1">  1        2 0.22602888E+00 0.23350871E+04</pdfrwt>
<pdfrwt beam="2">  1       -2 0.14274324E+00 0.23350871E+04</pdfrwt>
<totfact> 0.40794503E+00</totfact>
</mgrwt>
</event>
<event>
12    1  0.1549527E-007  0.2157190E+04  0.7818608E-02  0.8536461E-01
          2   -1    0    0  501    0  0.00000000000E+00  0.00000000000E+00  0.12428617891E+04  0.12428617891E+04  0.00000000000E+00 0. -1.
         -2   -1    0    0    0  501 -0.00000000000E+00 -0.00000000000E+00 -0.93603909443E+03  0.93603909443E+03  0.00000000000E+00 0.  1.
         23    2    1    2    0    0  0.86370049083E+03  0.20356228638E+03  0.13773542254E+03  0.90278071701E+03  0.92875368584E+02 0.  0.
        254    2    1    2    0    0 -0.86370049083E+03 -0.20356228638E+03  0.16908727208E+03  0.12761201665E+04  0.90137452337E+03 0.  0.
        -24    2    4    4    0    0  0.17426967532E+03 -0.41126908543E+02  0.10018022480E+03  0.22027310973E+03  0.80142517342E+02 0.  0.
         24    2    4    4    0    0 -0.10379701662E+04 -0.16243537784E+03  0.68907047288E+02  0.10558470567E+04  0.79356841310E+02 0.  0.
         11    1    3    3    0    0  0.62991756908E+03  0.10606008790E+03  0.91737412658E+02  0.64533761626E+03  0.00000000000E+00 0.  1.
        -11    1    3    3    0    0  0.23378292175E+03  0.97502198482E+02  0.45998009883E+02  0.25744310075E+03  0.00000000000E+00 0. -1.
          2    1    6    6  502    0 -0.28750827751E+03 -0.57359513729E+02  0.52817664420E+02  0.29789398974E+03  0.00000000000E+00 0. -1.
          1    1    5    5  503    0  0.64031766911E+02 -0.11352439567E+02 -0.47383390446E+01  0.65202737019E+02  0.00000000000E+00 0. -1.
         -2    1    5    5    0  503  0.11023790841E+03 -0.29774468976E+02  0.10491856384E+03  0.15507037271E+03  0.00000000000E+00 0.  1.
         -1    1    6    6    0  502 -0.75046188865E+03 -0.10507586411E+03  0.16089382868E+02  0.75795306700E+03  0.00000000000E+00 0.  1.
<mgrwt>
<rscale>  0 0.21571900E+04</rscale>
<asrwt>0</asrwt>
<pdfrwt beam="1">  1        2 0.19120951E+00 0.21571900E+04</pdfrwt>
<pdfrwt beam="2">  1       -2 0.14400601E+00 0.21571900E+04</pdfrwt>
<totfact> 0.54666712E+00</totfact>
</mgrwt>
</event>
<event>
12    1  0.1549527E-007  0.1950119E+04  0.7818608E-02  0.8630303E-01
          2   -1    0    0  501    0  0.00000000000E+00  0.00000000000E+00  0.16934514043E+04  0.16934514043E+04  0.00000000000E+00 0. -1.
         -2   -1    0    0    0  501 -0.00000000000E+00 -0.00000000000E+00 -0.56142224091E+03  0.56142224091E+03  0.00000000000E+00 0.  1.
         23    2    1    2    0    0  0.65586624847E+03  0.30453757618E+03  0.26003261063E+03  0.77385246949E+03  0.91252478156E+02 0.  0.
        254    2    1    2    0    0 -0.65586624847E+03 -0.30453757618E+03  0.87199655271E+03  0.14810211757E+04  0.95401366011E+03 0.  0.
        -24    2    4    4    0    0 -0.62344118838E+03 -0.33949963635E+03  0.10556616004E+04  0.12746235113E+04  0.79402535795E+02 0.  0.
         24    2    4    4    0    0 -0.32425060089E+02  0.34962060169E+02 -0.18366504767E+03  0.20639766434E+03  0.81199851821E+02 0.  0.
         11    1    3    3    0    0  0.60596903815E+03  0.30359226570E+03  0.25302904219E+03  0.72345727945E+03  0.00000000000E+00 0.  1.
        -11    1    3    3    0    0  0.49897210314E+02  0.94531047414E+00  0.70035684448E+01  0.50395190048E+02  0.00000000000E+00 0. -1.
          2    1    6    6  502    0 -0.24651591909E+02  0.53669996662E+01 -0.57572323110E+01  0.25877623403E+02  0.00000000000E+00 0. -1.
          1    1    5    5  503    0 -0.41627383169E+02 -0.30861329818E+02  0.46866333438E+02  0.69869263038E+02  0.00000000000E+00 0. -1.
         -2    1    5    5    0  503 -0.58181380521E+03 -0.30863830653E+03  0.10087952669E+04  0.12047542483E+04  0.00000000000E+00 0.  1.
         -1    1    6    6    0  502 -0.77734681794E+01  0.29595060503E+02 -0.17790781536E+03  0.18052004093E+03  0.00000000000E+00 0.  1.
<mgrwt>
<rscale>  0 0.19501193E+04</rscale>
<asrwt>0</asrwt>
<pdfrwt beam="1">  1        2 0.26053098E+00 0.19501193E+04</pdfrwt>
<pdfrwt beam="2">  1       -2 0.86372653E-01 0.19501193E+04</pdfrwt>
<totfact> 0.10715778E+01</totfact>
</mgrwt>
</event>
<event>
12    1  0.1549527E-007  0.1346590E+04  0.7818608E-02  0.8993413E-01
          1   -1    0    0  501    0  0.00000000000E+00  0.00000000000E+00  0.48835661983E+03  0.48835661983E+03  0.00000000000E+00 0. -1.
         -1   -1    0    0    0  501 -0.00000000000E+00 -0.00000000000E+00 -0.92826936217E+03  0.92826936217E+03  0.00000000000E+00 0.  1.
         23    2    1    2    0    0 -0.37074727609E+03  0.62753170287E+02 -0.15561599397E+03  0.41683491200E+03  0.90241360665E+02 0.  0.
        254    2    1    2    0    0  0.37074727609E+03 -0.62753170287E+02 -0.28429674837E+03  0.99979107000E+03  0.88168363907E+03 0.  0.
        -24    2    4    4    0    0  0.15068912858E+02 -0.37242953799E+03 -0.34994421911E+03  0.51764039206E+03  0.80992506413E+02 0.  0.
         24    2    4    4    0    0  0.35567836323E+03  0.30967636771E+03  0.65647470744E+02  0.48215067794E+03  0.75849423427E+02 0.  0.
         11    1    3    3    0    0 -0.34402399203E+03  0.33211670066E+02 -0.14934367582E+03  0.37650903791E+03  0.00000000000E+00 0. -1.
        -11    1    3    3    0    0 -0.26723284065E+02  0.29541500221E+02 -0.62723181462E+01  0.40325874094E+02  0.00000000000E+00 0.  1.
          4    1    6    6  502    0  0.15005442051E+03  0.10759587499E+03  0.58757190710E+02  0.19376689317E+03  0.00000000000E+00 0. -1.
          3    1    5    5  503    0 -0.52261153473E+01 -0.40092146394E+02 -0.96811540547E+01  0.41574237550E+02  0.00000000000E+00 0. -1.
         -2    1    5    5    0  503  0.20295028206E+02 -0.33233739160E+03 -0.34026306506E+03  0.47606615451E+03  0.00000000000E+00 0.  1.
         -3    1    6    6    0  502  0.20562394273E+03  0.20208049272E+03  0.68902800348E+01  0.28838378477E+03  0.00000000000E+00 0.  1.
<mgrwt>
<rscale>  0 0.13465905E+04</rscale>
<asrwt>0</asrwt>
<pdfrwt beam="1">  1        1 0.75131789E-01 0.13465905E+04</pdfrwt>
<pdfrwt beam="2">  1       -1 0.14281067E+00 0.13465905E+04</pdfrwt>
<totfact> 0.17836118E+01</totfact>
</mgrwt>
</event>
<event>
12    1  0.1549527E-007  0.1192029E+04  0.7818608E-02  0.9119863E-01
         -1   -1    0    0    0  501 -0.00000000000E+00  0.00000000000E+00  0.12743082819E+04  0.12743082819E+04  0.00000000000E+00 0.  1.
          1   -1    0    0  501    0  0.00000000000E+00 -0.00000000000E+00 -0.27876538161E+03  0.27876538161E+03  0.00000000000E+00 0. -1.
         23    2    1    2    0    0  0.23010595790E+03  0.97384103437E+02  0.22991136520E+03  0.35160894546E+03  0.91308264789E+02 0.  0.
        254    2    1    2    0    0 -0.23010595790E+03 -0.97384103437E+02  0.76563153505E+03  0.12014647180E+04  0.89156794789E+03 0.  0.
        -24    2    4    4    0    0 -0.11520821655E+03  0.32539445354E+03  0.64989048210E+03  0.74136955226E+03  0.90092678620E+02 0.  0.
         24    2    4    4    0    0 -0.11489774134E+03 -0.42277855698E+03  0.11574105295E+03  0.46009516575E+03  0.79676665345E+02 0.  0.
         11    1    3    3    0    0  0.19870473526E+03  0.87567746045E+02  0.23308100203E+03  0.31855680101E+03  0.00000000000E+00 0. -1.
        -11    1    3    3    0    0  0.31401222632E+02  0.98163573927E+01 -0.31696368268E+01  0.33052144452E+02  0.00000000000E+00 0.  1.
          4    1    6    6  502    0 -0.90339477906E+02 -0.40448775862E+03  0.10402212507E+03  0.42730805123E+03  0.00000000000E+00 0. -1.
          3    1    5    5  503    0 -0.85305745162E+02  0.30334691737E+03  0.61167398530E+03  0.68807084427E+03  0.00000000000E+00 0. -1.
         -4    1    5    5    0  503 -0.29902471389E+02  0.22047536170E+02  0.38216496799E+02  0.53298707995E+02  0.00000000000E+00 0.  1.
         -3    1    6    6    0  502 -0.24558263438E+02 -0.18290798353E+02  0.11718927880E+02  0.32787114514E+02  0.00000000000E+00 0.  1.
<mgrwt>
<rscale>  0 0.11920286E+04</rscale>
<asrwt>0</asrwt>
<pdfrwt beam="1">  1        1 0.42886982E-01 0.11920286E+04</pdfrwt>
<pdfrwt beam="2">  1       -1 0.19604743E+00 0.11920286E+04</pdfrwt>
<totfact> 0.15321896E+01</totfact>
</mgrwt>
</event>
<event>
12    1  0.1549527E-007  0.1398752E+04  0.7818608E-02  0.8954723E-01
          2   -1    0    0  501    0  0.00000000000E+00  0.00000000000E+00  0.11253894884E+04  0.11253894884E+04  0.00000000000E+00 0. -1.
         -2   -1    0    0    0  501 -0.00000000000E+00 -0.00000000000E+00 -0.43462865056E+03  0.43462865056E+03  0.00000000000E+00 0.  1.
         23    2    1    2    0    0  0.15050028630E+03 -0.37568863652E+03  0.33067529162E+03  0.53052345098E+03  0.91195919699E+02 0.  0.
        254    2    1    2    0    0 -0.15050028630E+03  0.37568863652E+03  0.36008554621E+03  0.10294946880E+04  0.87544584310E+03 0.  0.
        -24    2    4    4    0    0  0.16438071322E+03  0.56169646564E+03  0.22373561486E+03  0.63099809611E+03  0.74679539000E+02 0.  0.
         24    2    4    4    0    0 -0.31488099952E+03 -0.18600782912E+03  0.13634993134E+03  0.39849659187E+03  0.80369606187E+02 0.  0.
         13    1    3    3    0    0  0.34285279778E+02 -0.61292125759E+02  0.10544542343E+03  0.12669231395E+03  0.00000000000E+00 0. -1.
        -13    1    3    3    0    0  0.11621500652E+03 -0.31439651076E+03  0.22522986819E+03  0.40383113704E+03  0.00000000000E+00 0.  1.
          2    1    6    6  502    0 -0.23562209056E+03 -0.14274412777E+03  0.13813702895E+03  0.30818094415E+03  0.00000000000E+00 0. -1.
          3    1    5    5  503    0  0.15281242274E+03  0.44274913071E+03  0.15626071580E+03  0.49375686384E+03  0.00000000000E+00 0. -1.
         -4    1    5    5    0  503  0.11568290487E+02  0.11894733492E+03  0.67474899060E+02  0.13724123226E+03  0.00000000000E+00 0.  1.
         -1    1    6    6    0  502 -0.79258908965E+02 -0.43263701347E+02 -0.17870976017E+01  0.90315647716E+02  0.00000000000E+00 0.  1.
<mgrwt>
<rscale>  0 0.13987516E+04</rscale>
<asrwt>0</asrwt>
<pdfrwt beam="1">  1        2 0.17313684E+00 0.13987516E+04</pdfrwt>
<pdfrwt beam="2">  1       -2 0.66865947E-01 0.13987516E+04</pdfrwt>
<totfact> 0.42019075E+01</totfact>
</mgrwt>
</event>
<event>
12    1  0.1549527E-007  0.1137565E+04  0.7818608E-02  0.9169333E-01
         -3   -1    0    0    0  501 -0.00000000000E+00  0.00000000000E+00  0.30238917933E+03  0.30238917933E+03  0.00000000000E+00 0.  1.
          3   -1    0    0  501    0  0.00000000000E+00 -0.00000000000E+00 -0.10698573123E+04  0.10698573123E+04  0.00000000000E+00 0. -1.
         23    2    1    2    0    0  0.10234252884E+03  0.16955240234E+03 -0.11026223860E+03  0.24434161849E+03  0.91230778338E+02 0.  0.
        254    2    1    2    0    0 -0.10234252884E+03 -0.16955240234E+03 -0.65720589434E+03  0.11279048731E+04  0.89500156697E+03 0.  0.
        -24    2    4    4    0    0  0.50927552545E+02  0.30324296194E+03 -0.51420127395E+03  0.60461714224E+03  0.81295934595E+02 0.  0.
         24    2    4    4    0    0 -0.15327008139E+03 -0.47279536428E+03 -0.14300462039E+03  0.52328773087E+03  0.79702907679E+02 0.  0.
         13    1    3    3    0    0  0.97946110019E+01 -0.44858743919E+01  0.89286569896E+01  0.13992083096E+02  0.00000000000E+00 0. -1.
        -13    1    3    3    0    0  0.92547917839E+02  0.17403827673E+03 -0.11919089559E+03  0.23034953540E+03  0.00000000000E+00 0.  1.
          4    1    6    6  502    0 -0.48602835976E+02 -0.27715425995E+03 -0.85257715236E+02  0.29401632179E+03  0.00000000000E+00 0. -1.
          3    1    5    5  503    0  0.70948252316E+02  0.18522278767E+03 -0.31946961166E+03  0.37603453079E+03  0.00000000000E+00 0. -1.
         -4    1    5    5    0  503 -0.20020699771E+02  0.11802017427E+03 -0.19473166229E+03  0.22858261144E+03  0.00000000000E+00 0.  1.
         -3    1    6    6    0  502 -0.10466724541E+03 -0.19564110434E+03 -0.57746905151E+02  0.22927140908E+03  0.00000000000E+00 0.  1.
<mgrwt>
<rscale>  0 0.11375645E+04</rscale>
<asrwt>0</asrwt>
<pdfrwt beam="1">  1        3 0.16459343E+00 0.11375645E+04</pdfrwt>
<pdfrwt beam="2">  1       -3 0.46521412E-01 0.11375645E+04</pdfrwt>
<totfact> 0.30245854E+00</totfact>
</mgrwt>
</event>
<event>
12    1  0.1549527E-007  0.2985934E+04  0.7818608E-02  0.8247759E-01
          2   -1    0    0  501    0  0.00000000000E+00  0.00000000000E+00  0.10426073658E+04  0.10426073658E+04  0.00000000000E+00 0. -1.
         -2   -1    0    0    0  501 -0.00000000000E+00 -0.00000000000E+00 -0.21378614114E+04  0.21378614114E+04  0.00000000000E+00 0.  1.
         23    2    1    2    0    0  0.86881798187E+02  0.52097643961E+03 -0.18251132054E+04  0.19023144787E+04  0.93793739458E+02 0.  0.
        254    2    1    2    0    0 -0.86881798187E+02 -0.52097643961E+03  0.72985915982E+03  0.12781542985E+04  0.90665270096E+03 0.  0.
        -24    2    4    4    0    0  0.11899836613E+03 -0.64635091752E+03  0.77611947690E+03  0.10200935199E+04  0.79367671616E+02 0.  0.
         24    2    4    4    0    0 -0.20588016431E+03  0.12537447790E+03 -0.46260317078E+02  0.25806077858E+03  0.79686553056E+02 0.  0.
         13    1    3    3    0    0  0.30005049602E+02  0.63492793667E+02 -0.34476672984E+03  0.35184618209E+03  0.00000000000E+00 0. -1.
        -13    1    3    3    0    0  0.56876748584E+02  0.45748364595E+03 -0.14803464756E+04  0.15504682966E+04  0.00000000000E+00 0.  1.
          4    1    6    6  502    0  0.55007180914E+01 -0.14266367802E+00  0.44139734662E+01  0.70541770751E+01  0.00000000000E+00 0. -1.
          3    1    5    5  503    0  0.16299701715E+02 -0.18712110956E+02  0.42167628495E+02  0.48927827106E+02  0.00000000000E+00 0. -1.
         -2    1    5    5    0  503  0.10269866441E+03 -0.62763880656E+03  0.73395184840E+03  0.97116569284E+03  0.00000000000E+00 0.  1.
         -3    1    6    6    0  502 -0.21138088240E+03  0.12551714158E+03 -0.50674290544E+02  0.25100660150E+03  0.00000000000E+00 0.  1.
<mgrwt>
<rscale>  0 0.29859337E+04</rscale>
<asrwt>0</asrwt>
<pdfrwt beam="1">  1        2 0.16040114E+00 0.29859337E+04</pdfrwt>
<pdfrwt beam="2">  1       -2 0.32890175E+00 0.29859337E+04</pdfrwt>
<totfact> 0.42754269E-01</totfact>
</mgrwt>
</event>
<event>
12    1  0.1549527E-007  0.1437459E+04  0.7818608E-02  0.8927141E-01
          2   -1    0    0  501    0  0.00000000000E+00  0.00000000000E+00  0.65594734307E+03  0.65594734307E+03  0.00000000000E+00 0. -1.
         -2   -1    0    0    0  501 -0.00000000000E+00 -0.00000000000E+00 -0.78752110015E+03  0.78752110015E+03  0.00000000000E+00 0.  1.
         23    2    1    2    0    0  0.26091972303E+03 -0.33229891610E+03 -0.27971247709E+01  0.43276107196E+03  0.93662425675E+02 0.  0.
        254    2    1    2    0    0 -0.26091972303E+03  0.33229891610E+03 -0.12877663231E+03  0.10107073713E+04  0.90908981832E+03 0.  0.
        -24    2    4    4    0    0 -0.23246332906E+03 -0.95151902526E+01  0.34330244075E+03  0.42177737531E+03  0.76875550727E+02 0.  0.
         24    2    4    4    0    0 -0.28456393970E+02  0.34181410636E+03 -0.47207907306E+03  0.58892999594E+03  0.79581651398E+02 0.  0.
         11    1    3    3    0    0  0.13948588667E+03 -0.23649413344E+03  0.24648002025E+02  0.27566884433E+03  0.00000000000E+00 0. -1.
        -11    1    3    3    0    0  0.12143383637E+03 -0.95804782665E+02 -0.27445126796E+02  0.15709222763E+03  0.00000000000E+00 0.  1.
          4    1    6    6  502    0  0.16373653747E+01  0.17565949954E+03 -0.17973544707E+03  0.25132403721E+03  0.00000000000E+00 0. -1.
          1    1    5    5  503    0 -0.18073980673E+03 -0.76125660387E+01  0.20132390295E+03  0.27065872016E+03  0.00000000000E+00 0. -1.
         -2    1    5    5    0  503 -0.51723522335E+02 -0.19026242138E+01  0.14197853780E+03  0.15111865516E+03  0.00000000000E+00 0.  1.
         -3    1    6    6    0  502 -0.30093759345E+02  0.16615460681E+03 -0.29234362599E+03  0.33760595874E+03  0.00000000000E+00 0.  1.
<mgrwt>
<rscale>  0 0.14374594E+04</rscale>
<asrwt>0</asrwt>
<pdfrwt beam="1">  1        2 0.10091498E+00 0.14374594E+04</pdfrwt>
<pdfrwt beam="2">  1       -2 0.12115709E+00 0.14374594E+04</pdfrwt>
<totfact> 0.22368939E+01</totfact>
</mgrwt>
</event>
<event>
12    1  0.1549527E-007  0.1278699E+04  0.7818608E-02  0.9046630E-01
         -1   -1    0    0    0  501 -0.00000000000E+00  0.00000000000E+00  0.27347196411E+03  0.27347196411E+03  0.00000000000E+00 0.  1.
          1   -1    0    0  501    0  0.00000000000E+00 -0.00000000000E+00 -0.14947328128E+04  0.14947328128E+04  0.00000000000E+00 0. -1.
         23    2    1    2    0    0 -0.27839093299E+03  0.96746007844E+02 -0.45303114330E+03  0.54799659591E+03  0.90563517623E+02 0.  0.
        254    2    1    2    0    0  0.27839093299E+03 -0.96746007844E+02 -0.76822970536E+03  0.12202081810E+04  0.90103819182E+03 0.  0.
        -24    2    4    4    0    0  0.24003537120E+03 -0.69431684745E+02  0.14670159089E+03  0.30053329002E+03  0.79756901718E+02 0.  0.
         24    2    4    4    0    0  0.38355561794E+02 -0.27314323099E+02 -0.91493129625E+03  0.91967489096E+03  0.80532023609E+02 0.  0.
         11    1    3    3    0    0 -0.62603939505E+02  0.23881919557E+02 -0.18219094141E+03  0.19412145284E+03  0.00000000000E+00 0.  1.
        -11    1    3    3    0    0 -0.21578699348E+03  0.72864088287E+02 -0.27084020190E+03  0.35387514307E+03  0.00000000000E+00 0. -1.
          2    1    6    6  502    0 -0.54585274125E+01  0.20794055768E+02 -0.41071052472E+03  0.41127280896E+03  0.00000000000E+00 0. -1.
          1    1    5    5  503    0  0.22818440028E+03 -0.81942868111E+02  0.14654665850E+03  0.28329962457E+03  0.00000000000E+00 0. -1.
         -2    1    5    5    0  503  0.11850970919E+02  0.12511183366E+02  0.15493238993E+00  0.17233665454E+02  0.00000000000E+00 0.  1.
         -1    1    6    6    0  502  0.43814089206E+02 -0.48108378867E+02 -0.50422077153E+03  0.50840208199E+03  0.00000000000E+00 0.  1.
<mgrwt>
<rscale>  0 0.12786986E+04</rscale>
<asrwt>0</asrwt>
<pdfrwt beam="1">  1        1 0.22995890E+00 0.12786986E+04</pdfrwt>
<pdfrwt beam="2">  1       -1 0.42072609E-01 0.12786986E+04</pdfrwt>
<totfact> 0.36023644E+01</totfact>
</mgrwt>
</event>
<event>
12    1  0.1549527E-007  0.1961584E+04  0.7818608E-02  0.8624795E-01
         -2   -1    0    0    0  501 -0.00000000000E+00  0.00000000000E+00  0.74685694020E+03  0.74685694020E+03  0.00000000000E+00 0. -1.
          2   -1    0    0  501    0  0.00000000000E+00 -0.00000000000E+00 -0.12880015852E+04  0.12880015852E+04  0.00000000000E+00 0.  1.
         23    2    1    2    0    0  0.47982375835E+03 -0.51384480846E+03 -0.53055288540E+03  0.88397370402E+03  0.75205178938E+02 0.  0.
        254    2    1    2    0    0 -0.47982375835E+03  0.51384480846E+03 -0.10591759628E+02  0.11508848214E+04  0.91112916786E+03 0.  0.
        -24    2    4    4    0    0 -0.46271288341E+02  0.11095086960E+03 -0.40804389899E+03  0.43286687643E+03  0.80142258641E+02 0.  0.
         24    2    4    4    0    0 -0.43355247001E+03  0.40289393887E+03  0.39745213936E+03  0.71801794498E+03  0.85383230251E+02 0.  0.
         11    1    3    3    0    0  0.19488407213E+03 -0.24334014594E+03 -0.19878371115E+03  0.36974206146E+03  0.00000000000E+00 0. -1.
        -11    1    3    3    0    0  0.28493968621E+03 -0.27050466253E+03 -0.33176917425E+03  0.51423164256E+03  0.00000000000E+00 0.  1.
          4    1    6    6  502    0 -0.19378758716E+03  0.23775448320E+03  0.19664058071E+03  0.36434645765E+03  0.00000000000E+00 0. -1.
          3    1    5    5  503    0 -0.48396624978E+02  0.18205342383E+02 -0.14540943455E+03  0.15432942512E+03  0.00000000000E+00 0. -1.
         -4    1    5    5    0  503  0.21253366370E+01  0.92745527212E+02 -0.26263446443E+03  0.27853745131E+03  0.00000000000E+00 0.  1.
         -3    1    6    6    0  502 -0.23976488284E+03  0.16513945566E+03  0.20081155864E+03  0.35367148733E+03  0.00000000000E+00 0.  1.
<mgrwt>
<rscale>  0 0.19615840E+04</rscale>
<asrwt>0</asrwt>
<pdfrwt beam="1">  1        2 0.19815409E+00 0.19615840E+04</pdfrwt>
<pdfrwt beam="2">  1       -2 0.11490107E+00 0.19615840E+04</pdfrwt>
<totfact> 0.92533728E+00</totfact>
</mgrwt>
</event>
<event>
12    1  0.1549527E-007  0.1820649E+04  0.7818608E-02  0.8695395E-01
          2   -1    0    0  501    0  0.00000000000E+00  0.00000000000E+00  0.11039673010E+04  0.11039673010E+04  0.00000000000E+00 0. -1.
         -2   -1    0    0    0  501 -0.00000000000E+00 -0.00000000000E+00 -0.75064792092E+03  0.75064792092E+03  0.00000000000E+00 0.  1.
         23    2    1    2    0    0 -0.59626418426E+03  0.27390164337E+03  0.33695549511E+03  0.74348818177E+03  0.93180379241E+02 0.  0.
        254    2    1    2    0    0  0.59626418426E+03 -0.27390164337E+03  0.16363885008E+02  0.11111270402E+04  0.89653914305E+03 0.  0.
        -24    2    4    4    0    0  0.19561725899E+03  0.21430584737E+03 -0.27812299332E+03  0.40967781231E+03  0.79312056168E+02 0.  0.
         24    2    4    4    0    0  0.40064692528E+03 -0.48820749074E+03  0.29448687833E+03  0.70144922787E+03  0.80274435740E+02 0.  0.
         13    1    3    3    0    0 -0.10990412504E+03  0.87642410714E+02  0.91600929282E+02  0.16778211795E+03  0.00000000000E+00 0. -1.
        -13    1    3    3    0    0 -0.48636005922E+03  0.18625923266E+03  0.24535456583E+03  0.57570606383E+03  0.00000000000E+00 0.  1.
          4    1    6    6  502    0  0.75082658309E+02 -0.60886138448E+02  0.22242856675E+02  0.99193105138E+02  0.00000000000E+00 0. -1.
          1    1    5    5  503    0  0.66686705189E+02  0.10840328246E+03 -0.78606127914E+02  0.14959047978E+03  0.00000000000E+00 0. -1.
         -2    1    5    5    0  503  0.12893055380E+03  0.10590256491E+03 -0.19951686541E+03  0.26008733252E+03  0.00000000000E+00 0.  1.
         -3    1    6    6    0  502  0.32556426697E+03 -0.42732135229E+03  0.27224402165E+03  0.60225612274E+03  0.00000000000E+00 0.  1.
<mgrwt>
<rscale>  0 0.18206491E+04</rscale>
<asrwt>0</asrwt>
<pdfrwt beam="1">  1        2 0.16984112E+00 0.18206491E+04</pdfrwt>
<pdfrwt beam="2">  1       -2 0.11548429E+00 0.18206491E+04</pdfrwt>
<totfact> 0.11918219E+01</totfact>
</mgrwt>
</event>
<event>
12    1  0.1549527E-007  0.1544375E+04  0.7818608E-02  0.8855469E-01
         -2   -1    0    0    0  501 -0.00000000000E+00  0.00000000000E+00  0.25856076043E+03  0.25856076043E+03  0.00000000000E+00 0.  1.
          2   -1    0    0  501    0  0.00000000000E+00 -0.00000000000E+00 -0.23061244962E+04  0.23061244962E+04  0.00000000000E+00 0. -1.
         23    2    1    2    0    0  0.27771246207E+03 -0.11844027113E+03 -0.13419085857E+04  0.13783050776E+04  0.88622374726E+02 0.  0.
        254    2    1    2    0    0 -0.27771246207E+03  0.11844027113E+03 -0.70565515010E+03  0.11863801790E+04  0.90465265648E+03 0.  0.
        -24    2    4    4    0    0 -0.24190583769E+03  0.43204148928E+03 -0.11893970297E+03  0.51540005926E+03  0.79449892250E+02 0.  0.
         24    2    4    4    0    0 -0.35806624381E+02 -0.31360121816E+03 -0.58671544713E+03  0.67098011974E+03  0.79696090322E+02 0.  0.
         13    1    3    3    0    0  0.28296861348E+03 -0.11413846858E+03 -0.13304091143E+04  0.13649495366E+04  0.00000000000E+00 0. -1.
        -13    1    3    3    0    0 -0.52561514069E+01 -0.43018025427E+01 -0.11499471400E+02  0.13355540993E+02  0.00000000000E+00 0.  1.
          4    1    6    6  502    0 -0.42747831684E+02 -0.29058165356E+03 -0.57141942905E+03  0.64248364835E+03  0.00000000000E+00 0. -1.
          3    1    5    5  503    0 -0.57832883751E+02  0.18154574143E+03 -0.40249700657E+02  0.19473966488E+03  0.00000000000E+00 0. -1.
         -4    1    5    5    0  503 -0.18407295394E+03  0.25049574785E+03 -0.78690002312E+02  0.32066039439E+03  0.00000000000E+00 0.  1.
         -3    1    6    6    0  502  0.69412073030E+01 -0.23019564595E+02 -0.15296018084E+02  0.28496471399E+02  0.00000000000E+00 0.  1.
<mgrwt>
<rscale>  0 0.15443747E+04</rscale>
<asrwt>0</asrwt>
<pdfrwt beam="1">  1        2 0.35478838E+00 0.15443747E+04</pdfrwt>
<pdfrwt beam="2">  1       -2 0.39778579E-01 0.15443747E+04</pdfrwt>
<totfact> 0.25930621E+01</totfact>
</mgrwt>
</event>
<event>
12    1  0.1549527E-007  0.1633314E+04  0.7818608E-02  0.8800339E-01
          1   -1    0    0  501    0  0.00000000000E+00  0.00000000000E+00  0.39494814740E+03  0.39494814740E+03  0.00000000000E+00 0. -1.
         -1   -1    0    0    0  501 -0.00000000000E+00 -0.00000000000E+00 -0.16886493273E+04  0.16886493273E+04  0.00000000000E+00 0.  1.
         23    2    1    2    0    0  0.51389826290E+02  0.53551956987E+03 -0.63509236830E+03  0.83839874385E+03  0.10073734885E+03 0.  0.
        254    2    1    2    0    0 -0.51389826290E+02 -0.53551956987E+03 -0.65860881155E+03  0.12451987308E+04  0.90957802774E+03 0.  0.
        -24    2    4    4    0    0 -0.15804668020E+03 -0.17565805617E+03  0.19074219766E+03  0.31342283186E+03  0.77567904060E+02 0.  0.
         24    2    4    4    0    0  0.10665685391E+03 -0.35986151370E+03 -0.84935100922E+03  0.93177589894E+03  0.77027238426E+02 0.  0.
         13    1    3    3    0    0  0.53601863884E+02  0.53910066403E+03 -0.62307998814E+03  0.82567024737E+03  0.00000000000E+00 0. -1.
        -13    1    3    3    0    0 -0.22120375942E+01 -0.35810941518E+01 -0.12012380162E+02  0.12728496486E+02  0.00000000000E+00 0.  1.
          2    1    6    6  502    0  0.54059743222E+02 -0.77988083488E+02 -0.17693549089E+03  0.20077540921E+03  0.00000000000E+00 0. -1.
          3    1    5    5  503    0 -0.55996128400E+02 -0.44018293878E+02  0.18016142257E+02  0.73469435642E+02  0.00000000000E+00 0. -1.
         -4    1    5    5    0  503 -0.10205055180E+03 -0.13163976229E+03  0.17272605540E+03  0.23995339621E+03  0.00000000000E+00 0.  1.
         -1    1    6    6    0  502  0.52597110685E+02 -0.28187343021E+03 -0.67241551832E+03  0.73100048973E+03  0.00000000000E+00 0.  1.
<mgrwt>
<rscale>  0 0.16333143E+04</rscale>
<asrwt>0</asrwt>
<pdfrwt beam="1">  1        1 0.60761253E-01 0.16333143E+04</pdfrwt>
<pdfrwt beam="2">  1       -1 0.25979221E+00 0.16333143E+04</pdfrwt>
<totfact> 0.35165417E+00</totfact>
</mgrwt>
</event>
<event>
12    1  0.1549527E-007  0.1937739E+04  0.7818608E-02  0.8636296E-01
         -2   -1    0    0    0  501 -0.00000000000E+00  0.00000000000E+00  0.81436116257E+03  0.81436116257E+03  0.00000000000E+00 0.  1.
          2   -1    0    0  501    0  0.00000000000E+00 -0.00000000000E+00 -0.11526921315E+04  0.11526921315E+04  0.00000000000E+00 0. -1.
         23    2    1    2    0    0 -0.34330967617E+03 -0.34259298493E+03 -0.72064556280E+03  0.87340796470E+03  0.90994277576E+02 0.  0.
        254    2    1    2    0    0  0.34330967617E+03  0.34259298493E+03  0.38231459382E+03  0.10936453294E+04  0.90258748652E+03 0.  0.
        -24    2    4    4    0    0  0.47157819448E+03 -0.12609421151E+02  0.49850034883E+03  0.69098364307E+03  0.80067510248E+02 0.  0.
         24    2    4    4    0    0 -0.12826851831E+03  0.35520240608E+03 -0.11618575500E+03  0.40266168635E+03  0.77561213968E+02 0.  0.
         13    1    3    3    0    0 -0.32357470345E+03 -0.34445392649E+03 -0.67891823112E+03  0.82721161787E+03  0.00000000000E+00 0. -1.
        -13    1    3    3    0    0 -0.19734972714E+02  0.18609415675E+01 -0.41727331680E+02  0.46196346833E+02  0.00000000000E+00 0.  1.
          4    1    6    6  502    0 -0.11617553892E+03  0.21873709444E+03 -0.61854273450E+02  0.25528145932E+03  0.00000000000E+00 0. -1.
          1    1    5    5  503    0  0.34996058497E+03 -0.24642352082E+02  0.32128262534E+03  0.47571228899E+03  0.00000000000E+00 0. -1.
         -2    1    5    5    0  503  0.12161760951E+03  0.12032930930E+02  0.17721772349E+03  0.21527135408E+03  0.00000000000E+00 0.  1.
         -3    1    6    6    0  502 -0.12092979390E+02  0.13646531164E+03 -0.54331481553E+02  0.14738022703E+03  0.00000000000E+00 0.  1.
<mgrwt>
<rscale>  0 0.19377386E+04</rscale>
<asrwt>0</asrwt>
<pdfrwt beam="1">  1        2 0.17733725E+00 0.19377386E+04</pdfrwt>
<pdfrwt beam="2">  1       -2 0.12528633E+00 0.19377386E+04</pdfrwt>
<totfact> 0.90046527E+00</totfact>
</mgrwt>
</event>
<event>
12    1  0.1549527E-007  0.2477108E+04  0.7818608E-02  0.8411187E-01
          2   -1    0    0  501    0  0.00000000000E+00  0.00000000000E+00  0.21035751633E+04  0.21035751633E+04  0.00000000000E+00 0. -1.
         -2   -1    0    0    0  501 -0.00000000000E+00 -0.00000000000E+00 -0.72924213548E+03  0.72924213548E+03  0.00000000000E+00 0.  1.
         23    2    1    2    0    0 -0.72285908919E+03  0.57068950292E+03 -0.28781095439E+02  0.92586334785E+03  0.90458918102E+02 0.  0.
        254    2    1    2    0    0  0.72285908919E+03 -0.57068950292E+03  0.14031141233E+04  0.19069539510E+04  0.90528026407E+03 0.  0.
        -24    2    4    4    0    0  0.74572293657E+03 -0.76815961639E+03  0.10950195094E+04  0.15335230680E+04  0.80332931303E+02 0.  0.
         24    2    4    4    0    0 -0.22863847384E+02  0.19747011347E+03  0.30809461390E+03  0.37343088293E+03  0.70789349326E+02 0.  0.
         13    1    3    3    0    0 -0.31482440501E+03  0.20256237422E+03  0.14208248132E+02  0.37463021202E+03  0.00000000000E+00 0.  1.
        -13    1    3    3    0    0 -0.40803468418E+03  0.36812712870E+03 -0.42989343571E+02  0.55123313583E+03  0.00000000000E+00 0. -1.
          4    1    6    6  502    0  0.23524886639E+02  0.47488309707E+02  0.94528145155E+02  0.10837033762E+03  0.00000000000E+00 0. -1.
          3    1    5    5  503    0  0.48508838963E+02 -0.68001667629E+02  0.61986382087E+02  0.10401752651E+03  0.00000000000E+00 0. -1.
         -4    1    5    5    0  503  0.69721409761E+03 -0.70015794876E+03  0.10330331273E+04  0.14295055415E+04  0.00000000000E+00 0.  1.
         -3    1    6    6    0  502 -0.46388734022E+02  0.14998180376E+03  0.21356646875E+03  0.26506054531E+03  0.00000000000E+00 0.  1.
<mgrwt>
<rscale>  0 0.24771077E+04</rscale>
<asrwt>0</asrwt>
<pdfrwt beam="1">  1        2 0.32362695E+00 0.24771077E+04</pdfrwt>
<pdfrwt beam="2">  1       -2 0.11219110E+00 0.24771077E+04</pdfrwt>
<totfact> 0.32729758E+00</totfact>
</mgrwt>
</event>
<event>
12    1  0.1549527E-007  0.1213595E+04  0.7818608E-02  0.9101039E-01
         -1   -1    0    0    0  501 -0.00000000000E+00  0.00000000000E+00  0.15897828080E+03  0.15897828080E+03  0.00000000000E+00 0.  1.
          1   -1    0    0  501    0  0.00000000000E+00 -0.00000000000E+00 -0.23160603191E+04  0.23160603191E+04  0.00000000000E+00 0. -1.
         23    2    1    2    0    0 -0.99885618810E+02 -0.23990228613E+03 -0.49245663837E+03  0.56383164924E+03  0.88669861150E+02 0.  0.
        254    2    1    2    0    0  0.99885618810E+02  0.23990228613E+03 -0.16646254000E+04  0.19112069507E+04  0.90233255644E+03 0.  0.
        -24    2    4    4    0    0 -0.19491924906E+03  0.32653866617E+03 -0.25202917652E+03  0.46332350239E+03  0.80801905220E+02 0.  0.
         24    2    4    4    0    0  0.29480486787E+03 -0.86636380042E+02 -0.14125962234E+04  0.14478834483E+04  0.80762719805E+02 0.  0.
         11    1    3    3    0    0 -0.57605999061E+01 -0.11040433121E+03 -0.24919628329E+03  0.27261894371E+03  0.00000000000E+00 0. -1.
        -11    1    3    3    0    0 -0.94125018904E+02 -0.12949795492E+03 -0.24326035507E+03  0.29121270553E+03  0.00000000000E+00 0.  1.
          4    1    6    6  502    0  0.20843736536E+03 -0.55774587351E+02 -0.11409073717E+04  0.11611315906E+04  0.00000000000E+00 0. -1.
          3    1    5    5  503    0 -0.13951487978E+03  0.20651163697E+03 -0.12044158828E+03  0.27679890547E+03  0.00000000000E+00 0. -1.
         -4    1    5    5    0  503 -0.55404369276E+02  0.12002702920E+03 -0.13158758824E+03  0.18652459691E+03  0.00000000000E+00 0.  1.
         -3    1    6    6    0  502  0.86367502511E+02 -0.30861792691E+02 -0.27168885177E+03  0.28675185773E+03  0.00000000000E+00 0.  1.
<mgrwt>
<rscale>  0 0.12135951E+04</rscale>
<asrwt>0</asrwt>
<pdfrwt beam="1">  1        1 0.35631697E+00 0.12135951E+04</pdfrwt>
<pdfrwt beam="2">  1       -1 0.24458197E-01 0.12135951E+04</pdfrwt>
<totfact> 0.26204842E+01</totfact>
</mgrwt>
</event>
<event>
12    1  0.1549527E-007  0.3046594E+04  0.7818608E-02  0.8230550E-01
          1   -1    0    0  501    0  0.00000000000E+00  0.00000000000E+00  0.24716625845E+04  0.24716625845E+04  0.00000000000E+00 0. -1.
         -1   -1    0    0    0  501 -0.00000000000E+00 -0.00000000000E+00 -0.93881463332E+03  0.93881463332E+03  0.00000000000E+00 0.  1.
         23    2    1    2    0    0  0.12627651864E+04 -0.20614138008E+03  0.12924459211E+04  0.18209193142E+04  0.90887323054E+02 0.  0.
        254    2    1    2    0    0 -0.12627651864E+04  0.20614138008E+03  0.24040203008E+03  0.15895579036E+04  0.91204770069E+03 0.  0.
        -24    2    4    4    0    0  0.28462230348E+02  0.32698997091E+01  0.26724642504E+03  0.27980240670E+03  0.77768530241E+02 0.  0.
         24    2    4    4    0    0 -0.12912274167E+04  0.20287148037E+03 -0.26844394958E+02  0.13097554969E+04  0.79459177552E+02 0.  0.
         11    1    3    3    0    0  0.10766314348E+04 -0.20333119367E+03  0.11279704605E+04  0.15725126964E+04  0.00000000000E+00 0. -1.
        -11    1    3    3    0    0  0.18613375159E+03 -0.28101864113E+01  0.16447546059E+03  0.24840661780E+03  0.00000000000E+00 0.  1.
          4    1    6    6  502    0 -0.43760783371E+03  0.30799767778E+02 -0.87647742177E+01  0.43877792001E+03  0.00000000000E+00 0. -1.
          1    1    5    5  503    0  0.18974380661E+01  0.35387852153E+02  0.17535308777E+03  0.17889831117E+03  0.00000000000E+00 0. -1.
         -2    1    5    5    0  503  0.26564792282E+02 -0.32117952444E+02  0.91893337276E+02  0.10090409553E+03  0.00000000000E+00 0.  1.
         -3    1    6    6    0  502 -0.85361958300E+03  0.17207171259E+03 -0.18079620741E+02  0.87097757689E+03  0.00000000000E+00 0.  1.
<mgrwt>
<rscale>  0 0.30465935E+04</rscale>
<asrwt>0</asrwt>
<pdfrwt beam="1">  1        1 0.38025578E+00 0.30465935E+04</pdfrwt>
<pdfrwt beam="2">  1       -1 0.14443302E+00 0.30465935E+04</pdfrwt>
<totfact> 0.46372820E-01</totfact>
</mgrwt>
</event>
<event>
12    1  0.1549527E-007  0.2060124E+04  0.7818608E-02  0.8579016E-01
         -2   -1    0    0    0  501 -0.00000000000E+00  0.00000000000E+00  0.56044050992E+03  0.56044050992E+03  0.00000000000E+00 0.  1.
          2   -1    0    0  501    0  0.00000000000E+00 -0.00000000000E+00 -0.18932025507E+04  0.18932025507E+04  0.00000000000E+00 0. -1.
         23    2    1    2    0    0  0.40070793816E+03  0.70333771967E+03 -0.32766354188E+03  0.87794458748E+03  0.90401893674E+02 0.  0.
        254    2    1    2    0    0 -0.40070793816E+03 -0.70333771967E+03 -0.10050984989E+04  0.15756984731E+04  0.90407515513E+03 0.  0.
        -24    2    4    4    0    0 -0.66641727794E+03 -0.50595552951E+03 -0.87001355810E+03  0.12097171090E+04  0.79930634431E+02 0.  0.
         24    2    4    4    0    0  0.26570933977E+03 -0.19738219016E+03 -0.13508494076E+03  0.36598136412E+03  0.78314975747E+02 0.  0.
         13    1    3    3    0    0  0.35102056197E+03  0.58051898184E+03 -0.30385274080E+03  0.74333317650E+03  0.00000000000E+00 0.  1.
        -13    1    3    3    0    0  0.49687376195E+02  0.12281873783E+03 -0.23810801087E+02  0.13461141098E+03  0.00000000000E+00 0. -1.
          2    1    6    6  502    0  0.16254462465E+03 -0.11774257655E+03 -0.40005446633E+02  0.20465704262E+03  0.00000000000E+00 0. -1.
          3    1    5    5  503    0 -0.52169881007E+03 -0.40139829116E+03 -0.72900404931E+03  0.98221033413E+03  0.00000000000E+00 0. -1.
         -4    1    5    5    0  503 -0.14471846787E+03 -0.10455723835E+03 -0.14100950879E+03  0.22750677485E+03  0.00000000000E+00 0.  1.
         -1    1    6    6    0  502  0.10316471513E+03 -0.79639613612E+02 -0.95079494123E+02  0.16132432150E+03  0.00000000000E+00 0.  1.
<mgrwt>
<rscale>  0 0.20601237E+04</rscale>
<asrwt>0</asrwt>
<pdfrwt beam="1">  1        2 0.29126193E+00 0.20601237E+04</pdfrwt>
<pdfrwt beam="2">  1       -2 0.86221617E-01 0.20601237E+04</pdfrwt>
<totfact> 0.82587641E+00</totfact>
</mgrwt>
</event>
<event>
12    1  0.1549527E-007  0.3069812E+04  0.7818608E-02  0.8224072E-01
          1   -1    0    0  501    0  0.00000000000E+00  0.00000000000E+00  0.12837824159E+04  0.12837824159E+04  0.00000000000E+00 0. -1.
         -1   -1    0    0    0  501 -0.00000000000E+00 -0.00000000000E+00 -0.18351524428E+04  0.18351524428E+04  0.00000000000E+00 0.  1.
         23    2    1    2    0    0  0.11379055316E+04  0.59448538894E+03  0.27346962284E+03  0.13158099506E+04  0.91259602052E+02 0.  0.
        254    2    1    2    0    0 -0.11379055316E+04 -0.59448538894E+03 -0.82483964977E+03  0.18031249081E+04  0.96055042026E+03 0.  0.
        -24    2    4    4    0    0 -0.11630999588E+04 -0.77054176563E+03 -0.78855733484E+03  0.16046275350E+04  0.80440840820E+02 0.  0.
         24    2    4    4    0    0  0.25194427255E+02  0.17605637669E+03 -0.36282314931E+02  0.19849737311E+03  0.80337997340E+02 0.  0.
         13    1    3    3    0    0  0.96938543374E+03  0.54005920526E+03  0.24581715194E+03  0.11365729790E+04  0.00000000000E+00 0. -1.
        -13    1    3    3    0    0  0.16852009783E+03  0.54426183679E+02  0.27652470897E+02  0.17923697160E+03  0.00000000000E+00 0.  1.
          4    1    6    6  502    0  0.12514589130E+02  0.14794861440E+02  0.19402411807E+02  0.27421824338E+02  0.00000000000E+00 0. -1.
          3    1    5    5  503    0 -0.23822368254E+03 -0.14221283472E+03 -0.12370155869E+03  0.30377144188E+03  0.00000000000E+00 0. -1.
         -4    1    5    5    0  503 -0.92487627629E+03 -0.62832893091E+03 -0.66485577615E+03  0.13008560931E+04  0.00000000000E+00 0.  1.
         -3    1    6    6    0  502  0.12679838126E+02  0.16126151525E+03 -0.55684726738E+02  0.17107554877E+03  0.00000000000E+00 0.  1.
<mgrwt>
<rscale>  0 0.30698120E+04</rscale>
<asrwt>0</asrwt>
<pdfrwt beam="1">  1        1 0.19750499E+00 0.30698120E+04</pdfrwt>
<pdfrwt beam="2">  1       -1 0.28233114E+00 0.30698120E+04</pdfrwt>
<totfact> 0.33785856E-01</totfact>
</mgrwt>
</event>
<event>
12    1  0.1549527E-007  0.2237311E+04  0.7818608E-02  0.8503057E-01
          1   -1    0    0  501    0  0.00000000000E+00  0.00000000000E+00  0.71232590829E+03  0.71232590829E+03  0.00000000000E+00 0. -1.
         -1   -1    0    0    0  501 -0.00000000000E+00 -0.00000000000E+00 -0.17567659837E+04  0.17567659837E+04  0.00000000000E+00 0.  1.
         23    2    1    2    0    0  0.48205790918E+03 -0.14549697937E+03 -0.12957200210E+04  0.13931336459E+04  0.91552081325E+02 0.  0.
        254    2    1    2    0    0 -0.48205790918E+03  0.14549697937E+03  0.25127994565E+03  0.10759582461E+04  0.91705797930E+03 0.  0.
        -24    2    4    4    0    0 -0.22938021208E+03  0.12155271905E+03  0.58746337219E+03  0.64727767185E+03  0.80404139312E+02 0.  0.
         24    2    4    4    0    0 -0.25267769710E+03  0.23944260326E+02 -0.33618342654E+03  0.42868057422E+03  0.79551192424E+02 0.  0.
         11    1    3    3    0    0  0.36040546621E+03 -0.11134425331E+03 -0.10687121228E+04  0.11333292744E+04  0.00000000000E+00 0.  1.
        -11    1    3    3    0    0  0.12165244297E+03 -0.34152726066E+02 -0.22700789822E+03  0.25980437146E+03  0.00000000000E+00 0. -1.
          2    1    6    6  502    0 -0.57202632039E+02 -0.19827919777E+02 -0.45830624288E+02  0.75932428102E+02  0.00000000000E+00 0. -1.
          1    1    5    5  503    0 -0.97307904805E+02  0.83910531429E+02  0.35164895199E+03  0.37438855626E+03  0.00000000000E+00 0. -1.
         -2    1    5    5    0  503 -0.13207230727E+03  0.37642187620E+02  0.23581442020E+03  0.27288911560E+03  0.00000000000E+00 0.  1.
         -1    1    6    6    0  502 -0.19547506506E+03  0.43772180103E+02 -0.29035280225E+03  0.35274814612E+03  0.00000000000E+00 0.  1.
<mgrwt>
<rscale>  0 0.22373108E+04</rscale>
<asrwt>0</asrwt>
<pdfrwt beam="1">  1        1 0.10958860E+00 0.22373108E+04</pdfrwt>
<pdfrwt beam="2">  1       -1 0.27027169E+00 0.22373108E+04</pdfrwt>
<totfact> 0.12406101E+00</totfact>
</mgrwt>
</event>
<event>
12    1  0.1549527E-007  0.2004097E+04  0.7818608E-02  0.8604707E-01
          1   -1    0    0  501    0  0.00000000000E+00  0.00000000000E+00  0.20072956117E+04  0.20072956117E+04  0.00000000000E+00 0. -1.
         -1   -1    0    0    0  501 -0.00000000000E+00 -0.00000000000E+00 -0.50022595878E+03  0.50022595878E+03  0.00000000000E+00 0.  1.
         23    2    1    2    0    0  0.73451957311E+03 -0.17597532205E+03  0.28130515964E+03  0.81062846093E+03  0.86600182364E+02 0.  0.
        254    2    1    2    0    0 -0.73451957311E+03  0.17597532205E+03  0.12257644933E+04  0.16968931096E+04  0.89803191202E+03 0.  0.
        -24    2    4    4    0    0 -0.39039550832E+03 -0.35232937803E+03  0.64334763997E+03  0.83472247283E+03  0.79503315957E+02 0.  0.
         24    2    4    4    0    0 -0.34412406479E+03  0.52830470008E+03  0.58241685332E+03  0.86217063673E+03  0.81250155150E+02 0.  0.
         11    1    3    3    0    0  0.24460067531E+03 -0.85948682376E+02  0.63223581079E+02  0.26685930295E+03  0.00000000000E+00 0.  1.
        -11    1    3    3    0    0  0.48991889779E+03 -0.90026639672E+02  0.21808157856E+03  0.54376915798E+03  0.00000000000E+00 0. -1.
          4    1    6    6  502    0 -0.13069790211E+03  0.15663038541E+03  0.22873608945E+03  0.30648852811E+03  0.00000000000E+00 0. -1.
          3    1    5    5  503    0 -0.24658356024E+03 -0.22468147004E+03  0.34608338380E+03  0.48068588882E+03  0.00000000000E+00 0. -1.
         -4    1    5    5    0  503 -0.14381194807E+03 -0.12764790799E+03  0.29726425617E+03  0.35403658401E+03  0.00000000000E+00 0.  1.
         -3    1    6    6    0  502 -0.21342616268E+03  0.37167431467E+03  0.35368076387E+03  0.55568210861E+03  0.00000000000E+00 0.  1.
<mgrwt>
<rscale>  0 0.20040972E+04</rscale>
<asrwt>0</asrwt>
<pdfrwt beam="1">  1        1 0.30881470E+00 0.20040972E+04</pdfrwt>
<pdfrwt beam="2">  1       -1 0.76957841E-01 0.20040972E+04</pdfrwt>
<totfact> 0.46267702E+00</totfact>
</mgrwt>
</event>
<event>
12    1  0.1549527E-007  0.2267075E+04  0.7818608E-02  0.8491017E-01
         -1   -1    0    0    0  501 -0.00000000000E+00  0.00000000000E+00  0.54565431043E+03  0.54565431043E+03  0.00000000000E+00 0.  1.
          1   -1    0    0  501    0  0.00000000000E+00 -0.00000000000E+00 -0.23548009024E+04  0.23548009024E+04  0.00000000000E+00 0. -1.
         23    2    1    2    0    0  0.52736580472E+03 -0.79350547133E+02  0.24351391240E+03  0.59324879061E+03  0.90740843657E+02 0.  0.
        254    2    1    2    0    0 -0.52736580472E+03  0.79350547133E+02 -0.20526605044E+04  0.23072064222E+04  0.90850158351E+03 0.  0.
        -24    2    4    4    0    0 -0.63155455273E+03  0.33850250771E+03 -0.11318425333E+04  0.13417914066E+04  0.76756484188E+02 0.  0.
         24    2    4    4    0    0  0.10418874801E+03 -0.25915196057E+03 -0.92081797112E+03  0.96541501565E+03  0.78136947975E+02 0.  0.
         13    1    3    3    0    0  0.13342697238E+03  0.19288534235E+02  0.64280166652E+02  0.14935442523E+03  0.00000000000E+00 0. -1.
        -13    1    3    3    0    0  0.39393883234E+03 -0.98639081367E+02  0.17923374575E+03  0.44389436538E+03  0.00000000000E+00 0.  1.
          2    1    6    6  502    0  0.88335212094E+02 -0.14434474867E+03 -0.63056778261E+03  0.65288149356E+03  0.00000000000E+00 0. -1.
          1    1    5    5  503    0 -0.46870308341E+03  0.25732181888E+03 -0.77988359714E+03  0.94557682076E+03  0.00000000000E+00 0. -1.
         -2    1    5    5    0  503 -0.16285146933E+03  0.81180688821E+02 -0.35195893613E+03  0.39621458582E+03  0.00000000000E+00 0.  1.
         -1    1    6    6    0  502  0.15853535916E+02 -0.11480721190E+03 -0.29025018850E+03  0.31253352209E+03  0.00000000000E+00 0.  1.
<mgrwt>
<rscale>  0 0.22670750E+04</rscale>
<asrwt>0</asrwt>
<pdfrwt beam="1">  1        1 0.36227705E+00 0.22670750E+04</pdfrwt>
<pdfrwt beam="2">  1       -1 0.83946819E-01 0.22670750E+04</pdfrwt>
<totfact> 0.21757509E+00</totfact>
</mgrwt>
</event>
<event>
12    1  0.1549527E-007  0.1465062E+04  0.7818608E-02  0.8908025E-01
          2   -1    0    0  501    0  0.00000000000E+00  0.00000000000E+00  0.70690897391E+03  0.70690897391E+03  0.00000000000E+00 0. -1.
         -2   -1    0    0    0  501 -0.00000000000E+00 -0.00000000000E+00 -0.75908149304E+03  0.75908149304E+03  0.00000000000E+00 0.  1.
         23    2    1    2    0    0  0.16488130073E+03 -0.19387717660E+03  0.31558745013E+03  0.41503606105E+03  0.88799157415E+02 0.  0.
        254    2    1    2    0    0 -0.16488130073E+03  0.19387717660E+03 -0.36775996925E+03  0.10509544059E+04  0.95104340878E+03 0.  0.
        -24    2    4    4    0    0  0.18562976057E+03 -0.16859956051E+03 -0.46239414972E+03  0.53184485892E+03  0.78526329649E+02 0.  0.
         24    2    4    4    0    0 -0.35051106130E+03  0.36247673710E+03  0.94634180466E+02  0.51910954699E+03  0.79194094653E+02 0.  0.
         13    1    3    3    0    0  0.16647263678E+03 -0.18406669686E+03  0.26336699606E+03  0.36187824237E+03  0.00000000000E+00 0. -1.
        -13    1    3    3    0    0 -0.15913360540E+01 -0.98104797357E+01  0.52220454068E+02  0.53157818674E+02  0.00000000000E+00 0.  1.
          2    1    6    6  502    0 -0.20622017952E+03  0.22117017570E+03  0.95603553472E+02  0.31714830679E+03  0.00000000000E+00 0. -1.
          1    1    5    5  503    0  0.18151999488E+03 -0.15112881620E+03 -0.45455612738E+03  0.51226038356E+03  0.00000000000E+00 0. -1.
         -2    1    5    5    0  503  0.41097656951E+01 -0.17470744309E+02 -0.78380223372E+01  0.19584475356E+02  0.00000000000E+00 0.  1.
         -1    1    6    6    0  502 -0.14429088178E+03  0.14130656140E+03 -0.96937300659E+00  0.20196124020E+03  0.00000000000E+00 0.  1.
<mgrwt>
<rscale>  0 0.14650618E+04</rscale>
<asrwt>0</asrwt>
<pdfrwt beam="1">  1        2 0.10875523E+00 0.14650618E+04</pdfrwt>
<pdfrwt beam="2">  1       -2 0.11678177E+00 0.14650618E+04</pdfrwt>
<totfact> 0.22258187E+01</totfact>
</mgrwt>
</event>
<event>
12    1  0.1549527E-007  0.1444522E+04  0.7818608E-02  0.8922207E-01
          1   -1    0    0  501    0  0.00000000000E+00  0.00000000000E+00  0.14559677374E+04  0.14559677374E+04  0.00000000000E+00 0. -1.
         -1   -1    0    0    0  501 -0.00000000000E+00 -0.00000000000E+00 -0.35829143724E+03  0.35829143724E+03  0.00000000000E+00 0.  1.
         23    2    1    2    0    0  0.17315897748E+03 -0.20595843761E+03 -0.95102154348E+02  0.29877980102E+03  0.88442298894E+02 0.  0.
        254    2    1    2    0    0 -0.17315897748E+03  0.20595843761E+03  0.11927784545E+04  0.15154793737E+04  0.89529569464E+03 0.  0.
        -24    2    4    4    0    0  0.22127871547E+03 -0.18277769205E+03  0.15384968463E+03  0.33538229171E+03  0.80247127679E+02 0.  0.
         24    2    4    4    0    0 -0.39443769295E+03  0.38873612966E+03  0.10389287699E+04  0.11800970819E+04  0.80989269315E+02 0.  0.
         11    1    3    3    0    0  0.15080800940E+03 -0.11674784740E+03 -0.55337413137E+02  0.19858334489E+03  0.00000000000E+00 0.  1.
        -11    1    3    3    0    0  0.22350968077E+02 -0.89210590208E+02 -0.39764741211E+02  0.10019645614E+03  0.00000000000E+00 0. -1.
          4    1    6    6  502    0 -0.25455252437E+03  0.27879044220E+03  0.77113072094E+03  0.85858237060E+03  0.00000000000E+00 0. -1.
          1    1    5    5  503    0  0.15113696855E+03 -0.73382805996E+02  0.89857289966E+02  0.19053018668E+03  0.00000000000E+00 0. -1.
         -2    1    5    5    0  503  0.70141746923E+02 -0.10939488605E+03  0.63992394667E+02  0.14485210503E+03  0.00000000000E+00 0.  1.
         -3    1    6    6    0  502 -0.13988516858E+03  0.10994568746E+03  0.26779804897E+03  0.32151471134E+03  0.00000000000E+00 0.  1.
<mgrwt>
<rscale>  0 0.14445218E+04</rscale>
<asrwt>0</asrwt>
<pdfrwt beam="1">  1        1 0.22399503E+00 0.14445218E+04</pdfrwt>
<pdfrwt beam="2">  1       -1 0.55121760E-01 0.14445218E+04</pdfrwt>
<totfact> 0.22689435E+01</totfact>
</mgrwt>
</event>
<event>
12    1  0.1549527E-007  0.1083633E+04  0.7818608E-02  0.9221293E-01
          2   -1    0    0  501    0  0.00000000000E+00  0.00000000000E+00  0.69966208117E+03  0.69966208117E+03  0.00000000000E+00 0. -1.
         -2   -1    0    0    0  501 -0.00000000000E+00 -0.00000000000E+00 -0.41958093451E+03  0.41958093451E+03  0.00000000000E+00 0.  1.
         23    2    1    2    0    0  0.10847044066E+03 -0.86073062586E+02  0.15850030849E+02  0.16616424797E+03  0.90470576579E+02 0.  0.
        254    2    1    2    0    0 -0.10847044066E+03  0.86073062586E+02  0.26423111581E+03  0.95307876771E+03  0.90518873518E+03 0.  0.
        -24    2    4    4    0    0  0.10045366266E+03  0.42642877881E+03  0.31203439266E+03  0.54374830373E+03  0.79776649876E+02 0.  0.
         24    2    4    4    0    0 -0.20892410332E+03 -0.34035571622E+03 -0.47803276848E+02  0.40933046398E+03  0.75993295430E+02 0.  0.
         13    1    3    3    0    0  0.89947448081E+02 -0.53556396256E+02 -0.28149163126E+02  0.10840298142E+03  0.00000000000E+00 0.  1.
        -13    1    3    3    0    0  0.18522992580E+02 -0.32516666330E+02  0.43999193975E+02  0.57761266553E+02  0.00000000000E+00 0. -1.
          4    1    6    6  502    0 -0.11036000717E+03 -0.16529056863E+03 -0.61265126043E+02  0.20797528442E+03  0.00000000000E+00 0. -1.
          3    1    5    5  503    0  0.76193895088E+02  0.35374250182E+03  0.21801286193E+03  0.42245576716E+03  0.00000000000E+00 0. -1.
         -4    1    5    5    0  503  0.24259767574E+02  0.72686276992E+02  0.94021530736E+02  0.12129253657E+03  0.00000000000E+00 0.  1.
         -3    1    6    6    0  502 -0.98564096150E+02 -0.17506514759E+03  0.13461849194E+02  0.20135517956E+03  0.00000000000E+00 0.  1.
<mgrwt>
<rscale>  0 0.10836325E+04</rscale>
<asrwt>0</asrwt>
<pdfrwt beam="1">  1        2 0.10764032E+00 0.10836325E+04</pdfrwt>
<pdfrwt beam="2">  1       -2 0.64550913E-01 0.10836325E+04</pdfrwt>
<totfact> 0.90337393E+01</totfact>
</mgrwt>
</event>
<event>
12    1  0.1549527E-007  0.1359978E+04  0.7818608E-02  0.8983309E-01
          1   -1    0    0  501    0  0.00000000000E+00  0.00000000000E+00  0.12464022329E+04  0.12464022329E+04  0.00000000000E+00 0. -1.
         -1   -1    0    0    0  501 -0.00000000000E+00 -0.00000000000E+00 -0.37097559799E+03  0.37097559799E+03  0.00000000000E+00 0.  1.
         23    2    1    2    0    0  0.72939472168E+01 -0.33674898519E+03  0.61963175518E+02  0.35429783747E+03  0.90743825270E+02 0.  0.
        254    2    1    2    0    0 -0.72939472168E+01  0.33674898519E+03  0.81346345941E+03  0.12630799934E+04  0.90564628267E+03 0.  0.
        -24    2    4    4    0    0  0.68823638501E+01  0.59443691761E+03  0.79007013041E+03  0.99193023397E+03  0.79449116759E+02 0.  0.
         24    2    4    4    0    0 -0.14176311067E+02 -0.25768793241E+03  0.23393328995E+02  0.27114975945E+03  0.79817954769E+02 0.  0.
         11    1    3    3    0    0 -0.35843267200E+02 -0.74347725852E+02  0.77058647007E+01  0.82895744726E+02  0.00000000000E+00 0. -1.
        -11    1    3    3    0    0  0.43137214416E+02 -0.26240125934E+03  0.54257310818E+02  0.27140209275E+03  0.00000000000E+00 0.  1.
          4    1    6    6  502    0 -0.17884324287E+02 -0.23897044855E+03 -0.16762052803E+01  0.23964459935E+03  0.00000000000E+00 0. -1.
          3    1    5    5  503    0 -0.33550752396E+02  0.38466026142E+03  0.51034587527E+03  0.63995475005E+03  0.00000000000E+00 0. -1.
         -4    1    5    5    0  503  0.40433116246E+02  0.20977665619E+03  0.27972425514E+03  0.35197548393E+03  0.00000000000E+00 0.  1.
         -3    1    6    6    0  502  0.37080132198E+01 -0.18717483866E+02  0.25069534276E+02  0.31505160103E+02  0.00000000000E+00 0.  1.
<mgrwt>
<rscale>  0 0.13599777E+04</rscale>
<asrwt>0</asrwt>
<pdfrwt beam="1">  1        1 0.19175419E+00 0.13599777E+04</pdfrwt>
<pdfrwt beam="2">  1       -1 0.57073170E-01 0.13599777E+04</pdfrwt>
<totfact> 0.30052888E+01</totfact>
</mgrwt>
</event>
<event>
12    1  0.1549527E-007  0.1682560E+04  0.7818608E-02  0.8771374E-01
          2   -1    0    0  501    0  0.00000000000E+00  0.00000000000E+00  0.44520160370E+03  0.44520160370E+03  0.00000000000E+00 0. -1.
         -2   -1    0    0    0  501 -0.00000000000E+00 -0.00000000000E+00 -0.15897344204E+04  0.15897344204E+04  0.00000000000E+00 0.  1.
         23    2    1    2    0    0  0.96851091164E+02 -0.35167418144E+03 -0.98248015444E+03  0.10518717449E+04  0.90066919687E+02 0.  0.
        254    2    1    2    0    0 -0.96851091164E+02  0.35167418144E+03 -0.16205266229E+03  0.98306427928E+03  0.89838713709E+03 0.  0.
        -24    2    4    4    0    0 -0.38051018050E+03 -0.98011815809E+02 -0.19162949442E+03  0.44447122315E+03  0.80240211714E+02 0.  0.
         24    2    4    4    0    0  0.28365908934E+03  0.44968599725E+03  0.29576832128E+02  0.53859305613E+03  0.80794282105E+02 0.  0.
         11    1    3    3    0    0  0.26577385603E+02 -0.15792838211E+03 -0.31618718884E+03  0.35443203818E+03  0.00000000000E+00 0. -1.
        -11    1    3    3    0    0  0.70273705561E+02 -0.19374579933E+03 -0.66629296560E+03  0.69743970669E+03  0.00000000000E+00 0.  1.
          4    1    6    6  502    0  0.17165763535E+03  0.25032877400E+03  0.55158366692E+02  0.30850167630E+03  0.00000000000E+00 0. -1.
          3    1    5    5  503    0 -0.35937756342E+03 -0.91576957327E+02 -0.19938137097E+03  0.42105997588E+03  0.00000000000E+00 0. -1.
         -4    1    5    5    0  503 -0.21132617085E+02 -0.64348584819E+01  0.77518765543E+01  0.23411247268E+02  0.00000000000E+00 0.  1.
         -3    1    6    6    0  502  0.11200145399E+03  0.19935722325E+03 -0.25581534565E+02  0.23009137982E+03  0.00000000000E+00 0.  1.
<mgrwt>
<rscale>  0 0.16825603E+04</rscale>
<asrwt>0</asrwt>
<pdfrwt beam="1">  1        2 0.68492554E-01 0.16825603E+04</pdfrwt>
<pdfrwt beam="2">  1       -2 0.24457453E+00 0.16825603E+04</pdfrwt>
<totfact> 0.46558107E+00</totfact>
</mgrwt>
</event>
<event>
12    1  0.1549527E-007  0.1278323E+04  0.7818608E-02  0.9046934E-01
          2   -1    0    0  501    0  0.00000000000E+00  0.00000000000E+00  0.23644119509E+04  0.23644119509E+04  0.00000000000E+00 0. -1.
         -2   -1    0    0    0  501 -0.00000000000E+00 -0.00000000000E+00 -0.17278171002E+03  0.17278171002E+03  0.00000000000E+00 0.  1.
         23    2    1    2    0    0 -0.64460543249E+02 -0.37795156825E+02 -0.36146910224E+02  0.13229147825E+03  0.10300874032E+03 0.  0.
        254    2    1    2    0    0  0.64460543249E+02  0.37795156825E+02  0.22277771511E+04  0.24049021827E+04  0.90276233736E+03 0.  0.
        -24    2    4    4    0    0  0.28327546500E+03 -0.32290499978E+03  0.76719289666E+03  0.88257592782E+03  0.76437554441E+02 0.  0.
         24    2    4    4    0    0 -0.21881492175E+03  0.36070015660E+03  0.14605842544E+04  0.15223262549E+04  0.78652965380E+02 0.  0.
         11    1    3    3    0    0 -0.89763484842E+02 -0.32111966330E+02 -0.10656771893E+02  0.95928245996E+02  0.00000000000E+00 0.  1.
        -11    1    3    3    0    0  0.25302941594E+02 -0.56831904955E+01 -0.25490138332E+02  0.36363232250E+02  0.00000000000E+00 0. -1.
          4    1    6    6  502    0 -0.20971669454E+02  0.90005215522E+02  0.26688785505E+03  0.28243561552E+03  0.00000000000E+00 0. -1.
          3    1    5    5  503    0  0.20125327872E+03 -0.26669466675E+03  0.63035181401E+03  0.71342297195E+03  0.00000000000E+00 0. -1.
         -4    1    5    5    0  503  0.82022186279E+02 -0.56210333022E+02  0.13684108264E+03  0.16915295587E+03  0.00000000000E+00 0.  1.
         -3    1    6    6    0  502 -0.19784325229E+03  0.27069494108E+03  0.11936963994E+04  0.12398906393E+04  0.00000000000E+00 0.  1.
<mgrwt>
<rscale>  0 0.12783226E+04</rscale>
<asrwt>0</asrwt>
<pdfrwt beam="1">  1        2 0.36375566E+00 0.12783226E+04</pdfrwt>
<pdfrwt beam="2">  1       -2 0.26581803E-01 0.12783226E+04</pdfrwt>
<totfact> 0.52654195E+01</totfact>
</mgrwt>
</event>
<event>
12    1  0.1549527E-007  0.1385610E+04  0.7818608E-02  0.8964301E-01
          2   -1    0    0  501    0  0.00000000000E+00  0.00000000000E+00  0.20062727366E+04  0.20062727366E+04  0.00000000000E+00 0. -1.
         -2   -1    0    0    0  501 -0.00000000000E+00 -0.00000000000E+00 -0.23923910462E+03  0.23923910462E+03  0.00000000000E+00 0.  1.
         23    2    1    2    0    0 -0.15045147341E+03  0.77882419374E+02 -0.59994125175E+02  0.20228438571E+03  0.92835125603E+02 0.  0.
        254    2    1    2    0    0  0.15045147341E+03 -0.77882419374E+02  0.18270277572E+04  0.20432274555E+04  0.89891417411E+03 0.  0.
        -24    2    4    4    0    0  0.94822343902E+02 -0.12776848212E+03  0.19022272769E+04  0.19104419190E+04  0.77483230168E+02 0.  0.
         24    2    4    4    0    0  0.55629129509E+02  0.49886062746E+02 -0.75199519732E+02  0.13278553652E+03  0.79961313361E+02 0.  0.
         13    1    3    3    0    0 -0.11896351419E+03  0.97138890111E+02 -0.61264794561E+02  0.16535312738E+03  0.00000000000E+00 0.  1.
        -13    1    3    3    0    0 -0.31487959220E+02 -0.19256470737E+02  0.12706693860E+01  0.36931258329E+02  0.00000000000E+00 0. -1.
          2    1    6    6  502    0  0.76249707740E+01  0.59435863649E+02 -0.34607887886E+02  0.69198757004E+02  0.00000000000E+00 0. -1.
          3    1    5    5  503    0  0.98249375605E+02 -0.10990824951E+03  0.13709337572E+04  0.13788372383E+04  0.00000000000E+00 0. -1.
         -4    1    5    5    0  503 -0.34270317025E+01 -0.17860232608E+02  0.53129351976E+03  0.53160468074E+03  0.00000000000E+00 0.  1.
         -1    1    6    6    0  502  0.48004158735E+02 -0.95498009030E+01 -0.40591631846E+02  0.63586779515E+02  0.00000000000E+00 0.  1.
<mgrwt>
<rscale>  0 0.13856102E+04</rscale>
<asrwt>0</asrwt>
<pdfrwt beam="1">  1        2 0.30865733E+00 0.13856102E+04</pdfrwt>
<pdfrwt beam="2">  1       -2 0.36806017E-01 0.13856102E+04</pdfrwt>
<totfact> 0.44935553E+01</totfact>
</mgrwt>
</event>
<event>
12    1  0.1549527E-007  0.1485696E+04  0.7818608E-02  0.8894021E-01
          2   -1    0    0  501    0  0.00000000000E+00  0.00000000000E+00  0.11595599322E+04  0.11595599322E+04  0.00000000000E+00 0. -1.
         -2   -1    0    0    0  501 -0.00000000000E+00 -0.00000000000E+00 -0.47589003943E+03  0.47589003943E+03  0.00000000000E+00 0.  1.
         23    2    1    2    0    0  0.17391301259E+03 -0.42414886975E+03  0.22017448370E+03  0.51700328883E+03  0.93099934068E+02 0.  0.
        254    2    1    2    0    0 -0.17391301259E+03  0.42414886975E+03  0.46349540911E+03  0.11184466828E+04  0.90881625670E+03 0.  0.
        -24    2    4    4    0    0 -0.30001476665E+03 -0.13082908360E+03 -0.57990877678E+02  0.34230659848E+03  0.81766473228E+02 0.  0.
         24    2    4    4    0    0  0.12610175405E+03  0.55497795335E+03  0.52148628679E+03  0.77614008437E+03  0.80890680420E+02 0.  0.
         11    1    3    3    0    0  0.15379465840E+03 -0.41930933017E+03  0.21497067565E+03  0.49566672545E+03  0.00000000000E+00 0. -1.
        -11    1    3    3    0    0  0.20118354193E+02 -0.48395395803E+01  0.52038080475E+01  0.21336563383E+02  0.00000000000E+00 0.  1.
          4    1    6    6  502    0  0.40367763934E+02  0.28319593757E+03  0.21667125719E+03  0.35885363188E+03  0.00000000000E+00 0. -1.
          1    1    5    5  503    0 -0.18667002733E+03 -0.99597997629E+02 -0.83322737907E+00  0.21158013731E+03  0.00000000000E+00 0. -1.
         -2    1    5    5    0  503 -0.11334473932E+03 -0.31231085969E+02 -0.57157650299E+02  0.13072646117E+03  0.00000000000E+00 0.  1.
         -3    1    6    6    0  502  0.85733990121E+02  0.27178201578E+03  0.30481502959E+03  0.41728645249E+03  0.00000000000E+00 0.  1.
<mgrwt>
<rscale>  0 0.14856958E+04</rscale>
<asrwt>0</asrwt>
<pdfrwt beam="1">  1        2 0.17839383E+00 0.14856958E+04</pdfrwt>
<pdfrwt beam="2">  1       -2 0.73213853E-01 0.14856958E+04</pdfrwt>
<totfact> 0.32640555E+01</totfact>
</mgrwt>
</event>
<event>
12    1  0.1549527E-007  0.2011427E+04  0.7818608E-02  0.8601297E-01
          1   -1    0    0  501    0  0.00000000000E+00  0.00000000000E+00  0.12789885542E+04  0.12789885542E+04  0.00000000000E+00 0. -1.
         -1   -1    0    0    0  501 -0.00000000000E+00 -0.00000000000E+00 -0.79082802026E+03  0.79082802026E+03  0.00000000000E+00 0.  1.
         23    2    1    2    0    0  0.21199932640E+03 -0.17607329506E+03  0.96276071163E+03  0.10059234963E+04  0.95017750166E+02 0.  0.
        254    2    1    2    0    0 -0.21199932640E+03  0.17607329506E+03 -0.47460017766E+03  0.10638930782E+04  0.91141518181E+03 0.  0.
        -24    2    4    4    0    0  0.23247271510E+03  0.12875506822E+03 -0.53837237140E+03  0.60547135002E+03  0.78289939062E+02 0.  0.
         24    2    4    4    0    0 -0.44447204149E+03  0.47318226843E+02  0.63772193737E+02  0.45842172820E+03  0.79304337414E+02 0.  0.
         11    1    3    3    0    0  0.18223544409E+03 -0.10480875640E+03  0.62363314273E+03  0.65811315837E+03  0.00000000000E+00 0. -1.
        -11    1    3    3    0    0  0.29763882309E+02 -0.71264538661E+02  0.33912756890E+03  0.34781033790E+03  0.00000000000E+00 0.  1.
          2    1    6    6  502    0 -0.28321418984E+03  0.61207922640E+02  0.63202725146E+02  0.29656579638E+03  0.00000000000E+00 0. -1.
          1    1    5    5  503    0  0.66058907808E+02  0.33429515298E+02 -0.23661101876E+03  0.24792354869E+03  0.00000000000E+00 0. -1.
         -2    1    5    5    0  503  0.16641380729E+03  0.95325552924E+02 -0.30176135263E+03  0.35754780134E+03  0.00000000000E+00 0.  1.
         -1    1    6    6    0  502 -0.16125785166E+03 -0.13889695797E+02  0.56946859097E+00  0.16185593182E+03  0.00000000000E+00 0.  1.
<mgrwt>
<rscale>  0 0.20114273E+04</rscale>
<asrwt>0</asrwt>
<pdfrwt beam="1">  1        1 0.19676747E+00 0.20114273E+04</pdfrwt>
<pdfrwt beam="2">  1       -1 0.12166585E+00 0.20114273E+04</pdfrwt>
<totfact> 0.51941237E+00</totfact>
</mgrwt>
</event>
<event>
12    1  0.1549527E-007  0.1468698E+04  0.7818608E-02  0.8905539E-01
          2   -1    0    0  501    0  0.00000000000E+00  0.00000000000E+00  0.13820876754E+04  0.13820876754E+04  0.00000000000E+00 0.  1.
         -2   -1    0    0    0  501 -0.00000000000E+00 -0.00000000000E+00 -0.39018417411E+03  0.39018417411E+03  0.00000000000E+00 0. -1.
         23    2    1    2    0    0  0.18640002375E+03  0.24883493212E+03  0.71466285838E+03  0.78494857592E+03  0.93474453168E+02 0.  0.
        254    2    1    2    0    0 -0.18640002375E+03 -0.24883493212E+03  0.27724064292E+03  0.98732327361E+03  0.89514305015E+03 0.  0.
        -24    2    4    4    0    0 -0.45132141406E+03 -0.37254549878E+03  0.21965074422E+02  0.59090106852E+03  0.78742878033E+02 0.  0.
         24    2    4    4    0    0  0.26492139031E+03  0.12371056666E+03  0.25527556850E+03  0.39642220508E+03  0.80605840119E+02 0.  0.
         11    1    3    3    0    0  0.15259568678E+03  0.20627716548E+03  0.65882883063E+03  0.70702980184E+03  0.00000000000E+00 0.  1.
        -11    1    3    3    0    0  0.33804336967E+02  0.42557766639E+02  0.55834027750E+02  0.77918774079E+02  0.00000000000E+00 0. -1.
          4    1    6    6  502    0  0.25144232380E+03  0.93601105403E+02  0.24035849062E+03  0.36021745258E+03  0.00000000000E+00 0. -1.
          1    1    5    5  503    0 -0.44509972868E+03 -0.37348866617E+03  0.28616894897E+02  0.58174434153E+03  0.00000000000E+00 0. -1.
         -2    1    5    5    0  503 -0.62216853764E+01  0.94316738717E+00 -0.66518204749E+01  0.91567269957E+01  0.00000000000E+00 0.  1.
         -3    1    6    6    0  502  0.13479066518E+02  0.30109461260E+02  0.14917077877E+02  0.36204752505E+02  0.00000000000E+00 0.  1.
<mgrwt>
<rscale>  0 0.14686984E+04</rscale>
<asrwt>0</asrwt>
<pdfrwt beam="1">  1        2 0.21262887E+00 0.14686984E+04</pdfrwt>
<pdfrwt beam="2">  1       -2 0.60028335E-01 0.14686984E+04</pdfrwt>
<totfact> 0.37123986E+01</totfact>
</mgrwt>
</event>
<event>
12    1  0.1549527E-007  0.1911672E+04  0.7818608E-02  0.8649068E-01
          1   -1    0    0  501    0  0.00000000000E+00  0.00000000000E+00  0.19201077269E+04  0.19201077269E+04  0.00000000000E+00 0. -1.
         -1   -1    0    0    0  501 -0.00000000000E+00 -0.00000000000E+00 -0.47581849894E+03  0.47581849894E+03  0.00000000000E+00 0.  1.
         23    2    1    2    0    0 -0.38292443055E+00 -0.40048059500E+03 -0.21961205126E+03  0.46571356768E+03  0.90966040139E+02 0.  0.
        254    2    1    2    0    0  0.38292443055E+00  0.40048059500E+03  0.16639012792E+04  0.19302126582E+04  0.89261894733E+03 0.  0.
        -24    2    4    4    0    0  0.14351571999E+03 -0.23815945550E+03  0.30311716729E+03  0.41810975247E+03  0.74960388720E+02 0.  0.
         24    2    4    4    0    0 -0.14313279556E+03  0.63864005050E+03  0.13607841119E+04  0.15121029057E+04  0.79835373398E+02 0.  0.
         11    1    3    3    0    0  0.99080236796E+01 -0.34649440054E+02 -0.51787771004E+02  0.63092993706E+02  0.00000000000E+00 0. -1.
        -11    1    3    3    0    0 -0.10290948110E+02 -0.36583115495E+03 -0.16782428026E+03  0.40262057398E+03  0.00000000000E+00 0.  1.
          2    1    6    6  502    0  0.64855336846E+00  0.22872565503E+02  0.87615164484E+02  0.90553806776E+02  0.00000000000E+00 0. -1.
          3    1    5    5  503    0  0.30220012954E+02 -0.11753104007E+03  0.14679485941E+03  0.19046134861E+03  0.00000000000E+00 0. -1.
         -4    1    5    5    0  503  0.11329570704E+03 -0.12062841543E+03  0.15632230788E+03  0.22764840386E+03  0.00000000000E+00 0.  1.
         -1    1    6    6    0  502 -0.14378134893E+03  0.61576748500E+03  0.12731689475E+04  0.14215490989E+04  0.00000000000E+00 0.  1.
<mgrwt>
<rscale>  0 0.19116723E+04</rscale>
<asrwt>0</asrwt>
<pdfrwt beam="1">  1        1 0.29540119E+00 0.19116723E+04</pdfrwt>
<pdfrwt beam="2">  1       -1 0.73202847E-01 0.19116723E+04</pdfrwt>
<totfact> 0.59350890E+00</totfact>
</mgrwt>
</event>
<event>
12    1  0.1549527E-007  0.1445302E+04  0.7818608E-02  0.8921664E-01
         -2   -1    0    0    0  501 -0.00000000000E+00  0.00000000000E+00  0.17930087915E+03  0.17930087915E+03  0.00000000000E+00 0.  1.
          2   -1    0    0  501    0  0.00000000000E+00 -0.00000000000E+00 -0.29125579351E+04  0.29125579351E+04  0.00000000000E+00 0. -1.
         23    2    1    2    0    0 -0.30332499469E+02  0.20681259820E+01  0.86383490614E+02  0.13040478219E+03  0.92838365447E+02 0.  0.
        254    2    1    2    0    0  0.30332499469E+02 -0.20681259820E+01 -0.28196405466E+04  0.29614540321E+04  0.90493802800E+03 0.  0.
        -24    2    4    4    0    0 -0.82985415740E+02 -0.10318503457E+02 -0.28201574549E+04  0.28225728240E+04  0.81463031713E+02 0.  0.
         24    2    4    4    0    0  0.11331791521E+03  0.82503774747E+01  0.51690832259E+00  0.13888120809E+03  0.79866789908E+02 0.  0.
         13    1    3    3    0    0 -0.19561303715E+02  0.23537909415E+02  0.98752943936E+02  0.10338675795E+03  0.00000000000E+00 0.  1.
        -13    1    3    3    0    0 -0.10771195754E+02 -0.21469783433E+02 -0.12369453322E+02  0.27018024245E+02  0.00000000000E+00 0. -1.
          2    1    6    6  502    0  0.11603418799E+02 -0.13879912592E+02 -0.25801022846E+02  0.31511649930E+02  0.00000000000E+00 0. -1.
          1    1    5    5  503    0 -0.25623837596E+02 -0.19309297300E+01 -0.18481832964E+03  0.18659615354E+03  0.00000000000E+00 0. -1.
         -2    1    5    5    0  503 -0.57361578145E+02 -0.83875737266E+01 -0.26353391253E+04  0.26359766705E+04  0.00000000000E+00 0.  1.
         -1    1    6    6    0  502  0.10171449641E+03  0.22130290067E+02  0.26317931169E+02  0.10736955816E+03  0.00000000000E+00 0.  1.
<mgrwt>
<rscale>  0 0.14453016E+04</rscale>
<asrwt>0</asrwt>
<pdfrwt beam="1">  1        2 0.44808580E+00 0.14453016E+04</pdfrwt>
<pdfrwt beam="2">  1       -2 0.27584753E-01 0.14453016E+04</pdfrwt>
<totfact> 0.23109077E+01</totfact>
</mgrwt>
</event>
<event>
12    1  0.1580827E-007  0.1336048E+04  0.7818608E-02  0.9001458E-01
          2   -1    0    0  501    0  0.00000000000E+00  0.00000000000E+00  0.10566258020E+04  0.10566258020E+04  0.00000000000E+00 0. -1.
         -2   -1    0    0    0  501 -0.00000000000E+00 -0.00000000000E+00 -0.42234040454E+03  0.42234040454E+03  0.00000000000E+00 0.  1.
         23    2    1    2    0    0  0.10845291598E+03  0.11630428807E+03  0.52490552713E+03  0.55484467577E+03  0.83893262061E+02 0.  0.
        254    2    1    2    0    0 -0.10845291598E+03 -0.11630428807E+03  0.10937987035E+03  0.92412153078E+03  0.90374107200E+03 0.  0.
        -24    2    4    4    0    0  0.18997022486E+03  0.31903912028E+03  0.87522428957E+02  0.38980413232E+03  0.80077708535E+02 0.  0.
         24    2    4    4    0    0 -0.29842314084E+03 -0.43534340835E+03  0.21857441393E+02  0.53431739846E+03  0.80231417643E+02 0.  0.
         13    1    3    3    0    0  0.11489501847E+03  0.11408787085E+03  0.42645507332E+03  0.45615878497E+03  0.00000000000E+00 0. -1.
        -13    1    3    3    0    0 -0.64421024857E+01  0.22164172256E+01  0.98450453806E+02  0.98685890807E+02  0.00000000000E+00 0.  1.
          4    1    6    6  502    0 -0.26207024921E+03 -0.40558758672E+03  0.38636998925E+02  0.48443257912E+03  0.00000000000E+00 0. -1.
          3    1    5    5  503    0  0.14733028712E+03  0.29200363962E+03  0.60763209664E+02  0.33266275220E+03  0.00000000000E+00 0. -1.
         -4    1    5    5    0  503  0.42639937739E+02  0.27035480657E+02  0.26759219293E+02  0.57141380119E+02  0.00000000000E+00 0.  1.
         -3    1    6    6    0  502 -0.36352891628E+02 -0.29755821629E+02 -0.16779557532E+02  0.49884819350E+02  0.00000000000E+00 0.  1.
<mgrwt>
<rscale>  0 0.13360476E+04</rscale>
<asrwt>0</asrwt>
<pdfrwt beam="1">  1        2 0.16255781E+00 0.13360476E+04</pdfrwt>
<pdfrwt beam="2">  1       -2 0.64975448E-01 0.13360476E+04</pdfrwt>
<totfact> 0.49536397E+01</totfact>
</mgrwt>
</event>
<event>
12    1  0.1549527E-007  0.2645569E+04  0.7818608E-02  0.8352885E-01
         -2   -1    0    0    0  501 -0.00000000000E+00  0.00000000000E+00  0.15614256399E+04  0.15614256399E+04  0.00000000000E+00 0.  1.
          2   -1    0    0  501    0  0.00000000000E+00 -0.00000000000E+00 -0.11206161313E+04  0.11206161313E+04  0.00000000000E+00 0. -1.
         23    2    1    2    0    0 -0.62810140208E+03 -0.45322895130E+03  0.10816705665E+04  0.13331657428E+04  0.85975751228E+02 0.  0.
        254    2    1    2    0    0  0.62810140208E+03  0.45322895130E+03 -0.64086105799E+03  0.13488760284E+04  0.89935298448E+03 0.  0.
        -24    2    4    4    0    0  0.85103004138E+03  0.39878630802E+03 -0.51179224519E+03  0.10732059054E+04  0.80975072845E+02 0.  0.
         24    2    4    4    0    0 -0.22292863930E+03  0.54442643278E+02 -0.12906881280E+03  0.27567012295E+03  0.81695034244E+02 0.  0.
         11    1    3    3    0    0 -0.29915267772E+03 -0.24433168504E+03  0.47643547501E+03  0.61333600804E+03  0.00000000000E+00 0.  1.
        -11    1    3    3    0    0 -0.32894872436E+03 -0.20889726626E+03  0.60523509150E+03  0.71982973479E+03  0.00000000000E+00 0. -1.
          4    1    6    6  502    0 -0.14297136899E+02  0.30376217035E+02 -0.17568510375E+02  0.37891624954E+02  0.00000000000E+00 0. -1.
          3    1    5    5  503    0  0.10163466051E+03  0.77516270057E+02 -0.75603000723E+02  0.14850653204E+03  0.00000000000E+00 0. -1.
         -4    1    5    5    0  503  0.74939538087E+03  0.32127003797E+03 -0.43618924447E+03  0.92469937339E+03  0.00000000000E+00 0.  1.
         -3    1    6    6    0  502 -0.20863150240E+03  0.24066426243E+02 -0.11150030243E+03  0.23777849799E+03  0.00000000000E+00 0.  1.
<mgrwt>
<rscale>  0 0.26455689E+04</rscale>
<asrwt>0</asrwt>
<pdfrwt beam="1">  1        2 0.17240248E+00 0.26455689E+04</pdfrwt>
<pdfrwt beam="2">  1       -2 0.24021933E+00 0.26455689E+04</pdfrwt>
<totfact> 0.13767925E+00</totfact>
</mgrwt>
</event>
<event>
12    1  0.1549527E-007  0.2851227E+04  0.7818608E-02  0.8287538E-01
         -1   -1    0    0    0  501 -0.00000000000E+00  0.00000000000E+00  0.47378487372E+03  0.47378487372E+03  0.00000000000E+00 0.  1.
          1   -1    0    0  501    0  0.00000000000E+00 -0.00000000000E+00 -0.42896568734E+04  0.42896568734E+04  0.00000000000E+00 0. -1.
         23    2    1    2    0    0 -0.62378476388E+03 -0.50523512668E+03 -0.50296198491E+02  0.80951216771E+03  0.91707563578E+02 0.  0.
        254    2    1    2    0    0  0.62378476388E+03  0.50523512668E+03 -0.37655758011E+04  0.39539295794E+04  0.89979333156E+03 0.  0.
        -24    2    4    4    0    0  0.24498127109E+03  0.27523964032E+03 -0.36776471243E+03  0.52645294622E+03  0.78288812027E+02 0.  0.
         24    2    4    4    0    0  0.37880349279E+03  0.22999548636E+03 -0.33978110887E+04  0.34274766331E+04  0.78011962190E+02 0.  0.
         13    1    3    3    0    0 -0.35072317623E+03 -0.24567603296E+03  0.80204064876E+01  0.42828470255E+03  0.00000000000E+00 0.  1.
        -13    1    3    3    0    0 -0.27306158765E+03 -0.25955909372E+03 -0.58316604979E+02  0.38122746516E+03  0.00000000000E+00 0. -1.
          4    1    6    6  502    0  0.33663890673E+03  0.22253667746E+03 -0.31794182984E+04  0.32049257468E+04  0.00000000000E+00 0. -1.
          3    1    5    5  503    0  0.15483559357E+03  0.22604120195E+03 -0.26542456371E+03  0.38146937628E+03  0.00000000000E+00 0. -1.
         -4    1    5    5    0  503  0.90145677527E+02  0.49198438363E+02 -0.10234014872E+03  0.14498356994E+03  0.00000000000E+00 0.  1.
         -3    1    6    6    0  502  0.42164586053E+02  0.74588088958E+01 -0.21839279036E+03  0.22255088638E+03  0.00000000000E+00 0.  1.
<mgrwt>
<rscale>  0 0.28512275E+04</rscale>
<asrwt>0</asrwt>
<pdfrwt beam="1">  1        1 0.65994719E+00 0.28512275E+04</pdfrwt>
<pdfrwt beam="2">  1       -1 0.72889983E-01 0.28512275E+04</pdfrwt>
<totfact> 0.85186259E-02</totfact>
</mgrwt>
</event>
<event>
12    1  0.1549527E-007  0.1474218E+04  0.7818608E-02  0.8901781E-01
          2   -1    0    0  501    0  0.00000000000E+00  0.00000000000E+00  0.14091864241E+04  0.14091864241E+04  0.00000000000E+00 0. -1.
         -2   -1    0    0    0  501 -0.00000000000E+00 -0.00000000000E+00 -0.38556276779E+03  0.38556276779E+03  0.00000000000E+00 0.  1.
         23    2    1    2    0    0  0.25184076744E+02  0.24904603718E+03 -0.13905078052E+03  0.30089280735E+03  0.92429408719E+02 0.  0.
        254    2    1    2    0    0 -0.25184076744E+02 -0.24904603718E+03  0.11626744368E+04  0.14938563845E+04  0.90395624077E+03 0.  0.
        -24    2    4    4    0    0  0.31517975456E+03  0.48219247875E+02  0.11231387746E+03  0.34741890485E+03  0.80138098455E+02 0.  0.
         24    2    4    4    0    0 -0.34036383131E+03 -0.29726528506E+03  0.10503605593E+04  0.11464374797E+04  0.82749035128E+02 0.  0.
         11    1    3    3    0    0  0.27174920579E+02  0.38389839525E+02 -0.59179940290E+02  0.75594453632E+02  0.00000000000E+00 0.  1.
        -11    1    3    3    0    0 -0.19908438350E+01  0.21065619766E+03 -0.79870840229E+02  0.22529835372E+03  0.00000000000E+00 0. -1.
          2    1    6    6  502    0 -0.16253205453E+03 -0.11181519382E+03  0.54302158337E+03  0.57774713009E+03  0.00000000000E+00 0. -1.
          1    1    5    5  503    0  0.29827519777E+03  0.24807573690E+02  0.96393862163E+02  0.31444440841E+03  0.00000000000E+00 0. -1.
         -2    1    5    5    0  503  0.16904556798E+02  0.23411674185E+02  0.15920015297E+02  0.32974496444E+02  0.00000000000E+00 0.  1.
         -1    1    6    6    0  502 -0.17783177677E+03 -0.18545009123E+03  0.50733897597E+03  0.56869034958E+03  0.00000000000E+00 0.  1.
<mgrwt>
<rscale>  0 0.14742182E+04</rscale>
<asrwt>0</asrwt>
<pdfrwt beam="1">  1        2 0.21679791E+00 0.14742182E+04</pdfrwt>
<pdfrwt beam="2">  1       -2 0.59317349E-01 0.14742182E+04</pdfrwt>
<totfact> 0.36717481E+01</totfact>
</mgrwt>
</event>
<event>
12    1  0.1549527E-007  0.1395433E+04  0.7818608E-02  0.8957131E-01
          2   -1    0    0  501    0  0.00000000000E+00  0.00000000000E+00  0.21540331080E+04  0.21540331080E+04  0.00000000000E+00 0. -1.
         -2   -1    0    0    0  501 -0.00000000000E+00 -0.00000000000E+00 -0.22599860895E+03  0.22599860895E+03  0.00000000000E+00 0.  1.
         23    2    1    2    0    0 -0.27585248118E+03 -0.26128774356E+03  0.38234918540E+03  0.54638689185E+03  0.89341254184E+02 0.  0.
        254    2    1    2    0    0  0.27585248118E+03  0.26128774356E+03  0.15456853137E+04  0.18336448251E+04  0.91035398583E+03 0.  0.
        -24    2    4    4    0    0  0.53211420417E+03 -0.84906760682E+02  0.77381928849E+03  0.94628703607E+03  0.79424046170E+02 0.  0.
         24    2    4    4    0    0 -0.25626172299E+03  0.34619450425E+03  0.77186602520E+03  0.88735778908E+03  0.78140767429E+02 0.  0.
         11    1    3    3    0    0 -0.23417771479E+03 -0.17157930321E+03  0.26684405251E+03  0.39431511225E+03  0.00000000000E+00 0. -1.
        -11    1    3    3    0    0 -0.41674766389E+02 -0.89708440357E+02  0.11550513289E+03  0.15207177959E+03  0.00000000000E+00 0.  1.
          2    1    6    6  502    0 -0.73329946683E+02  0.48848197638E+02  0.17362880825E+03  0.19470590784E+03  0.00000000000E+00 0. -1.
          3    1    5    5  503    0  0.49325361906E+03 -0.69146307493E+02  0.67442744879E+03  0.83841083500E+03  0.00000000000E+00 0. -1.
         -4    1    5    5    0  503  0.38860585107E+02 -0.15760453190E+02  0.99391839696E+02  0.10787620107E+03  0.00000000000E+00 0.  1.
         -1    1    6    6    0  502 -0.18293177631E+03  0.29734630661E+03  0.59823721695E+03  0.69265188124E+03  0.00000000000E+00 0.  1.
<mgrwt>
<rscale>  0 0.13954332E+04</rscale>
<asrwt>0</asrwt>
<pdfrwt beam="1">  1        2 0.33138970E+00 0.13954332E+04</pdfrwt>
<pdfrwt beam="2">  1       -2 0.34769018E-01 0.13954332E+04</pdfrwt>
<totfact> 0.41452432E+01</totfact>
</mgrwt>
</event>
<event>
12    1  0.1549527E-007  0.1797716E+04  0.7818608E-02  0.8707515E-01
         -2   -1    0    0    0  501 -0.00000000000E+00  0.00000000000E+00  0.47273435516E+03  0.47273435516E+03  0.00000000000E+00 0.  1.
          2   -1    0    0  501    0  0.00000000000E+00 -0.00000000000E+00 -0.17090893707E+04  0.17090893707E+04  0.00000000000E+00 0. -1.
         23    2    1    2    0    0 -0.75052221532E+02  0.12966545238E+03 -0.12713571211E+04  0.12834760459E+04  0.92281447781E+02 0.  0.
        254    2    1    2    0    0  0.75052221532E+02 -0.12966545238E+03  0.35002105559E+02  0.89834767993E+03  0.88507482234E+03 0.  0.
        -24    2    4    4    0    0 -0.22781166571E+03  0.30900627229E+02  0.35018381509E+03  0.42655082283E+03  0.80398360112E+02 0.  0.
         24    2    4    4    0    0  0.30286388724E+03 -0.16056607961E+03 -0.31518170953E+03  0.47179685710E+03  0.75794222967E+02 0.  0.
         11    1    3    3    0    0 -0.79134872776E+02  0.49028386465E+02 -0.77900522575E+03  0.78454780130E+03  0.00000000000E+00 0.  1.
        -11    1    3    3    0    0  0.40826512440E+01  0.80637065914E+02 -0.49235189535E+03  0.49892824464E+03  0.00000000000E+00 0. -1.
          4    1    6    6  502    0  0.78036505951E+01 -0.12239806137E+02 -0.37890154148E+02  0.40575529549E+02  0.00000000000E+00 0. -1.
          3    1    5    5  503    0 -0.76660554490E+01  0.16226071320E+02  0.85822919708E+01  0.19892449123E+02  0.00000000000E+00 0. -1.
         -4    1    5    5    0  503 -0.22014561026E+03  0.14674555909E+02  0.34160152312E+03  0.40665837371E+03  0.00000000000E+00 0.  1.
         -3    1    6    6    0  502  0.29506023664E+03 -0.14832627347E+03 -0.27729155538E+03  0.43122132755E+03  0.00000000000E+00 0.  1.
<mgrwt>
<rscale>  0 0.17977155E+04</rscale>
<asrwt>0</asrwt>
<pdfrwt beam="1">  1        2 0.26293682E+00 0.17977155E+04</pdfrwt>
<pdfrwt beam="2">  1       -2 0.72728363E-01 0.17977155E+04</pdfrwt>
<totfact> 0.15642743E+01</totfact>
</mgrwt>
</event>
<event>
12    1  0.1549527E-007  0.1273329E+04  0.7818608E-02  0.9050987E-01
         -1   -1    0    0    0  501 -0.00000000000E+00  0.00000000000E+00  0.47710509406E+03  0.47710509406E+03  0.00000000000E+00 0.  1.
          1   -1    0    0  501    0  0.00000000000E+00 -0.00000000000E+00 -0.84958618237E+03  0.84958618237E+03  0.00000000000E+00 0. -1.
         23    2    1    2    0    0 -0.90447918690E+02 -0.29820927315E+03 -0.28069795801E+02  0.32593783837E+03  0.91312455126E+02 0.  0.
        254    2    1    2    0    0  0.90447918690E+02  0.29820927315E+03 -0.34441129251E+03  0.10007534381E+04  0.88644159920E+03 0.  0.
        -24    2    4    4    0    0 -0.98294664094E+02 -0.90820501092E+02  0.22929098230E+03  0.27801531214E+03  0.82510331538E+02 0.  0.
         24    2    4    4    0    0  0.18874258278E+03  0.38902977424E+03 -0.57370227481E+03  0.72273812593E+03  0.79045371428E+02 0.  0.
         13    1    3    3    0    0  0.44700665638E+01 -0.12998791926E+03  0.40767180970E+01  0.13012862974E+03  0.00000000000E+00 0.  1.
        -13    1    3    3    0    0 -0.94917985254E+02 -0.16822135389E+03 -0.32146513898E+02  0.19580920863E+03  0.00000000000E+00 0. -1.
          4    1    6    6  502    0  0.40188324709E+02  0.52607542037E+02 -0.50729476455E+02  0.83403445394E+02  0.00000000000E+00 0. -1.
          3    1    5    5  503    0 -0.94864106658E+02 -0.79760393547E+02  0.13597675092E+03  0.18398531436E+03  0.00000000000E+00 0. -1.
         -4    1    5    5    0  503 -0.34305574365E+01 -0.11060107545E+02  0.93314231378E+02  0.94029997771E+02  0.00000000000E+00 0.  1.
         -1    1    6    6    0  502  0.14855425808E+03  0.33642223220E+03 -0.52297279836E+03  0.63933468053E+03  0.00000000000E+00 0.  1.
<mgrwt>
<rscale>  0 0.12733293E+04</rscale>
<asrwt>0</asrwt>
<pdfrwt beam="1">  1        1 0.13070557E+00 0.12733293E+04</pdfrwt>
<pdfrwt beam="2">  1       -1 0.73400784E-01 0.12733293E+04</pdfrwt>
<totfact> 0.36916480E+01</totfact>
</mgrwt>
</event>
<event>
12    1  0.1549527E-007  0.1286788E+04  0.7818608E-02  0.9040108E-01
          1   -1    0    0  501    0  0.00000000000E+00  0.00000000000E+00  0.12915757779E+04  0.12915757779E+04  0.00000000000E+00 0. -1.
         -1   -1    0    0    0  501 -0.00000000000E+00 -0.00000000000E+00 -0.32050469630E+03  0.32050469630E+03  0.00000000000E+00 0.  1.
         23    2    1    2    0    0  0.66456901477E+02  0.14479808680E+03  0.60631497764E+03  0.63516602483E+03  0.10215195201E+03 0.  0.
        254    2    1    2    0    0 -0.66456901477E+02 -0.14479808680E+03  0.36475610398E+03  0.97691444938E+03  0.89215011087E+03 0.  0.
        -24    2    4    4    0    0 -0.11686029544E+03 -0.43914718969E+03 -0.44544474567E+02  0.46369992386E+03  0.80788775884E+02 0.  0.
         24    2    4    4    0    0  0.50403393958E+02  0.29434910289E+03  0.40930057854E+03  0.51321452552E+03  0.81733035655E+02 0.  0.
         11    1    3    3    0    0 -0.10836348197E+02  0.13171079668E+02  0.20650511443E+03  0.20720826737E+03  0.00000000000E+00 0. -1.
        -11    1    3    3    0    0  0.77293249674E+02  0.13162700714E+03  0.39980986321E+03  0.42795775746E+03  0.00000000000E+00 0.  1.
          2    1    6    6  502    0  0.54629329702E+02  0.24249423025E+03  0.37828330689E+03  0.45264343101E+03  0.00000000000E+00 0. -1.
          3    1    5    5  503    0 -0.10191377224E+03 -0.24729199219E+03 -0.45204775310E+02  0.27126226808E+03  0.00000000000E+00 0. -1.
         -4    1    5    5    0  503 -0.14946523195E+02 -0.19185519750E+03  0.66030074345E+00  0.19243765578E+03  0.00000000000E+00 0.  1.
         -1    1    6    6    0  502 -0.42259357436E+01  0.51854872639E+02  0.31017271657E+02  0.60571094512E+02  0.00000000000E+00 0.  1.
<mgrwt>
<rscale>  0 0.12867884E+04</rscale>
<asrwt>0</asrwt>
<pdfrwt beam="1">  1        1 0.19870396E+00 0.12867884E+04</pdfrwt>
<pdfrwt beam="2">  1       -1 0.49308415E-01 0.12867884E+04</pdfrwt>
<totfact> 0.37172995E+01</totfact>
</mgrwt>
</event>
<event>
12    1  0.1549527E-007  0.2631591E+04  0.7818608E-02  0.8357549E-01
         -1   -1    0    0    0  501 -0.00000000000E+00  0.00000000000E+00  0.10751094661E+04  0.10751094661E+04  0.00000000000E+00 0.  1.
          1   -1    0    0  501    0  0.00000000000E+00 -0.00000000000E+00 -0.16103644445E+04  0.16103644445E+04  0.00000000000E+00 0. -1.
         23    2    1    2    0    0 -0.84811340645E+03  0.79133418260E+03 -0.16672619382E+03  0.11754141722E+04  0.91075319209E+02 0.  0.
        254    2    1    2    0    0  0.84811340645E+03 -0.79133418260E+03 -0.36852878459E+03  0.15100597385E+04  0.89384607734E+03 0.  0.
        -24    2    4    4    0    0  0.44586073004E+03 -0.16682050648E+03  0.24663278075E+03  0.54201057992E+03  0.79541613231E+02 0.  0.
         24    2    4    4    0    0  0.40225267641E+03 -0.62451367612E+03 -0.61516156533E+03  0.96804915856E+03  0.82890738899E+02 0.  0.
         11    1    3    3    0    0 -0.43340055288E+02  0.20845776305E+02 -0.18174880181E+02  0.51412382280E+02  0.00000000000E+00 0. -1.
        -11    1    3    3    0    0 -0.80477335116E+03  0.77048840629E+03 -0.14855131363E+03  0.11240017899E+04  0.00000000000E+00 0.  1.
          4    1    6    6  502    0  0.40193363521E+03 -0.59631520008E+03 -0.58836606169E+03  0.92914858204E+03  0.00000000000E+00 0. -1.
          3    1    5    5  503    0  0.38611138164E+03 -0.11531375081E+03  0.21752467679E+03  0.45792602587E+03  0.00000000000E+00 0. -1.
         -4    1    5    5    0  503  0.59749348398E+02 -0.51506755673E+02  0.29108103957E+02  0.84084554051E+02  0.00000000000E+00 0.  1.
         -3    1    6    6    0  502  0.31904119610E+00 -0.28198476043E+02 -0.26795503647E+02  0.38900576527E+02  0.00000000000E+00 0.  1.
<mgrwt>
<rscale>  0 0.26315912E+04</rscale>
<asrwt>0</asrwt>
<pdfrwt beam="1">  1        1 0.24774838E+00 0.26315912E+04</pdfrwt>
<pdfrwt beam="2">  1       -1 0.16540146E+00 0.26315912E+04</pdfrwt>
<totfact> 0.12832548E+00</totfact>
</mgrwt>
</event>
<event>
12    1  0.1549527E-007  0.1013606E+04  0.7818608E-02  0.9293747E-01
          1   -1    0    0  501    0  0.00000000000E+00  0.00000000000E+00  0.99859874932E+03  0.99859874932E+03  0.00000000000E+00 0. -1.
         -1   -1    0    0    0  501 -0.00000000000E+00 -0.00000000000E+00 -0.25720955111E+03  0.25720955111E+03  0.00000000000E+00 0.  1.
         23    2    1    2    0    0  0.39001239950E+02 -0.69022145223E+02  0.11315629604E+03  0.16611959376E+03  0.92229164846E+02 0.  0.
        254    2    1    2    0    0 -0.39001239950E+02  0.69022145223E+02  0.62823290217E+03  0.10896887067E+04  0.88682565638E+03 0.  0.
        -24    2    4    4    0    0  0.30851843778E+03  0.25904644353E+03  0.53571308475E+03  0.67499678416E+03  0.79645860523E+02 0.  0.
         24    2    4    4    0    0 -0.34751967774E+03 -0.19002429831E+03  0.92519817427E+02  0.41469192251E+03  0.80810355879E+02 0.  0.
         11    1    3    3    0    0  0.59167876762E+02 -0.77274884045E+02  0.77851382792E+02  0.12463179028E+03  0.00000000000E+00 0. -1.
        -11    1    3    3    0    0 -0.20166636812E+02  0.82527388215E+01  0.35304913251E+02  0.41487803485E+02  0.00000000000E+00 0.  1.
          2    1    6    6  502    0 -0.25108824002E+03 -0.13577354618E+03  0.28511653430E+02  0.28686699792E+03  0.00000000000E+00 0. -1.
          3    1    5    5  503    0  0.20580214807E+03  0.12247745443E+03  0.32472426030E+03  0.40348617848E+03  0.00000000000E+00 0. -1.
         -4    1    5    5    0  503  0.10271628971E+03  0.13656898910E+03  0.21098882444E+03  0.27151060568E+03  0.00000000000E+00 0.  1.
         -1    1    6    6    0  502 -0.96431437718E+02 -0.54250752131E+02  0.64008163997E+02  0.12782492459E+03  0.00000000000E+00 0.  1.
<mgrwt>
<rscale>  0 0.10136057E+04</rscale>
<asrwt>0</asrwt>
<pdfrwt beam="1">  1        1 0.15363057E+00 0.10136057E+04</pdfrwt>
<pdfrwt beam="2">  1       -1 0.39570701E-01 0.10136057E+04</pdfrwt>
<totfact> 0.94322461E+01</totfact>
</mgrwt>
</event>
<event>
12    1  0.1549527E-007  0.1408817E+04  0.7818608E-02  0.8947461E-01
          2   -1    0    0  501    0  0.00000000000E+00  0.00000000000E+00  0.54591893322E+03  0.54591893322E+03  0.00000000000E+00 0. -1.
         -2   -1    0    0    0  501 -0.00000000000E+00 -0.00000000000E+00 -0.90891047580E+03  0.90891047580E+03  0.00000000000E+00 0.  1.
         23    2    1    2    0    0  0.30850934642E+03  0.11813699709E+03 -0.33668330430E+03  0.48188482784E+03  0.98605136739E+02 0.  0.
        254    2    1    2    0    0 -0.30850934642E+03 -0.11813699709E+03 -0.26308238285E+02  0.97294458118E+03  0.91476481553E+03 0.  0.
        -24    2    4    4    0    0 -0.34834138514E+03  0.12803216834E+02  0.38909341265E+03  0.52846720487E+03  0.79864008760E+02 0.  0.
         24    2    4    4    0    0  0.39832038721E+02 -0.13094021393E+03 -0.41540165093E+03  0.44447737631E+03  0.79181282660E+02 0.  0.
         11    1    3    3    0    0  0.93080290622E+02  0.41761993566E+02 -0.45493773681E+02  0.11170357225E+03  0.00000000000E+00 0. -1.
        -11    1    3    3    0    0  0.21542905580E+03  0.76375003525E+02 -0.29118953062E+03  0.37018125559E+03  0.00000000000E+00 0.  1.
          2    1    6    6  502    0 -0.13973643529E+02 -0.34243827682E+02 -0.46953776096E+02  0.59770892058E+02  0.00000000000E+00 0. -1.
          1    1    5    5  503    0 -0.10953036586E+03 -0.16059659577E+02  0.78943109838E+02  0.13596627634E+03  0.00000000000E+00 0. -1.
         -2    1    5    5    0  503 -0.23881101929E+03  0.28862876411E+02  0.31015030281E+03  0.39250092853E+03  0.00000000000E+00 0.  1.
         -1    1    6    6    0  502  0.53805682250E+02 -0.96696386244E+02 -0.36844787484E+03  0.38470648425E+03  0.00000000000E+00 0.  1.
<mgrwt>
<rscale>  0 0.14088171E+04</rscale>
<asrwt>0</asrwt>
<pdfrwt beam="1">  1        2 0.83987529E-01 0.14088171E+04</pdfrwt>
<pdfrwt beam="2">  1       -2 0.13983238E+00 0.14088171E+04</pdfrwt>
<totfact> 0.19450626E+01</totfact>
</mgrwt>
</event>
<event>
12    1  0.1549527E-007  0.1164406E+04  0.7818608E-02  0.9144596E-01
         -4   -1    0    0    0  501 -0.00000000000E+00  0.00000000000E+00  0.40853987710E+03  0.40853987710E+03  0.00000000000E+00 0. -1.
          4   -1    0    0  501    0  0.00000000000E+00 -0.00000000000E+00 -0.82968697173E+03  0.82968697173E+03  0.00000000000E+00 0.  1.
         23    2    1    2    0    0 -0.18741134364E+03 -0.53067242774E+02 -0.18382920301E+03  0.28371634157E+03  0.93608987890E+02 0.  0.
        254    2    1    2    0    0  0.18741134364E+03  0.53067242774E+02 -0.23731789162E+03  0.95451050726E+03  0.90378724422E+03 0.  0.
        -24    2    4    4    0    0  0.30713554696E+02 -0.29134574507E+03 -0.42660980883E+03  0.52412749536E+03  0.82994197295E+02 0.  0.
         24    2    4    4    0    0  0.15669778894E+03  0.34441298784E+03  0.18929191722E+03  0.43038301191E+03  0.78889820395E+02 0.  0.
         13    1    3    3    0    0 -0.18048563210E+03 -0.30467838795E+02 -0.12876704598E+03  0.22379522945E+03  0.00000000000E+00 0. -1.
        -13    1    3    3    0    0 -0.69257115399E+01 -0.22599403979E+02 -0.55062157032E+02  0.59921112118E+02  0.00000000000E+00 0.  1.
          4    1    6    6  502    0  0.35117000568E+02  0.16511824615E+03  0.98917041278E+02  0.19565740466E+03  0.00000000000E+00 0. -1.
          1    1    5    5  503    0  0.24340830799E+02 -0.12947863492E+03 -0.26154317850E+03  0.29285154458E+03  0.00000000000E+00 0. -1.
         -2    1    5    5    0  503  0.63727238972E+01 -0.16186711014E+03 -0.16506663034E+03  0.23127595077E+03  0.00000000000E+00 0.  1.
         -3    1    6    6    0  502  0.12158078837E+03  0.17929474169E+03  0.90374875940E+02  0.23472560725E+03  0.00000000000E+00 0.  1.
<mgrwt>
<rscale>  0 0.11644058E+04</rscale>
<asrwt>0</asrwt>
<pdfrwt beam="1">  1        4 0.12764415E+00 0.11644058E+04</pdfrwt>
<pdfrwt beam="2">  1       -4 0.62852289E-01 0.11644058E+04</pdfrwt>
<totfact> 0.21179704E+00</totfact>
</mgrwt>
</event>
<event>
12    1  0.1549527E-007  0.1061967E+04  0.7818608E-02  0.9243075E-01
         -4   -1    0    0    0  501 -0.00000000000E+00  0.00000000000E+00  0.60229083633E+03  0.60229083633E+03  0.00000000000E+00 0.  1.
          4   -1    0    0  501    0  0.00000000000E+00 -0.00000000000E+00 -0.46811879167E+03  0.46811879167E+03  0.00000000000E+00 0. -1.
         23    2    1    2    0    0 -0.44151548531E+02 -0.11165874112E+03  0.92876152492E+02  0.16985674540E+03  0.76212207362E+02 0.  0.
        254    2    1    2    0    0  0.44151548531E+02  0.11165874112E+03  0.41295892168E+02  0.90055288260E+03  0.89155656576E+03 0.  0.
        -24    2    4    4    0    0 -0.25910290486E+03 -0.17936314370E+03 -0.22574150751E+03  0.39574993212E+03  0.79707765842E+02 0.  0.
         24    2    4    4    0    0  0.30325445339E+03  0.29102188482E+03  0.26703739968E+03  0.50480295048E+03  0.82825388873E+02 0.  0.
         11    1    3    3    0    0 -0.12465664476E+02  0.89953385893E+00 -0.84857663681E+01  0.15106627117E+02  0.00000000000E+00 0. -1.
        -11    1    3    3    0    0 -0.31685884055E+02 -0.11255827498E+03  0.10136191886E+03  0.15475011829E+03  0.00000000000E+00 0.  1.
          4    1    6    6  502    0  0.99016964255E+02  0.96369442181E+02  0.43546481985E+02  0.14487140743E+03  0.00000000000E+00 0. -1.
          3    1    5    5  503    0 -0.17830221354E+03 -0.16047527476E+03 -0.14690584899E+03  0.28129223528E+03  0.00000000000E+00 0. -1.
         -4    1    5    5    0  503 -0.80800691321E+02 -0.18887868939E+02 -0.78835658526E+02  0.11445769684E+03  0.00000000000E+00 0.  1.
         -3    1    6    6    0  502  0.20423748913E+03  0.19465244264E+03  0.22349091770E+03  0.35993154305E+03  0.00000000000E+00 0.  1.
<mgrwt>
<rscale>  0 0.10619673E+04</rscale>
<asrwt>0</asrwt>
<pdfrwt beam="1">  1        4 0.72018275E-01 0.10619673E+04</pdfrwt>
<pdfrwt beam="2">  1       -4 0.92660129E-01 0.10619673E+04</pdfrwt>
<totfact> 0.34409314E+00</totfact>
</mgrwt>
</event>
<event>
12    1  0.1851461E-007  0.1800693E+04  0.7818608E-02  0.8705931E-01
         -2   -1    0    0    0  501 -0.00000000000E+00  0.00000000000E+00  0.83034459953E+03  0.83034459953E+03  0.00000000000E+00 0.  1.
          2   -1    0    0  501    0  0.00000000000E+00 -0.00000000000E+00 -0.97625022856E+03  0.97625022856E+03  0.00000000000E+00 0. -1.
         23    2    1    2    0    0  0.48037907379E+03 -0.18493505567E+03 -0.48345143418E+03  0.71189332043E+03  0.90009894491E+02 0.  0.
        254    2    1    2    0    0 -0.48037907379E+03  0.18493505567E+03  0.33754580516E+03  0.10947015077E+04  0.90524537610E+03 0.  0.
        -24    2    4    4    0    0 -0.38279256600E+03  0.49202071708E+03  0.41623745840E+03  0.75395022831E+03  0.81072747456E+02 0.  0.
         24    2    4    4    0    0 -0.97586507794E+02 -0.30708566141E+03 -0.78691653246E+02  0.34075127935E+03  0.78066177947E+02 0.  0.
         13    1    3    3    0    0  0.15744497253E+02  0.30048414735E+01 -0.75462617028E+00  0.16046424109E+02  0.00000000000E+00 0.  1.
        -13    1    3    3    0    0  0.46463457654E+03 -0.18793989714E+03 -0.48269680801E+03  0.69584689632E+03  0.00000000000E+00 0. -1.
          2    1    6    6  502    0 -0.81623883504E+02 -0.30155862281E+03 -0.83138692172E+02  0.32328331767E+03  0.00000000000E+00 0. -1.
          3    1    5    5  503    0 -0.36599955571E+03  0.46137497534E+03  0.41205162014E+03  0.71875522977E+03  0.00000000000E+00 0. -1.
         -4    1    5    5    0  503 -0.16793010284E+02  0.30645741735E+02  0.41858382637E+01  0.35194998549E+02  0.00000000000E+00 0.  1.
         -1    1    6    6    0  502 -0.15962624290E+02 -0.55270386021E+01  0.44470389264E+01  0.17467961677E+02  0.00000000000E+00 0.  1.
<mgrwt>
<rscale>  0 0.18006933E+04</rscale>
<asrwt>0</asrwt>
<pdfrwt beam="1">  1        2 0.15019234E+00 0.18006933E+04</pdfrwt>
<pdfrwt beam="2">  1       -2 0.12774532E+00 0.18006933E+04</pdfrwt>
<totfact> 0.11183139E+01</totfact>
</mgrwt>
</event>
<event>
12    1  0.1643403E-007  0.1848506E+04  0.7818608E-02  0.8680921E-01
         -2   -1    0    0    0  501 -0.00000000000E+00  0.00000000000E+00  0.14111017244E+04  0.14111017244E+04  0.00000000000E+00 0.  1.
          2   -1    0    0  501    0  0.00000000000E+00 -0.00000000000E+00 -0.60537375354E+03  0.60537375354E+03  0.00000000000E+00 0. -1.
         23    2    1    2    0    0 -0.69195659134E+03  0.19425453654E+02  0.17005561020E+03  0.71870969375E+03  0.91888197208E+02 0.  0.
        254    2    1    2    0    0  0.69195659134E+03 -0.19425453654E+02  0.63567236068E+03  0.12977657842E+04  0.89494994720E+03 0.  0.
        -24    2    4    4    0    0  0.34684156937E+03  0.24292412417E+03  0.72935285436E+03  0.84697999125E+03  0.78155710306E+02 0.  0.
         24    2    4    4    0    0  0.34511502197E+03 -0.26234957782E+03 -0.93680493686E+02  0.45078579296E+03  0.80623302276E+02 0.  0.
         11    1    3    3    0    0 -0.45004972088E+03  0.81030444538E+00  0.15356145896E+03  0.47552763278E+03  0.00000000000E+00 0.  1.
        -11    1    3    3    0    0 -0.24190687046E+03  0.18615149209E+02  0.16494151245E+02  0.24318206097E+03  0.00000000000E+00 0. -1.
          2    1    6    6  502    0 -0.72405822146E+00 -0.14451264909E+02 -0.86683776172E+01  0.16867248984E+02  0.00000000000E+00 0. -1.
          3    1    5    5  503    0  0.13547112287E+02 -0.48346293569E+01  0.15751883444E+02  0.21331191349E+02  0.00000000000E+00 0. -1.
         -4    1    5    5    0  503  0.33329445708E+03  0.24775875353E+03  0.71360097092E+03  0.82564879990E+03  0.00000000000E+00 0.  1.
         -1    1    6    6    0  502  0.34583908019E+03 -0.24789831291E+03 -0.85012116068E+02  0.43391854398E+03  0.00000000000E+00 0.  1.
<mgrwt>
<rscale>  0 0.18485064E+04</rscale>
<asrwt>0</asrwt>
<pdfrwt beam="1">  1        2 0.93134424E-01 0.18485064E+04</pdfrwt>
<pdfrwt beam="2">  1       -2 0.21709257E+00 0.18485064E+04</pdfrwt>
<totfact> 0.47551253E+00</totfact>
</mgrwt>
</event>
<event>
12    1  0.1549527E-007  0.3007351E+04  0.7818608E-02  0.8241635E-01
          2   -1    0    0  501    0  0.00000000000E+00  0.00000000000E+00  0.20741790845E+04  0.20741790845E+04  0.00000000000E+00 0. -1.
         -2   -1    0    0    0  501 -0.00000000000E+00 -0.00000000000E+00 -0.10900893948E+04  0.10900893948E+04  0.00000000000E+00 0.  1.
         23    2    1    2    0    0 -0.10826538541E+04  0.23210032109E+03 -0.38926741870E+03  0.11783326126E+04  0.10454040292E+03 0.  0.
        254    2    1    2    0    0  0.10826538541E+04 -0.23210032109E+03  0.13733571084E+04  0.19859358667E+04  0.91204253878E+03 0.  0.
        -24    2    4    4    0    0  0.79355732417E+03 -0.30865653156E+03  0.36220639766E+03  0.92841947823E+03  0.75941897654E+02 0.  0.
         24    2    4    4    0    0  0.28909652996E+03  0.76556210472E+02  0.10111507107E+04  0.10575163885E+04  0.80482886887E+02 0.  0.
         13    1    3    3    0    0 -0.15861455073E+03 -0.29036844532E+01 -0.50552105122E+02  0.16650081808E+03  0.00000000000E+00 0. -1.
        -13    1    3    3    0    0 -0.92403930341E+03  0.23500400554E+03 -0.33871531357E+03  0.10118317946E+04  0.00000000000E+00 0.  1.
          2    1    6    6  502    0  0.54863564379E+02  0.39633405793E+02  0.15495907428E+03  0.16909503911E+03  0.00000000000E+00 0. -1.
          1    1    5    5  503    0  0.33607558969E+02 -0.29645803576E+02  0.12187165098E+02  0.46442100325E+02  0.00000000000E+00 0. -1.
         -2    1    5    5    0  503  0.75994976521E+03 -0.27901072799E+03  0.35001923256E+03  0.88197737790E+03  0.00000000000E+00 0.  1.
         -1    1    6    6    0  502  0.23423296558E+03  0.36922804679E+02  0.85619163643E+03  0.88842134934E+03  0.00000000000E+00 0.  1.
<mgrwt>
<rscale>  0 0.30073514E+04</rscale>
<asrwt>0</asrwt>
<pdfrwt beam="1">  1        2 0.31910447E+00 0.30073514E+04</pdfrwt>
<pdfrwt beam="2">  1       -2 0.16770606E+00 0.30073514E+04</pdfrwt>
<totfact> 0.11502658E+00</totfact>
</mgrwt>
</event>
<event>
12    1  0.1549527E-007  0.3890598E+04  0.7818608E-02  0.8026988E-01
         -2   -1    0    0    0  501 -0.00000000000E+00  0.00000000000E+00  0.13400070338E+04  0.13400070338E+04  0.00000000000E+00 0. -1.
          2   -1    0    0  501    0  0.00000000000E+00 -0.00000000000E+00 -0.28240057146E+04  0.28240057146E+04  0.00000000000E+00 0.  1.
         23    2    1    2    0    0 -0.17850201735E+04  0.43618093059E+02 -0.23074644686E+03  0.18026510966E+04  0.90041632027E+02 0.  0.
        254    2    1    2    0    0  0.17850201735E+04 -0.43618093059E+02 -0.12532522340E+04  0.23613616519E+04  0.90398458569E+03 0.  0.
        -24    2    4    4    0    0  0.67261541512E+03 -0.42319788415E+03 -0.32583566335E+03  0.86252870177E+03  0.79239737796E+02 0.  0.
         24    2    4    4    0    0  0.11124047584E+04  0.37957979109E+03 -0.92741657063E+03  0.14988329501E+04  0.69810834508E+02 0.  0.
         13    1    3    3    0    0 -0.47588519827E+03  0.14457880699E+02 -0.21602770272E+02  0.47659462012E+03  0.00000000000E+00 0.  1.
        -13    1    3    3    0    0 -0.13091349752E+04  0.29160212360E+02 -0.20914367658E+03  0.13260564765E+04  0.00000000000E+00 0. -1.
          4    1    6    6  502    0  0.23426917389E+03  0.56316818330E+02 -0.16845231280E+03  0.29398947523E+03  0.00000000000E+00 0. -1.
          1    1    5    5  503    0  0.12714768021E+03 -0.10424298743E+03 -0.94478594280E+02  0.18962947500E+03  0.00000000000E+00 0. -1.
         -2    1    5    5    0  503  0.54546773491E+03 -0.31895489672E+03 -0.23135706907E+03  0.67289922677E+03  0.00000000000E+00 0.  1.
         -3    1    6    6    0  502  0.87813558448E+03  0.32326297276E+03 -0.75896425784E+03  0.12048434749E+04  0.00000000000E+00 0.  1.
<mgrwt>
<rscale>  0 0.38905977E+04</rscale>
<asrwt>0</asrwt>
<pdfrwt beam="1">  1        2 0.43446242E+00 0.38905977E+04</pdfrwt>
<pdfrwt beam="2">  1       -2 0.20615493E+00 0.38905977E+04</pdfrwt>
<totfact> 0.21571425E-01</totfact>
</mgrwt>
</event>
<event>
12    1  0.1549527E-007  0.1972651E+04  0.7818608E-02  0.8619515E-01
         -2   -1    0    0    0  501 -0.00000000000E+00  0.00000000000E+00  0.21972144486E+03  0.21972144486E+03  0.00000000000E+00 0.  1.
          2   -1    0    0  501    0  0.00000000000E+00 -0.00000000000E+00 -0.44275947998E+04  0.44275947998E+04  0.00000000000E+00 0. -1.
         23    2    1    2    0    0 -0.66768986773E+03  0.28827289944E+03 -0.24270187597E+04  0.25352065019E+04  0.89111859447E+02 0.  0.
        254    2    1    2    0    0  0.66768986773E+03 -0.28827289944E+03 -0.17808545952E+04  0.21121097427E+04  0.87215448852E+03 0.  0.
        -24    2    4    4    0    0  0.73087344530E+03  0.46057691907E+02 -0.89348945652E+03  0.11579922717E+04  0.79532310564E+02 0.  0.
         24    2    4    4    0    0 -0.63183577566E+02 -0.33433059135E+03 -0.88736513871E+03  0.95411747098E+03  0.84582210049E+02 0.  0.
         13    1    3    3    0    0 -0.64389183207E+03  0.29029921462E+03 -0.23780406016E+04  0.24807151042E+04  0.00000000000E+00 0. -1.
        -13    1    3    3    0    0 -0.23798035657E+02 -0.20263151784E+01 -0.48978158053E+02  0.54491397675E+02  0.00000000000E+00 0.  1.
          4    1    6    6  502    0 -0.56145119268E+02 -0.17215773836E+03 -0.37090443825E+03  0.41274769970E+03  0.00000000000E+00 0. -1.
          1    1    5    5  503    0  0.14706526630E+03  0.59761843760E+01 -0.13265460986E+03  0.19814427281E+03  0.00000000000E+00 0. -1.
         -2    1    5    5    0  503  0.58380817900E+03  0.40081507531E+02 -0.76083484666E+03  0.95984799891E+03  0.00000000000E+00 0.  1.
         -3    1    6    6    0  502 -0.70384582975E+01 -0.16217285299E+03 -0.51646070046E+03  0.54136977128E+03  0.00000000000E+00 0.  1.
<mgrwt>
<rscale>  0 0.19726505E+04</rscale>
<asrwt>0</asrwt>
<pdfrwt beam="1">  1        2 0.68116839E+00 0.19726505E+04</pdfrwt>
<pdfrwt beam="2">  1       -2 0.33803301E-01 0.19726505E+04</pdfrwt>
<totfact> 0.11200423E+00</totfact>
</mgrwt>
</event>
<event>
12    1  0.1549527E-007  0.2997510E+04  0.7818608E-02  0.8244442E-01
         -2   -1    0    0    0  501 -0.00000000000E+00  0.00000000000E+00  0.10752417161E+04  0.10752417161E+04  0.00000000000E+00 0.  1.
          2   -1    0    0  501    0  0.00000000000E+00 -0.00000000000E+00 -0.20890809869E+04  0.20890809869E+04  0.00000000000E+00 0. -1.
         23    2    1    2    0    0 -0.10780527882E+04  0.51328827628E+03  0.25836292066E+03  0.12256278040E+04  0.98739285380E+02 0.  0.
        254    2    1    2    0    0  0.10780527882E+04 -0.51328827628E+03 -0.12722021915E+04  0.19386948989E+04  0.84520815560E+03 0.  0.
        -24    2    4    4    0    0  0.10092614265E+04 -0.61707154266E+03 -0.13295484954E+04  0.17813810614E+04  0.78951683798E+02 0.  0.
         24    2    4    4    0    0  0.68791361737E+02  0.10378326638E+03  0.57346303949E+02  0.15731383753E+03  0.77174005160E+02 0.  0.
         13    1    3    3    0    0 -0.72408591638E+03  0.38596365567E+03  0.14965951677E+03  0.83406614172E+03  0.00000000000E+00 0.  1.
        -13    1    3    3    0    0 -0.35396687185E+03  0.12732462060E+03  0.10870340389E+03  0.39156166231E+03  0.00000000000E+00 0. -1.
          2    1    6    6  502    0  0.29613720605E+02  0.50551703065E+02 -0.13814309966E+02  0.60193706404E+02  0.00000000000E+00 0. -1.
          1    1    5    5  503    0  0.73922582842E+03 -0.49033970404E+03 -0.97975853763E+03  0.13216711553E+04  0.00000000000E+00 0. -1.
         -4    1    5    5    0  503  0.27003559807E+03 -0.12673183862E+03 -0.34978995781E+03  0.45970990606E+03  0.00000000000E+00 0.  1.
         -3    1    6    6    0  502  0.39177641133E+02  0.53231563317E+02  0.71160613915E+02  0.97120131130E+02  0.00000000000E+00 0.  1.
<mgrwt>
<rscale>  0 0.29975103E+04</rscale>
<asrwt>0</asrwt>
<pdfrwt beam="1">  1        2 0.32139707E+00 0.29975103E+04</pdfrwt>
<pdfrwt beam="2">  1       -2 0.16542180E+00 0.29975103E+04</pdfrwt>
<totfact> 0.11729868E+00</totfact>
</mgrwt>
</event>
<event>
12    1  0.1549527E-007  0.1452052E+04  0.7818608E-02  0.8916979E-01
         -2   -1    0    0    0  501 -0.00000000000E+00  0.00000000000E+00  0.14445675486E+03  0.14445675486E+03  0.00000000000E+00 0.  1.
          2   -1    0    0  501    0  0.00000000000E+00 -0.00000000000E+00 -0.36489392276E+04  0.36489392276E+04  0.00000000000E+00 0. -1.
         23    2    1    2    0    0 -0.17019812338E+02 -0.44164293801E+03 -0.11446635073E+04  0.12304817897E+04  0.92156015424E+02 0.  0.
        254    2    1    2    0    0  0.17019812338E+02  0.44164293801E+03 -0.23598189655E+04  0.25629141928E+04  0.89690883096E+03 0.  0.
        -24    2    4    4    0    0 -0.11571869346E+02  0.43456974716E+03 -0.24199946538E+04  0.24600268370E+04  0.79831957350E+02 0.  0.
         24    2    4    4    0    0  0.28591681684E+02  0.70731908486E+01  0.60175688241E+02  0.10288735579E+03  0.78084442976E+02 0.  0.
         13    1    3    3    0    0 -0.18430274690E+02 -0.27401664389E+03 -0.82531543982E+03  0.86981053762E+03  0.00000000000E+00 0.  1.
        -13    1    3    3    0    0  0.14104623520E+01 -0.16762629412E+03 -0.31934806746E+03  0.36067125207E+03  0.00000000000E+00 0. -1.
          2    1    6    6  502    0  0.20378774867E+02 -0.15456211214E+02 -0.10954188994E+02  0.27824147546E+02  0.00000000000E+00 0. -1.
          1    1    5    5  503    0  0.59412987574E+01  0.29823568880E+03 -0.14521989392E+04  0.14825186623E+04  0.00000000000E+00 0. -1.
         -2    1    5    5    0  503 -0.17513168103E+02  0.13633405836E+03 -0.96779571457E+03  0.97750817473E+03  0.00000000000E+00 0.  1.
         -1    1    6    6    0  502  0.82129068169E+01  0.22529402062E+02  0.71129877235E+02  0.75063208239E+02  0.00000000000E+00 0.  1.
<mgrwt>
<rscale>  0 0.14520522E+04</rscale>
<asrwt>0</asrwt>
<pdfrwt beam="1">  1        2 0.56137527E+00 0.14520522E+04</pdfrwt>
<pdfrwt beam="2">  1       -2 0.22224116E-01 0.14520522E+04</pdfrwt>
<totfact> 0.11142693E+01</totfact>
</mgrwt>
</event>
<event>
12    1  0.1549527E-007  0.1436497E+04  0.7818608E-02  0.8927816E-01
         -2   -1    0    0    0  501 -0.00000000000E+00  0.00000000000E+00  0.36461626421E+03  0.36461626421E+03  0.00000000000E+00 0.  1.
          2   -1    0    0  501    0  0.00000000000E+00 -0.00000000000E+00 -0.14148599940E+04  0.14148599940E+04  0.00000000000E+00 0. -1.
         23    2    1    2    0    0 -0.69633140483E+02 -0.41658690122E+03 -0.36816751087E+03  0.56771727375E+03  0.91444881392E+02 0.  0.
        254    2    1    2    0    0  0.69633140483E+02  0.41658690122E+03 -0.68207621888E+03  0.12117589844E+04  0.90815111487E+03 0.  0.
        -24    2    4    4    0    0  0.14661706791E+03  0.51581910856E+02 -0.79495689422E+03  0.81397633175E+03  0.80272952207E+02 0.  0.
         24    2    4    4    0    0 -0.76983927422E+02  0.36500499036E+03  0.11288067534E+03  0.39778265267E+03  0.79585324198E+02 0.  0.
         13    1    3    3    0    0  0.21915731351E+02 -0.68735706218E+02 -0.69717203632E+02  0.10032639270E+03  0.00000000000E+00 0. -1.
        -13    1    3    3    0    0 -0.91548871834E+02 -0.34785119500E+03 -0.29845030724E+03  0.46739088105E+03  0.00000000000E+00 0.  1.
          2    1    6    6  502    0 -0.61902975097E+02  0.36037663285E+03  0.10832439203E+03  0.38136264859E+03  0.00000000000E+00 0. -1.
          1    1    5    5  503    0  0.15398518768E+03  0.58296372490E+02 -0.73697360642E+03  0.75514237176E+03  0.00000000000E+00 0. -1.
         -2    1    5    5    0  503 -0.73681197746E+01 -0.67144616338E+01 -0.57983287799E+02  0.58833959989E+02  0.00000000000E+00 0.  1.
         -1    1    6    6    0  502 -0.15080952325E+02  0.46283575095E+01  0.45562833080E+01  0.16420004076E+02  0.00000000000E+00 0.  1.
<mgrwt>
<rscale>  0 0.14364971E+04</rscale>
<asrwt>0</asrwt>
<pdfrwt beam="1">  1        2 0.21767077E+00 0.14364971E+04</pdfrwt>
<pdfrwt beam="2">  1       -2 0.56094811E-01 0.14364971E+04</pdfrwt>
<totfact> 0.41094201E+01</totfact>
</mgrwt>
</event>
<event>
12    1  0.1549527E-007  0.1522783E+04  0.7818608E-02  0.8869443E-01
         -1   -1    0    0    0  501 -0.00000000000E+00  0.00000000000E+00  0.63480002971E+03  0.63480002971E+03  0.00000000000E+00 0.  1.
          1   -1    0    0  501    0  0.00000000000E+00 -0.00000000000E+00 -0.91322721452E+03  0.91322721452E+03  0.00000000000E+00 0. -1.
         23    2    1    2    0    0 -0.18235521868E+03 -0.44127842541E+03  0.55500294429E+01  0.48616812948E+03  0.91370524696E+02 0.  0.
        254    2    1    2    0    0  0.18235521868E+03  0.44127842541E+03 -0.28397721425E+03  0.10618591148E+04  0.90494289702E+03 0.  0.
        -24    2    4    4    0    0 -0.61715218662E+02 -0.84370159445E+02  0.24180332655E+03  0.27514885021E+03  0.79441481727E+02 0.  0.
         24    2    4    4    0    0  0.24407043734E+03  0.52564858485E+03 -0.52578054080E+03  0.78671026455E+03  0.81185282642E+02 0.  0.
         13    1    3    3    0    0 -0.43700966645E+02 -0.10816999366E+03 -0.38091251819E+02  0.12272516237E+03  0.00000000000E+00 0. -1.
        -13    1    3    3    0    0 -0.13865425204E+03 -0.33310843174E+03  0.43641281262E+02  0.36344296710E+03  0.00000000000E+00 0.  1.
          2    1    6    6  502    0  0.19980953475E+03  0.48317536413E+03 -0.45569461008E+03  0.69357037158E+03  0.00000000000E+00 0. -1.
          3    1    5    5  503    0 -0.41474429868E+01 -0.19359838511E+02  0.17543970236E+01  0.19876683310E+02  0.00000000000E+00 0. -1.
         -4    1    5    5    0  503 -0.57567775675E+02 -0.65010320935E+02  0.24004892953E+03  0.25527216690E+03  0.00000000000E+00 0.  1.
         -3    1    6    6    0  502  0.44260902591E+02  0.42473220724E+02 -0.70085930726E+02  0.93139892970E+02  0.00000000000E+00 0.  1.
<mgrwt>
<rscale>  0 0.15227825E+04</rscale>
<asrwt>0</asrwt>
<pdfrwt beam="1">  1        1 0.14049649E+00 0.15227825E+04</pdfrwt>
<pdfrwt beam="2">  1       -1 0.97661543E-01 0.15227825E+04</pdfrwt>
<totfact> 0.17244636E+01</totfact>
</mgrwt>
</event>
<event>
12    1  0.1549527E-007  0.1391758E+04  0.7818608E-02  0.8959806E-01
         -2   -1    0    0    0  501 -0.00000000000E+00  0.00000000000E+00  0.31493422439E+03  0.31493422439E+03  0.00000000000E+00 0.  1.
          2   -1    0    0  501    0  0.00000000000E+00 -0.00000000000E+00 -0.15376157205E+04  0.15376157205E+04  0.00000000000E+00 0. -1.
         23    2    1    2    0    0  0.18420456439E+03 -0.19881118591E+03  0.37107645429E+02  0.28769707715E+03  0.89080983762E+02 0.  0.
        254    2    1    2    0    0 -0.18420456439E+03  0.19881118591E+03 -0.12597891415E+04  0.15648528677E+04  0.88782802801E+03 0.  0.
        -24    2    4    4    0    0 -0.23437775260E+03  0.12316900924E+03  0.22059060229E+02  0.27736938699E+03  0.79646964486E+02 0.  0.
         24    2    4    4    0    0  0.50173188214E+02  0.75642176667E+02 -0.12818482017E+04  0.12874834807E+04  0.78992487652E+02 0.  0.
         13    1    3    3    0    0  0.48305255082E+01 -0.28678231013E+02 -0.18271067407E+02  0.34345404567E+02  0.00000000000E+00 0. -1.
        -13    1    3    3    0    0  0.17937403888E+03 -0.17013295490E+03  0.55378712836E+02  0.25335167258E+03  0.00000000000E+00 0.  1.
          4    1    6    6  502    0  0.40152638856E+02  0.16375319140E+02 -0.88962823359E+03  0.89068444440E+03  0.00000000000E+00 0. -1.
          1    1    5    5  503    0 -0.21689417219E+03  0.12440885044E+03  0.38915680165E+02  0.25305152472E+03  0.00000000000E+00 0. -1.
         -2    1    5    5    0  503 -0.17483580407E+02 -0.12398411979E+01 -0.16856619936E+02  0.24317862277E+02  0.00000000000E+00 0.  1.
         -3    1    6    6    0  502  0.10020549358E+02  0.59266857528E+02 -0.39221996813E+03  0.39679903631E+03  0.00000000000E+00 0.  1.
<mgrwt>
<rscale>  0 0.13917583E+04</rscale>
<asrwt>0</asrwt>
<pdfrwt beam="1">  1        2 0.23655627E+00 0.13917583E+04</pdfrwt>
<pdfrwt beam="2">  1       -2 0.48451419E-01 0.13917583E+04</pdfrwt>
<totfact> 0.47488710E+01</totfact>
</mgrwt>
</event>
<event>
12    1  0.1549527E-007  0.1331289E+04  0.7818608E-02  0.9005114E-01
         -3   -1    0    0    0  501 -0.00000000000E+00  0.00000000000E+00  0.79230356564E+03  0.79230356564E+03  0.00000000000E+00 0.  1.
          3   -1    0    0  501    0  0.00000000000E+00 -0.00000000000E+00 -0.55923375517E+03  0.55923375517E+03  0.00000000000E+00 0. -1.
         23    2    1    2    0    0  0.12830850643E+03  0.33248413004E+03 -0.45051177177E+02  0.37195881102E+03  0.96514138739E+02 0.  0.
        254    2    1    2    0    0 -0.12830850643E+03 -0.33248413004E+03  0.27812098764E+03  0.97957850979E+03  0.86903049632E+03 0.  0.
        -24    2    4    4    0    0 -0.42997658631E+03 -0.97792937388E+02 -0.74383825382E+02  0.45310698936E+03  0.73004568014E+02 0.  0.
         24    2    4    4    0    0  0.30166807989E+03 -0.23469119266E+03  0.35250481303E+03  0.52647152043E+03  0.82637959088E+02 0.  0.
         13    1    3    3    0    0 -0.13010681562E+02  0.64125422412E+02 -0.15389235573E+02  0.67217380236E+02  0.00000000000E+00 0.  1.
        -13    1    3    3    0    0  0.14131918799E+03  0.26835870763E+03 -0.29661941604E+02  0.30474143078E+03  0.00000000000E+00 0. -1.
          2    1    6    6  502    0  0.18907320425E+03 -0.19150975610E+03  0.26304312511E+03  0.37631947719E+03  0.00000000000E+00 0. -1.
          1    1    5    5  503    0 -0.26125673510E+03 -0.29424171135E+02 -0.64973861164E+02  0.27081814215E+03  0.00000000000E+00 0. -1.
         -2    1    5    5    0  503 -0.16871985121E+03 -0.68368766253E+02 -0.94099642186E+01  0.18228884721E+03  0.00000000000E+00 0.  1.
         -1    1    6    6    0  502  0.11259487564E+03 -0.43181436559E+02  0.89461687913E+02  0.15015204324E+03  0.00000000000E+00 0.  1.
<mgrwt>
<rscale>  0 0.13312894E+04</rscale>
<asrwt>0</asrwt>
<pdfrwt beam="1">  1        3 0.86035963E-01 0.13312894E+04</pdfrwt>
<pdfrwt beam="2">  1       -3 0.12189286E+00 0.13312894E+04</pdfrwt>
<totfact> 0.17236094E+00</totfact>
</mgrwt>
</event>
<event>
12    1  0.1549527E-007  0.1519578E+04  0.7818608E-02  0.8871537E-01
          2   -1    0    0  501    0  0.00000000000E+00  0.00000000000E+00  0.12647794939E+04  0.12647794939E+04  0.00000000000E+00 0. -1.
         -2   -1    0    0    0  501 -0.00000000000E+00 -0.00000000000E+00 -0.45642697571E+03  0.45642697571E+03  0.00000000000E+00 0.  1.
         23    2    1    2    0    0 -0.11751392072E+03 -0.13527647382E+02 -0.27244850776E+03  0.31005895684E+03  0.88971054437E+02 0.  0.
        254    2    1    2    0    0  0.11751392072E+03  0.13527647382E+02  0.10808010260E+04  0.14111475128E+04  0.89956318638E+03 0.  0.
        -24    2    4    4    0    0 -0.29006399628E+03 -0.19494615379E+03  0.77820395778E+03  0.85669725071E+03  0.78661646674E+02 0.  0.
         24    2    4    4    0    0  0.40757791700E+03  0.20847380117E+03  0.30259706818E+03  0.55445026207E+03  0.79177163563E+02 0.  0.
         13    1    3    3    0    0  0.10726946967E+02 -0.14435541034E+02 -0.51990600627E+02  0.55013405545E+02  0.00000000000E+00 0. -1.
        -13    1    3    3    0    0 -0.12824086769E+03  0.90789365177E+00 -0.22045790714E+03  0.25504555130E+03  0.00000000000E+00 0.  1.
          2    1    6    6  502    0  0.12810890099E+03  0.28773727204E+02  0.10270673914E+03  0.16669880670E+03  0.00000000000E+00 0. -1.
          1    1    5    5  503    0 -0.19315529447E+03 -0.12202541597E+03  0.41437546720E+03  0.47318727555E+03  0.00000000000E+00 0. -1.
         -2    1    5    5    0  503 -0.96908701808E+02 -0.72920737815E+02  0.36382849059E+03  0.38350997517E+03  0.00000000000E+00 0.  1.
         -1    1    6    6    0  502  0.27946901601E+03  0.17970007397E+03  0.19989032904E+03  0.38775145537E+03  0.00000000000E+00 0.  1.
<mgrwt>
<rscale>  0 0.15195782E+04</rscale>
<asrwt>0</asrwt>
<pdfrwt beam="1">  1        2 0.19458146E+00 0.15195782E+04</pdfrwt>
<pdfrwt beam="2">  1       -2 0.70219535E-01 0.15195782E+04</pdfrwt>
<totfact> 0.30880833E+01</totfact>
</mgrwt>
</event>
<event>
12    1  0.1549527E-007  0.2292051E+04  0.7818608E-02  0.8481062E-01
         -3   -1    0    0    0  501 -0.00000000000E+00  0.00000000000E+00  0.14918209476E+04  0.14918209476E+04  0.00000000000E+00 0.  1.
          3   -1    0    0  501    0  0.00000000000E+00 -0.00000000000E+00 -0.88038370610E+03  0.88038370610E+03  0.00000000000E+00 0. -1.
         23    2    1    2    0    0 -0.47388871047E+03  0.83863770220E+03  0.34665590384E+03  0.10278571906E+04  0.91849786183E+02 0.  0.
        254    2    1    2    0    0  0.47388871047E+03 -0.83863770220E+03  0.26478133766E+03  0.13443474631E+04  0.89959837663E+03 0.  0.
        -24    2    4    4    0    0  0.28880848405E+03 -0.81091148276E+03  0.52745777491E+03  0.10127469078E+04  0.80354350071E+02 0.  0.
         24    2    4    4    0    0  0.18508022642E+03 -0.27726219432E+02 -0.26267643726E+03  0.33160055528E+03  0.77049231788E+02 0.  0.
         13    1    3    3    0    0 -0.20142766078E+03  0.37601991843E+03  0.10627740950E+03  0.43961229436E+03  0.00000000000E+00 0. -1.
        -13    1    3    3    0    0 -0.27246104969E+03  0.46261778377E+03  0.24037849434E+03  0.58824489628E+03  0.00000000000E+00 0.  1.
          2    1    6    6  502    0 -0.18879003430E+01 -0.10001045000E+02 -0.35055323880E+02  0.36502887572E+02  0.00000000000E+00 0. -1.
          1    1    5    5  503    0  0.14226100373E+03 -0.33126621980E+03  0.25875951282E+03  0.44377019620E+03  0.00000000000E+00 0. -1.
         -2    1    5    5    0  503  0.14654748032E+03 -0.47964526297E+03  0.26869826209E+03  0.56897671158E+03  0.00000000000E+00 0.  1.
         -1    1    6    6    0  502  0.18696812676E+03 -0.17725174432E+02 -0.22762111338E+03  0.29509766771E+03  0.00000000000E+00 0.  1.
<mgrwt>
<rscale>  0 0.22920514E+04</rscale>
<asrwt>0</asrwt>
<pdfrwt beam="1">  1        3 0.13544365E+00 0.22920514E+04</pdfrwt>
<pdfrwt beam="2">  1       -3 0.22951091E+00 0.22920514E+04</pdfrwt>
<totfact> 0.95872188E-02</totfact>
</mgrwt>
</event>
<event>
12    1  0.1549527E-007  0.1562379E+04  0.7818608E-02  0.8843999E-01
          2   -1    0    0  501    0  0.00000000000E+00  0.00000000000E+00  0.65008374905E+03  0.65008374905E+03  0.00000000000E+00 0. -1.
         -2   -1    0    0    0  501 -0.00000000000E+00 -0.00000000000E+00 -0.93873614467E+03  0.93873614467E+03  0.00000000000E+00 0.  1.
         23    2    1    2    0    0 -0.40360491409E+02 -0.21357468855E+03 -0.57617430190E+03  0.62245573368E+03  0.90725946461E+02 0.  0.
        254    2    1    2    0    0  0.40360491409E+02  0.21357468855E+03  0.28752190628E+03  0.96636416004E+03  0.89663132132E+03 0.  0.
        -24    2    4    4    0    0 -0.21753179199E+03 -0.24022426072E+03 -0.53222321335E+02  0.33819729888E+03  0.80728071436E+02 0.  0.
         24    2    4    4    0    0  0.25789228340E+03  0.45379894927E+03  0.34074422761E+03  0.62816686116E+03  0.77749987853E+02 0.  0.
         11    1    3    3    0    0 -0.55049384458E+02 -0.81002151288E+02 -0.30340961614E+03  0.31882468287E+03  0.00000000000E+00 0. -1.
        -11    1    3    3    0    0  0.14688893049E+02 -0.13257253726E+03 -0.27276468577E+03  0.30363105081E+03  0.00000000000E+00 0.  1.
          4    1    6    6  502    0  0.17456519386E+03  0.22966888681E+03  0.19297091190E+03  0.34707142971E+03  0.00000000000E+00 0. -1.
          1    1    5    5  503    0 -0.20282421068E+03 -0.21905250581E+03 -0.71029249195E+02  0.30686611899E+03  0.00000000000E+00 0. -1.
         -2    1    5    5    0  503 -0.14707581316E+02 -0.21171754907E+02  0.17806927861E+02  0.31331179899E+02  0.00000000000E+00 0.  1.
         -3    1    6    6    0  502  0.83327089542E+02  0.22413006246E+03  0.14777331571E+03  0.28109543145E+03  0.00000000000E+00 0.  1.
<mgrwt>
<rscale>  0 0.15623791E+04</rscale>
<asrwt>0</asrwt>
<pdfrwt beam="1">  1        2 0.10001288E+00 0.15623791E+04</pdfrwt>
<pdfrwt beam="2">  1       -2 0.14442094E+00 0.15623791E+04</pdfrwt>
<totfact> 0.14307726E+01</totfact>
</mgrwt>
</event>
<event>
12    1  0.1549527E-007  0.1466324E+04  0.7818608E-02  0.8907161E-01
          1   -1    0    0  501    0  0.00000000000E+00  0.00000000000E+00  0.65280243410E+03  0.65280243410E+03  0.00000000000E+00 0. -1.
         -1   -1    0    0    0  501 -0.00000000000E+00 -0.00000000000E+00 -0.82341329610E+03  0.82341329610E+03  0.00000000000E+00 0.  1.
         23    2    1    2    0    0  0.37444099862E+03  0.18732973871E+03 -0.20087626090E+03  0.47351262314E+03  0.92544257670E+02 0.  0.
        254    2    1    2    0    0 -0.37444099862E+03 -0.18732973871E+03  0.30265398903E+02  0.10027031071E+04  0.91060366465E+03 0.  0.
        -24    2    4    4    0    0 -0.39573636406E+03 -0.44114332681E+03  0.25809304727E+03  0.65158179434E+03  0.82049430441E+02 0.  0.
         24    2    4    4    0    0  0.21295365435E+02  0.25381358810E+03 -0.22782764837E+03  0.35112131271E+03  0.80659213887E+02 0.  0.
         11    1    3    3    0    0  0.59029097784E+02  0.44703353319E+02 -0.74408466087E+02  0.10497353956E+03  0.00000000000E+00 0. -1.
        -11    1    3    3    0    0  0.31541190084E+03  0.14262638539E+03 -0.12646779481E+03  0.36853908358E+03  0.00000000000E+00 0.  1.
          2    1    6    6  502    0  0.10668330340E+02  0.22557169818E+02  0.18440499968E+01  0.25020785415E+02  0.00000000000E+00 0. -1.
          1    1    5    5  503    0 -0.13820783678E+02 -0.45508927679E+01  0.19585136295E+02  0.24398816573E+02  0.00000000000E+00 0. -1.
         -2    1    5    5    0  503 -0.38191558038E+03 -0.43659243405E+03  0.23850791098E+03  0.62718297777E+03  0.00000000000E+00 0.  1.
         -1    1    6    6    0  502  0.10627035096E+02  0.23125641829E+03 -0.22967169837E+03  0.32610052730E+03  0.00000000000E+00 0.  1.
<mgrwt>
<rscale>  0 0.14663236E+04</rscale>
<asrwt>0</asrwt>
<pdfrwt beam="1">  1        1 0.10043114E+00 0.14663236E+04</pdfrwt>
<pdfrwt beam="2">  1       -1 0.12667897E+00 0.14663236E+04</pdfrwt>
<totfact> 0.15893082E+01</totfact>
</mgrwt>
</event>
<event>
12    1  0.1549527E-007  0.2532260E+04  0.7818608E-02  0.8391582E-01
         -2   -1    0    0    0  501 -0.00000000000E+00  0.00000000000E+00  0.24008560903E+04  0.24008560903E+04  0.00000000000E+00 0. -1.
          2   -1    0    0  501    0  0.00000000000E+00 -0.00000000000E+00 -0.66771393142E+03  0.66771393142E+03  0.00000000000E+00 0.  1.
         23    2    1    2    0    0 -0.10572027228E+03  0.10689399272E+04  0.45753852631E+03  0.11711651923E+04  0.92070954005E+02 0.  0.
        254    2    1    2    0    0  0.10572027228E+03 -0.10689399272E+04  0.12756036325E+04  0.18974048294E+04  0.90508072310E+03 0.  0.
        -24    2    4    4    0    0 -0.30459501353E+03 -0.68935921857E+03  0.10367348007E+04  0.12842399043E+04  0.80366848215E+02 0.  0.
         24    2    4    4    0    0  0.41031528582E+03 -0.37958070865E+03  0.23886883183E+03  0.61316492511E+03  0.80453454897E+02 0.  0.
         11    1    3    3    0    0 -0.11871804016E+03  0.86762067400E+03  0.35582533964E+03  0.94523609714E+03  0.00000000000E+00 0.  1.
        -11    1    3    3    0    0  0.12997767875E+02  0.20131925323E+03  0.10171318667E+03  0.22592909514E+03  0.00000000000E+00 0. -1.
          4    1    6    6  502    0  0.67910106207E+01 -0.30064952172E+02  0.11133622219E+02  0.32771584003E+02  0.00000000000E+00 0. -1.
          3    1    5    5  503    0 -0.80919752156E+02 -0.19350389400E+03  0.23035623589E+03  0.31153773238E+03  0.00000000000E+00 0. -1.
         -4    1    5    5    0  503 -0.22367526138E+03 -0.49585532457E+03  0.80637856482E+03  0.97270217193E+03  0.00000000000E+00 0.  1.
         -3    1    6    6    0  502  0.40352427520E+03 -0.34951575648E+03  0.22773520961E+03  0.58039334110E+03  0.00000000000E+00 0.  1.
<mgrwt>
<rscale>  0 0.25322599E+04</rscale>
<asrwt>0</asrwt>
<pdfrwt beam="1">  1        2 0.10272522E+00 0.25322599E+04</pdfrwt>
<pdfrwt beam="2">  1       -2 0.36936247E+00 0.25322599E+04</pdfrwt>
<totfact> 0.45348909E-01</totfact>
</mgrwt>
</event>
<event>
12    1  0.1549527E-007  0.2009440E+04  0.7818608E-02  0.8602220E-01
          2   -1    0    0  501    0  0.00000000000E+00  0.00000000000E+00  0.21415990052E+04  0.21415990052E+04  0.00000000000E+00 0. -1.
         -2   -1    0    0    0  501 -0.00000000000E+00 -0.00000000000E+00 -0.47135921489E+03  0.47135921489E+03  0.00000000000E+00 0.  1.
         23    2    1    2    0    0 -0.11228022808E+03 -0.79503967317E+03  0.70868421078E+03  0.10748617950E+04  0.91649528806E+02 0.  0.
        254    2    1    2    0    0  0.11228022808E+03  0.79503967317E+03  0.96155557949E+03  0.15380964251E+04  0.89244414327E+03 0.  0.
        -24    2    4    4    0    0 -0.32216996028E+02  0.96040805829E+03  0.80935539979E+03  0.12590635836E+04  0.82239717119E+02 0.  0.
         24    2    4    4    0    0  0.14449722411E+03 -0.16536838512E+03  0.15220017969E+03  0.27903284149E+03  0.80425626269E+02 0.  0.
         11    1    3    3    0    0  0.31288158175E+01 -0.15183547210E+03  0.10012652193E+03  0.18190415188E+03  0.00000000000E+00 0.  1.
        -11    1    3    3    0    0 -0.11540904390E+03 -0.64320420107E+03  0.60855768885E+03  0.89295764308E+03  0.00000000000E+00 0. -1.
          4    1    6    6  502    0  0.10257811028E+03 -0.15165861344E+03  0.14664734097E+03  0.23458057539E+03  0.00000000000E+00 0. -1.
          3    1    5    5  503    0 -0.18974850102E-01  0.82754473244E+03  0.68537896908E+03  0.10745113381E+04  0.00000000000E+00 0. -1.
         -4    1    5    5    0  503 -0.32198021178E+02  0.13286332586E+03  0.12397643071E+03  0.18455224544E+03  0.00000000000E+00 0.  1.
         -3    1    6    6    0  502  0.41919113826E+02 -0.13709771682E+02  0.55528387278E+01  0.44452266101E+02  0.00000000000E+00 0.  1.
<mgrwt>
<rscale>  0 0.20094401E+04</rscale>
<asrwt>0</asrwt>
<pdfrwt beam="1">  1        2 0.32947676E+00 0.20094401E+04</pdfrwt>
<pdfrwt beam="2">  1       -2 0.72516803E-01 0.20094401E+04</pdfrwt>
<totfact> 0.88934190E+00</totfact>
</mgrwt>
</event>
<event>
12    1  0.1549527E-007  0.2080348E+04  0.7818608E-02  0.8569950E-01
          3   -1    0    0  501    0  0.00000000000E+00  0.00000000000E+00  0.53518236767E+03  0.53518236767E+03  0.00000000000E+00 0. -1.
         -3   -1    0    0    0  501 -0.00000000000E+00 -0.00000000000E+00 -0.20216702335E+04  0.20216702335E+04  0.00000000000E+00 0.  1.
         23    2    1    2    0    0  0.43724655135E+03 -0.32267172688E+03 -0.13979629456E+04  0.15025934379E+04  0.90471279847E+02 0.  0.
        254    2    1    2    0    0 -0.43724655135E+03  0.32267172688E+03 -0.88524920302E+02  0.10542591633E+04  0.89906848009E+03 0.  0.
        -24    2    4    4    0    0 -0.73292216965E+02  0.26026331069E+03 -0.44928436950E+03  0.53174611165E+03  0.88253853307E+02 0.  0.
         24    2    4    4    0    0 -0.36395433439E+03  0.62408416183E+02  0.36075944919E+03  0.52251305165E+03  0.80715184614E+02 0.  0.
         13    1    3    3    0    0  0.91429929509E+02 -0.11706437133E+03 -0.36940793909E+03  0.39815289087E+03  0.00000000000E+00 0. -1.
        -13    1    3    3    0    0  0.34581662184E+03 -0.20560735554E+03 -0.10285550065E+04  0.11044405470E+04  0.00000000000E+00 0.  1.
          4    1    6    6  502    0 -0.25136708291E+03  0.46425251830E+01  0.23669489943E+03  0.34529905709E+03  0.00000000000E+00 0. -1.
          1    1    5    5  503    0 -0.91070668818E+02  0.24051958392E+03 -0.39566010568E+03  0.47190089658E+03  0.00000000000E+00 0. -1.
         -2    1    5    5    0  503  0.17778451853E+02  0.19743726778E+02 -0.53624263812E+02  0.59845215070E+02  0.00000000000E+00 0.  1.
         -1    1    6    6    0  502 -0.11258725148E+03  0.57765891000E+02  0.12406454976E+03  0.17721399455E+03  0.00000000000E+00 0.  1.
<mgrwt>
<rscale>  0 0.20803483E+04</rscale>
<asrwt>0</asrwt>
<pdfrwt beam="1">  1        3 0.82335749E-01 0.20803483E+04</pdfrwt>
<pdfrwt beam="2">  1       -3 0.31102619E+00 0.20803483E+04</pdfrwt>
<totfact> 0.10856479E-01</totfact>
</mgrwt>
</event>
<event>
12    1  0.1549527E-007  0.1491896E+04  0.7818608E-02  0.8889860E-01
          2   -1    0    0  501    0  0.00000000000E+00  0.00000000000E+00  0.36234604303E+04  0.36234604303E+04  0.00000000000E+00 0. -1.
         -2   -1    0    0    0  501 -0.00000000000E+00 -0.00000000000E+00 -0.15356549029E+03  0.15356549029E+03  0.00000000000E+00 0.  1.
         23    2    1    2    0    0 -0.95961311732E+02 -0.42572861846E+03  0.14828219741E+04  0.15490491879E+04  0.10168062499E+03 0.  0.
        254    2    1    2    0    0  0.95961311732E+02  0.42572861846E+03  0.19870729659E+04  0.22279767327E+04  0.90827744657E+03 0.  0.
        -24    2    4    4    0    0 -0.27903655279E+03  0.46160328206E+03  0.71924131204E+03  0.90288716035E+03  0.83415655530E+02 0.  0.
         24    2    4    4    0    0  0.37499786452E+03 -0.35874663599E+02  0.12678316538E+04  0.13250895724E+04  0.80962228717E+02 0.  0.
         13    1    3    3    0    0 -0.83722503337E+02 -0.41463607338E+03  0.13376311382E+04  0.14029218056E+04  0.00000000000E+00 0. -1.
        -13    1    3    3    0    0 -0.12238808395E+02 -0.11092545072E+02  0.14519083599E+03  0.14612738225E+03  0.00000000000E+00 0.  1.
          4    1    6    6  502    0  0.36495337596E+03 -0.19266703180E+02  0.12165286628E+04  0.12702378359E+04  0.00000000000E+00 0. -1.
          3    1    5    5  503    0 -0.20778896429E+03  0.26670102006E+03  0.43400532843E+03  0.55015117276E+03  0.00000000000E+00 0. -1.
         -4    1    5    5    0  503 -0.71247588496E+02  0.19490226199E+03  0.28523598361E+03  0.35273598759E+03  0.00000000000E+00 0.  1.
         -3    1    6    6    0  502  0.10044488559E+02 -0.16607960419E+02  0.51302991054E+02  0.54851736442E+02  0.00000000000E+00 0.  1.
<mgrwt>
<rscale>  0 0.14918961E+04</rscale>
<asrwt>0</asrwt>
<pdfrwt beam="1">  1        2 0.55745538E+00 0.14918961E+04</pdfrwt>
<pdfrwt beam="2">  1       -2 0.23625463E-01 0.14918961E+04</pdfrwt>
<totfact> 0.10371346E+01</totfact>
</mgrwt>
</event>
<event>
12    1  0.1549527E-007  0.1403654E+04  0.7818608E-02  0.8951178E-01
          1   -1    0    0  501    0  0.00000000000E+00  0.00000000000E+00  0.41531894198E+04  0.41531894198E+04  0.00000000000E+00 0. -1.
         -1   -1    0    0    0  501 -0.00000000000E+00 -0.00000000000E+00 -0.11859824432E+03  0.11859824432E+03  0.00000000000E+00 0.  1.
         23    2    1    2    0    0 -0.29124721330E+03  0.27119904034E+03  0.14432486786E+04  0.14997103394E+04  0.88263780179E+02 0.  0.
        254    2    1    2    0    0  0.29124721330E+03 -0.27119904034E+03  0.25913424969E+04  0.27720773248E+04  0.90054588984E+03 0.  0.
        -24    2    4    4    0    0  0.20620481325E+03 -0.59718303539E+03  0.16120496222E+04  0.17333677062E+04  0.81924462216E+02 0.  0.
         24    2    4    4    0    0  0.85042400044E+02  0.32598399505E+03  0.97929287469E+03  0.10387096186E+04  0.80033509311E+02 0.  0.
         13    1    3    3    0    0 -0.18124769601E+03  0.12314520551E+03  0.88763835027E+03  0.91428513595E+03  0.00000000000E+00 0.  1.
        -13    1    3    3    0    0 -0.10999951728E+03  0.14805383483E+03  0.55561032836E+03  0.58542520341E+03  0.00000000000E+00 0. -1.
          2    1    6    6  502    0  0.79250296378E+02  0.30416610244E+03  0.82636804123E+03  0.88412768700E+03  0.00000000000E+00 0. -1.
          3    1    5    5  503    0  0.15452241319E+03 -0.52804948005E+03  0.13674889466E+04  0.14740215225E+04  0.00000000000E+00 0. -1.
         -4    1    5    5    0  503  0.51682400069E+02 -0.69133555342E+02  0.24456067558E+03  0.25934618369E+03  0.00000000000E+00 0.  1.
         -1    1    6    6    0  502  0.57921036656E+01  0.21817892609E+02  0.15292483347E+03  0.15458193165E+03  0.00000000000E+00 0.  1.
<mgrwt>
<rscale>  0 0.14036538E+04</rscale>
<asrwt>0</asrwt>
<pdfrwt beam="1">  1        1 0.63895210E+00 0.14036538E+04</pdfrwt>
<pdfrwt beam="2">  1       -1 0.18245887E-01 0.14036538E+04</pdfrwt>
<totfact> 0.16676917E+00</totfact>
</mgrwt>
</event>
<event>
12    1  0.1549527E-007  0.1845086E+04  0.7818608E-02  0.8682684E-01
          2   -1    0    0  501    0  0.00000000000E+00  0.00000000000E+00  0.10474240901E+04  0.10474240901E+04  0.00000000000E+00 0. -1.
         -2   -1    0    0    0  501 -0.00000000000E+00 -0.00000000000E+00 -0.81255130446E+03  0.81255130446E+03  0.00000000000E+00 0.  1.
         23    2    1    2    0    0  0.35662096581E+03  0.35748264407E+03  0.59588818477E+03  0.78653243253E+03  0.92618489561E+02 0.  0.
        254    2    1    2    0    0 -0.35662096581E+03 -0.35748264407E+03 -0.36101539908E+03  0.10734429621E+04  0.87577127173E+03 0.  0.
        -24    2    4    4    0    0 -0.16916613443E+03  0.18119552694E+03  0.15299075684E+03  0.30157967214E+03  0.78071294007E+02 0.  0.
         24    2    4    4    0    0 -0.18745483137E+03 -0.53867817101E+03 -0.51400615593E+03  0.77186328993E+03  0.79101986608E+02 0.  0.
         11    1    3    3    0    0  0.34444362810E+03  0.35372106901E+03  0.59580740769E+03  0.77378709905E+03  0.00000000000E+00 0. -1.
        -11    1    3    3    0    0  0.12177337709E+02  0.37615750613E+01  0.80777082372E-01  0.12745333482E+02  0.00000000000E+00 0.  1.
          2    1    6    6  502    0 -0.23156246546E+02 -0.90049044570E+02 -0.12481120222E+03  0.15563700840E+03  0.00000000000E+00 0. -1.
          3    1    5    5  503    0 -0.11473043307E+03  0.75113241977E+02  0.10639152209E+03  0.17356332379E+03  0.00000000000E+00 0. -1.
         -4    1    5    5    0  503 -0.54435701359E+02  0.10608228496E+03  0.46599234759E+02  0.12801634835E+03  0.00000000000E+00 0.  1.
         -3    1    6    6    0  502 -0.16429858483E+03 -0.44862912644E+03 -0.38919495370E+03  0.61622628153E+03  0.00000000000E+00 0.  1.
<mgrwt>
<rscale>  0 0.18450862E+04</rscale>
<asrwt>0</asrwt>
<pdfrwt beam="1">  1        2 0.16114217E+00 0.18450862E+04</pdfrwt>
<pdfrwt beam="2">  1       -2 0.12500789E+00 0.18450862E+04</pdfrwt>
<totfact> 0.10596631E+01</totfact>
</mgrwt>
</event>
<event>
12    1  0.1549527E-007  0.1112648E+04  0.7818608E-02  0.9192951E-01
         -1   -1    0    0    0  501 -0.00000000000E+00  0.00000000000E+00  0.35684037747E+03  0.35684037747E+03  0.00000000000E+00 0.  1.
          1   -1    0    0  501    0  0.00000000000E+00 -0.00000000000E+00 -0.86732471716E+03  0.86732471716E+03  0.00000000000E+00 0. -1.
         23    2    1    2    0    0 -0.15951921028E+02 -0.73887488252E+02  0.85994152650E+02  0.14297960162E+03  0.85640805016E+02 0.  0.
        254    2    1    2    0    0  0.15951921028E+02  0.73887488252E+02 -0.59647849234E+03  0.10811854930E+04  0.89858870112E+03 0.  0.
        -24    2    4    4    0    0 -0.23629386433E+03 -0.20616992942E+03 -0.61531582799E+03  0.69537216647E+03  0.81166813511E+02 0.  0.
         24    2    4    4    0    0  0.25224578536E+03  0.28005741767E+03  0.18837335654E+02  0.38581332654E+03  0.80230818877E+02 0.  0.
         11    1    3    3    0    0  0.19581985765E+02 -0.34788307538E+02 -0.24069155767E+01  0.39993421340E+02  0.00000000000E+00 0. -1.
        -11    1    3    3    0    0 -0.35533906792E+02 -0.39099180714E+02  0.88401068227E+02  0.10298618028E+03  0.00000000000E+00 0.  1.
          2    1    6    6  502    0  0.19250395711E+01  0.29007105156E+02  0.11358759543E+02  0.31211205444E+02  0.00000000000E+00 0. -1.
          1    1    5    5  503    0 -0.37992807915E+01  0.52345114928E+01 -0.33506971571E+02  0.34125529871E+02  0.00000000000E+00 0. -1.
         -2    1    5    5    0  503 -0.23249458354E+03 -0.21140444091E+03 -0.58180885642E+03  0.66124663660E+03  0.00000000000E+00 0.  1.
         -1    1    6    6    0  502  0.25032074579E+03  0.25105031252E+03  0.74785761102E+01  0.35460212110E+03  0.00000000000E+00 0.  1.
<mgrwt>
<rscale>  0 0.11126482E+04</rscale>
<asrwt>0</asrwt>
<pdfrwt beam="1">  1        1 0.13343457E+00 0.11126482E+04</pdfrwt>
<pdfrwt beam="2">  1       -1 0.54898520E-01 0.11126482E+04</pdfrwt>
<totfact> 0.64650184E+01</totfact>
</mgrwt>
</event>
<event>
12    1  0.1549527E-007  0.1263968E+04  0.7818608E-02  0.9058637E-01
          2   -1    0    0  501    0  0.00000000000E+00  0.00000000000E+00  0.33783043942E+04  0.33783043942E+04  0.00000000000E+00 0. -1.
         -2   -1    0    0    0  501 -0.00000000000E+00 -0.00000000000E+00 -0.11822611510E+03  0.11822611510E+03  0.00000000000E+00 0.  1.
         23    2    1    2    0    0 -0.71834787199E+02  0.24040544401E+03  0.13594559727E+04  0.13857873748E+04  0.96597578420E+02 0.  0.
        254    2    1    2    0    0  0.71834787199E+02 -0.24040544401E+03  0.19006223064E+04  0.21107431345E+04  0.88312876428E+03 0.  0.
        -24    2    4    4    0    0 -0.12728231994E+03  0.50291364138E+02  0.16811946175E+04  0.16886550195E+04  0.80065115542E+02 0.  0.
         24    2    4    4    0    0  0.19911710714E+03 -0.29069680815E+03  0.21942768884E+03  0.42208811498E+03  0.76535021766E+02 0.  0.
         11    1    3    3    0    0 -0.37601857478E+02  0.15201311230E+03  0.10649800497E+04  0.10764313226E+04  0.00000000000E+00 0. -1.
        -11    1    3    3    0    0 -0.34232929721E+02  0.88392331715E+02  0.29447592300E+03  0.30935605217E+03  0.00000000000E+00 0.  1.
          2    1    6    6  502    0  0.16435805161E+03 -0.27684835210E+03  0.20654035184E+03  0.38251470054E+03  0.00000000000E+00 0. -1.
          1    1    5    5  503    0 -0.10889191427E+03  0.28219171884E+02  0.15620655902E+04  0.15661106853E+04  0.00000000000E+00 0. -1.
         -2    1    5    5    0  503 -0.18390405663E+02  0.22072192255E+02  0.11912902737E+03  0.12254433423E+03  0.00000000000E+00 0.  1.
         -3    1    6    6    0  502  0.34759055521E+02 -0.13848456050E+02  0.12887337003E+02  0.39573414444E+02  0.00000000000E+00 0.  1.
<mgrwt>
<rscale>  0 0.12639680E+04</rscale>
<asrwt>0</asrwt>
<pdfrwt beam="1">  1        2 0.51973906E+00 0.12639680E+04</pdfrwt>
<pdfrwt beam="2">  1       -2 0.18188636E-01 0.12639680E+04</pdfrwt>
<totfact> 0.24943477E+01</totfact>
</mgrwt>
</event>
<event>
12    1  0.1549527E-007  0.2586150E+04  0.7818608E-02  0.8372921E-01
          3   -1    0    0  501    0  0.00000000000E+00  0.00000000000E+00  0.33216601098E+04  0.33216601098E+04  0.00000000000E+00 0. -1.
         -3   -1    0    0    0  501 -0.00000000000E+00 -0.00000000000E+00 -0.50337557465E+03  0.50337557465E+03  0.00000000000E+00 0.  1.
         23    2    1    2    0    0  0.57015998417E+03  0.61381605821E+03  0.11072962048E+03  0.85009161023E+03  0.92423677022E+02 0.  0.
        254    2    1    2    0    0 -0.57015998417E+03 -0.61381605821E+03  0.27075549147E+04  0.29749440743E+04  0.90420466042E+03 0.  0.
        -24    2    4    4    0    0 -0.39731083401E+03 -0.77114282863E+03  0.25147237713E+04  0.26613417808E+04  0.79920381978E+02 0.  0.
         24    2    4    4    0    0 -0.17284915016E+03  0.15732677042E+03  0.19283114339E+03  0.31360229341E+03  0.80833205861E+02 0.  0.
         11    1    3    3    0    0  0.52063251124E+03  0.56257664774E+03  0.74451785802E+02  0.77012581099E+03  0.00000000000E+00 0. -1.
        -11    1    3    3    0    0  0.49527472926E+02  0.51239410466E+02  0.36277834674E+02  0.79965799239E+02  0.00000000000E+00 0.  1.
          2    1    6    6  502    0  0.14138497301E+01  0.31014614784E+02  0.34488557408E+02  0.46404373645E+02  0.00000000000E+00 0. -1.
          1    1    5    5  503    0 -0.12039962605E+03 -0.16618965191E+03  0.55135323057E+03  0.58830727958E+03  0.00000000000E+00 0. -1.
         -2    1    5    5    0  503 -0.27691120796E+03 -0.60495317672E+03  0.19633705408E+04  0.20730345013E+04  0.00000000000E+00 0.  1.
         -1    1    6    6    0  502 -0.17426299989E+03  0.12631215564E+03  0.15834258598E+03  0.26719791977E+03  0.00000000000E+00 0.  1.
<mgrwt>
<rscale>  0 0.25861497E+04</rscale>
<asrwt>0</asrwt>
<pdfrwt beam="1">  1        3 0.51102462E+00 0.25861497E+04</pdfrwt>
<pdfrwt beam="2">  1       -3 0.77442398E-01 0.25861497E+04</pdfrwt>
<totfact> 0.10914374E-02</totfact>
</mgrwt>
</event>
<event>
12    1  0.1549527E-007  0.1671749E+04  0.7818608E-02  0.8777643E-01
          1   -1    0    0  501    0  0.00000000000E+00  0.00000000000E+00  0.15622119958E+04  0.15622119958E+04  0.00000000000E+00 0. -1.
         -1   -1    0    0    0  501 -0.00000000000E+00 -0.00000000000E+00 -0.44724162172E+03  0.44724162172E+03  0.00000000000E+00 0.  1.
         23    2    1    2    0    0 -0.36140492323E+02 -0.38778128979E+03  0.92755831963E+03  0.10100549541E+04  0.90366532147E+02 0.  0.
        254    2    1    2    0    0  0.36140492323E+02  0.38778128979E+03  0.18741205447E+03  0.99939866341E+03  0.90110706710E+03 0.  0.
        -24    2    4    4    0    0  0.30323950858E+03  0.16813280600E+03 -0.25036930476E+03  0.43524956642E+03  0.80836602383E+02 0.  0.
         24    2    4    4    0    0 -0.26709901625E+03  0.21964848379E+03  0.43778135924E+03  0.56414909700E+03  0.83811360983E+02 0.  0.
         11    1    3    3    0    0 -0.17490100518E+02 -0.37822981394E+03  0.87097210583E+03  0.94971369629E+03  0.00000000000E+00 0. -1.
        -11    1    3    3    0    0 -0.18650391805E+02 -0.95514758463E+01  0.56586213797E+02  0.60341257836E+02  0.00000000000E+00 0.  1.
          2    1    6    6  502    0 -0.25672748752E+03  0.17781616299E+03  0.39337975038E+03  0.50227006548E+03  0.00000000000E+00 0. -1.
          1    1    5    5  503    0  0.21625639967E+03  0.10878601287E+03 -0.12807962112E+03  0.27387153255E+03  0.00000000000E+00 0. -1.
         -2    1    5    5    0  503  0.86983108907E+02  0.59346793125E+02 -0.12228968365E+03  0.16137803387E+03  0.00000000000E+00 0.  1.
         -1    1    6    6    0  502 -0.10371528732E+02  0.41832320805E+02  0.44401608853E+02  0.61879031512E+02  0.00000000000E+00 0.  1.
<mgrwt>
<rscale>  0 0.16717491E+04</rscale>
<asrwt>0</asrwt>
<pdfrwt beam="1">  1        1 0.24034031E+00 0.16717491E+04</pdfrwt>
<pdfrwt beam="2">  1       -1 0.68806404E-01 0.16717491E+04</pdfrwt>
<totfact> 0.12078239E+01</totfact>
</mgrwt>
</event>
<event>
12    1  0.1549527E-007  0.2773326E+04  0.7818608E-02  0.8311598E-01
         -2   -1    0    0    0  501 -0.00000000000E+00  0.00000000000E+00  0.41879771120E+03  0.41879771120E+03  0.00000000000E+00 0.  1.
          2   -1    0    0  501    0  0.00000000000E+00 -0.00000000000E+00 -0.45913200001E+04  0.45913200001E+04  0.00000000000E+00 0. -1.
         23    2    1    2    0    0 -0.11527242568E+04  0.43747631138E+03 -0.21308992077E+04  0.24635547634E+04  0.90619554116E+02 0.  0.
        254    2    1    2    0    0  0.11527242568E+04 -0.43747631138E+03 -0.20416230812E+04  0.25465629480E+04  0.89252412112E+03 0.  0.
        -24    2    4    4    0    0  0.65937840421E+03  0.21436316111E+03 -0.10163682758E+04  0.12328917443E+04  0.79285158492E+02 0.  0.
         24    2    4    4    0    0  0.49334585259E+03 -0.65183947249E+03 -0.10252548055E+04  0.13136712037E+04  0.79371197712E+02 0.  0.
         13    1    3    3    0    0 -0.28672296819E+03  0.15045349162E+03 -0.57496174906E+03  0.65986917379E+03  0.00000000000E+00 0. -1.
        -13    1    3    3    0    0 -0.86600128861E+03  0.28702281976E+03 -0.15559374586E+04  0.18036855896E+04  0.00000000000E+00 0.  1.
          4    1    6    6  502    0  0.62731079028E+02 -0.10656171133E+03 -0.19680944893E+03  0.23243180889E+03  0.00000000000E+00 0. -1.
          3    1    5    5  503    0  0.37449182838E+03  0.13549560988E+03 -0.64780957891E+03  0.76043437610E+03  0.00000000000E+00 0. -1.
         -4    1    5    5    0  503  0.28488657584E+03  0.78867551236E+02 -0.36855869685E+03  0.47245736818E+03  0.00000000000E+00 0.  1.
         -3    1    6    6    0  502  0.43061477356E+03 -0.54527776116E+03 -0.82844535656E+03  0.10812393948E+04  0.00000000000E+00 0.  1.
<mgrwt>
<rscale>  0 0.27733260E+04</rscale>
<asrwt>0</asrwt>
<pdfrwt beam="1">  1        2 0.70635695E+00 0.27733260E+04</pdfrwt>
<pdfrwt beam="2">  1       -2 0.64430415E-01 0.27733260E+04</pdfrwt>
<totfact> 0.19391803E-01</totfact>
</mgrwt>
</event>
<event>
12    1  0.1549527E-007  0.1540224E+04  0.7818608E-02  0.8858136E-01
          1   -1    0    0  501    0  0.00000000000E+00  0.00000000000E+00  0.18523825021E+04  0.18523825021E+04  0.00000000000E+00 0. -1.
         -1   -1    0    0    0  501 -0.00000000000E+00 -0.00000000000E+00 -0.32016735151E+03  0.32016735151E+03  0.00000000000E+00 0.  1.
         23    2    1    2    0    0 -0.24292673608E+03 -0.42385233175E+03  0.30373105908E+03  0.58233354870E+03  0.90529594353E+02 0.  0.
        254    2    1    2    0    0  0.24292673608E+03  0.42385233175E+03  0.12284840915E+04  0.15902163049E+04  0.88371405730E+03 0.  0.
        -24    2    4    4    0    0  0.46508464601E+03  0.33910643392E+03  0.35375780424E+03  0.68032292747E+03  0.79986249462E+02 0.  0.
         24    2    4    4    0    0 -0.22215790993E+03  0.84745897835E+02  0.87472628722E+03  0.90989337740E+03  0.78891549178E+02 0.  0.
         11    1    3    3    0    0 -0.19405346156E+03 -0.28914409334E+03  0.25255835711E+03  0.43017063638E+03  0.00000000000E+00 0. -1.
        -11    1    3    3    0    0 -0.48873274522E+02 -0.13470823841E+03  0.51172701974E+02  0.15216291232E+03  0.00000000000E+00 0.  1.
          2    1    6    6  502    0 -0.96603801164E+02  0.79055275591E+02  0.43955431080E+03  0.45693546934E+03  0.00000000000E+00 0. -1.
          1    1    5    5  503    0  0.27931519535E+03  0.16146897179E+03  0.17289559564E+03  0.36603564607E+03  0.00000000000E+00 0. -1.
         -2    1    5    5    0  503  0.18576945067E+03  0.17763746213E+03  0.18086220860E+03  0.31428728140E+03  0.00000000000E+00 0.  1.
         -1    1    6    6    0  502 -0.12555410877E+03  0.56906222450E+01  0.43517197643E+03  0.45295790806E+03  0.00000000000E+00 0.  1.
<mgrwt>
<rscale>  0 0.15402239E+04</rscale>
<asrwt>0</asrwt>
<pdfrwt beam="1">  1        1 0.28498192E+00 0.15402239E+04</pdfrwt>
<pdfrwt beam="2">  1       -1 0.49256517E-01 0.15402239E+04</pdfrwt>
<totfact> 0.14950334E+01</totfact>
</mgrwt>
</event>
<event>
12    1  0.1664010E-007  0.1344377E+04  0.7818608E-02  0.8995096E-01
         -1   -1    0    0    0  501 -0.00000000000E+00  0.00000000000E+00  0.38811214451E+03  0.38811214451E+03  0.00000000000E+00 0. -1.
          1   -1    0    0  501    0  0.00000000000E+00 -0.00000000000E+00 -0.11641929688E+04  0.11641929688E+04  0.00000000000E+00 0.  1.
         23    2    1    2    0    0 -0.50989199230E+01 -0.57720938306E+02 -0.65358685890E+03  0.66261072150E+03  0.92301031504E+02 0.  0.
        254    2    1    2    0    0  0.50989199230E+01  0.57720938306E+02 -0.12249396543E+03  0.88969439185E+03  0.87931429740E+03 0.  0.
        -24    2    4    4    0    0  0.21462000348E+03 -0.90955264863E+02  0.30036171645E+03  0.38852858525E+03  0.80016840387E+02 0.  0.
         24    2    4    4    0    0 -0.20952108355E+03  0.14867620317E+03 -0.42285568188E+03  0.50116580660E+03  0.79727913327E+02 0.  0.
         11    1    3    3    0    0 -0.24720318968E+02 -0.36928758262E+02 -0.60194911003E+03  0.60358724177E+03  0.00000000000E+00 0.  1.
        -11    1    3    3    0    0  0.19621399045E+02 -0.20792180044E+02 -0.51637748866E+02  0.59023479730E+02  0.00000000000E+00 0. -1.
          4    1    6    6  502    0 -0.63747853012E+02  0.39989653360E+02 -0.63653756114E+02  0.98563491248E+02  0.00000000000E+00 0. -1.
          1    1    5    5  503    0  0.50676014525E+02  0.12981728344E+02  0.61640676259E+02  0.80846500781E+02  0.00000000000E+00 0. -1.
         -2    1    5    5    0  503  0.16394398895E+03 -0.10393699321E+03  0.23872104019E+03  0.30768208447E+03  0.00000000000E+00 0.  1.
         -3    1    6    6    0  502 -0.14577323054E+03  0.10868654981E+03 -0.35920192577E+03  0.40260231535E+03  0.00000000000E+00 0.  1.
<mgrwt>
<rscale>  0 0.13443771E+04</rscale>
<asrwt>0</asrwt>
<pdfrwt beam="1">  1        1 0.17910661E+00 0.13443771E+04</pdfrwt>
<pdfrwt beam="2">  1       -1 0.59709561E-01 0.13443771E+04</pdfrwt>
<totfact> 0.31616525E+01</totfact>
</mgrwt>
</event>
<event>
12    1  0.1549527E-007  0.3394101E+04  0.7818608E-02  0.8139356E-01
         -1   -1    0    0    0  501 -0.00000000000E+00  0.00000000000E+00  0.22292605540E+04  0.22292605540E+04  0.00000000000E+00 0.  1.
          1   -1    0    0  501    0  0.00000000000E+00 -0.00000000000E+00 -0.12918995445E+04  0.12918995445E+04  0.00000000000E+00 0. -1.
         23    2    1    2    0    0 -0.30676266821E+03 -0.12716822100E+04  0.13495789921E+04  0.18818050614E+04  0.92454613228E+02 0.  0.
        254    2    1    2    0    0  0.30676266821E+03  0.12716822100E+04 -0.41221798249E+03  0.16393550371E+04  0.89793223289E+03 0.  0.
        -24    2    4    4    0    0 -0.31087819611E+03  0.50287937048E+03 -0.14514979046E+03  0.61466789297E+03  0.84942585939E+02 0.  0.
         24    2    4    4    0    0  0.61764086431E+03  0.76880283949E+03 -0.26706819202E+03  0.10246871441E+04  0.78232224229E+02 0.  0.
         11    1    3    3    0    0 -0.16247480323E+03 -0.54286245262E+03  0.53533794678E+03  0.77954116082E+03  0.00000000000E+00 0.  1.
        -11    1    3    3    0    0 -0.14428786497E+03 -0.72881975735E+03  0.81424104528E+03  0.11022639006E+04  0.00000000000E+00 0. -1.
          2    1    6    6  502    0  0.48209039828E+00  0.67604086979E+00  0.29096989006E+01  0.30258536154E+01  0.00000000000E+00 0. -1.
          3    1    5    5  503    0 -0.12105455233E+03  0.18540495470E+03 -0.96672884926E+02  0.24160887514E+03  0.00000000000E+00 0. -1.
         -4    1    5    5    0  503 -0.18982364377E+03  0.31747441579E+03 -0.48476905538E+02  0.37305901783E+03  0.00000000000E+00 0.  1.
         -1    1    6    6    0  502  0.61715877391E+03  0.76812679862E+03 -0.26997789092E+03  0.10216612905E+04  0.00000000000E+00 0.  1.
<mgrwt>
<rscale>  0 0.33941012E+04</rscale>
<asrwt>0</asrwt>
<pdfrwt beam="1">  1        1 0.19875378E+00 0.33941012E+04</pdfrwt>
<pdfrwt beam="2">  1       -1 0.34296316E+00 0.33941012E+04</pdfrwt>
<totfact> 0.13046450E-01</totfact>
</mgrwt>
</event>
<event>
12    1  0.1549527E-007  0.1774244E+04  0.7818608E-02  0.8720118E-01
          1   -1    0    0  501    0  0.00000000000E+00  0.00000000000E+00  0.16500602907E+04  0.16500602907E+04  0.00000000000E+00 0. -1.
         -1   -1    0    0    0  501 -0.00000000000E+00 -0.00000000000E+00 -0.47694326140E+03  0.47694326140E+03  0.00000000000E+00 0.  1.
         23    2    1    2    0    0  0.54662831604E+03 -0.60386816527E+01  0.89385704972E+03  0.10522021308E+04  0.96487911919E+02 0.  0.
        254    2    1    2    0    0 -0.54662831604E+03  0.60386816527E+01  0.27925997962E+03  0.10748014213E+04  0.88225448569E+03 0.  0.
        -24    2    4    4    0    0 -0.25396525662E+03  0.29771371867E+03  0.46740169895E+03  0.61406452406E+03  0.74020819191E+02 0.  0.
         24    2    4    4    0    0 -0.29266305942E+03 -0.29167503702E+03 -0.18814171933E+03  0.46073689728E+03  0.78455008737E+02 0.  0.
         13    1    3    3    0    0  0.45579182155E+03 -0.32236251334E+02  0.69120185410E+03  0.82858033021E+03  0.00000000000E+00 0. -1.
        -13    1    3    3    0    0  0.90836494495E+02  0.26197569681E+02  0.20265519561E+03  0.22362180059E+03  0.00000000000E+00 0.  1.
          2    1    6    6  502    0 -0.19175345206E+03 -0.23962831682E+03 -0.13231095132E+03  0.33421146665E+03  0.00000000000E+00 0. -1.
          1    1    5    5  503    0 -0.17989139649E+03  0.15852375741E+03  0.26257216777E+03  0.35557677017E+03  0.00000000000E+00 0. -1.
         -2    1    5    5    0  503 -0.74073860133E+02  0.13918996126E+03  0.20482953117E+03  0.25848775389E+03  0.00000000000E+00 0.  1.
         -1    1    6    6    0  502 -0.10090960736E+03 -0.52046720199E+02 -0.55830768011E+02  0.12652543064E+03  0.00000000000E+00 0.  1.
<mgrwt>
<rscale>  0 0.17742437E+04</rscale>
<asrwt>0</asrwt>
<pdfrwt beam="1">  1        1 0.25385543E+00 0.17742437E+04</pdfrwt>
<pdfrwt beam="2">  1       -1 0.73375887E-01 0.17742437E+04</pdfrwt>
<totfact> 0.91247652E+00</totfact>
</mgrwt>
</event>
<event>
12    1  0.1549527E-007  0.2570279E+04  0.7818608E-02  0.8378367E-01
         -1   -1    0    0    0  501 -0.00000000000E+00  0.00000000000E+00  0.16744038245E+04  0.16744038245E+04  0.00000000000E+00 0.  1.
          1   -1    0    0  501    0  0.00000000000E+00 -0.00000000000E+00 -0.98637129004E+03  0.98637129004E+03  0.00000000000E+00 0. -1.
         23    2    1    2    0    0 -0.99009423673E+03  0.44219530366E+03  0.59985981084E+03  0.12426996632E+04  0.92991269122E+02 0.  0.
        254    2    1    2    0    0  0.99009423673E+03 -0.44219530366E+03  0.88172723660E+02  0.14180754514E+04  0.90958247144E+03 0.  0.
        -24    2    4    4    0    0  0.85785603565E+02 -0.35641593791E+03 -0.24366931639E+03  0.44772975751E+03  0.81827314743E+02 0.  0.
         24    2    4    4    0    0  0.90430863316E+03 -0.85779365753E+02  0.33184204005E+03  0.97034569384E+03  0.79494794853E+02 0.  0.
         11    1    3    3    0    0 -0.71204121994E+03  0.29207053118E+03  0.38467493010E+03  0.86039682468E+03  0.00000000000E+00 0.  1.
        -11    1    3    3    0    0 -0.27805301679E+03  0.15012477248E+03  0.21518488074E+03  0.38230283854E+03  0.00000000000E+00 0. -1.
          4    1    6    6  502    0  0.90429094477E+03 -0.81935165669E+02  0.33040791639E+03  0.96624265864E+03  0.00000000000E+00 0. -1.
          1    1    5    5  503    0  0.49052444180E+02 -0.31513824329E+03 -0.19315058794E+03  0.37286110589E+03  0.00000000000E+00 0. -1.
         -2    1    5    5    0  503  0.36733159384E+02 -0.41277694614E+02 -0.50518728450E+02  0.74868651619E+02  0.00000000000E+00 0.  1.
         -3    1    6    6    0  502  0.17688392530E-01 -0.38442000844E+01  0.14341236609E+01  0.41030351988E+01  0.00000000000E+00 0.  1.
<mgrwt>
<rscale>  0 0.25702793E+04</rscale>
<asrwt>0</asrwt>
<pdfrwt beam="1">  1        1 0.15174943E+00 0.25702793E+04</pdfrwt>
<pdfrwt beam="2">  1       -1 0.25760059E+00 0.25702793E+04</pdfrwt>
<totfact> 0.85170153E-01</totfact>
</mgrwt>
</event>
<event>
12    1  0.1549527E-007  0.1362807E+04  0.7818608E-02  0.8981190E-01
          2   -1    0    0  501    0  0.00000000000E+00  0.00000000000E+00  0.39838418659E+03  0.39838418659E+03  0.00000000000E+00 0. -1.
         -2   -1    0    0    0  501 -0.00000000000E+00 -0.00000000000E+00 -0.11654840506E+04  0.11654840506E+04  0.00000000000E+00 0.  1.
         23    2    1    2    0    0  0.15849771171E+03 -0.21585515571E+02 -0.62693478086E+03  0.65347954573E+03  0.91656086164E+02 0.  0.
        254    2    1    2    0    0 -0.15849771171E+03  0.21585515571E+02 -0.14016508315E+03  0.91038869145E+03  0.88519707404E+03 0.  0.
        -24    2    4    4    0    0  0.29585479986E+03 -0.76448037179E+02  0.15705100278E+03  0.35282305735E+03  0.80279059135E+02 0.  0.
         24    2    4    4    0    0 -0.45435251157E+03  0.98033552750E+02 -0.29721608592E+03  0.55756563410E+03  0.80593128516E+02 0.  0.
         11    1    3    3    0    0  0.90934939198E+02 -0.14831925375E+02 -0.18843965343E+03  0.20975855682E+03  0.00000000000E+00 0. -1.
        -11    1    3    3    0    0  0.67562772514E+02 -0.67535901968E+01 -0.43849512743E+03  0.44372098890E+03  0.00000000000E+00 0.  1.
          4    1    6    6  502    0 -0.33838491906E+03  0.83588991077E+02 -0.18098852211E+03  0.39274459642E+03  0.00000000000E+00 0. -1.
          3    1    5    5  503    0  0.15332087678E+03 -0.74391677492E+02  0.10945419834E+03  0.20253798278E+03  0.00000000000E+00 0. -1.
         -4    1    5    5    0  503  0.14253392308E+03 -0.20563596865E+01  0.47596804435E+02  0.15028507457E+03  0.00000000000E+00 0.  1.
         -3    1    6    6    0  502 -0.11596759251E+03  0.14444561673E+02 -0.11622756381E+03  0.16482103769E+03  0.00000000000E+00 0.  1.
<mgrwt>
<rscale>  0 0.13628065E+04</rscale>
<asrwt>0</asrwt>
<pdfrwt beam="1">  1        2 0.61289875E-01 0.13628065E+04</pdfrwt>
<pdfrwt beam="2">  1       -2 0.17930524E+00 0.13628065E+04</pdfrwt>
<totfact> 0.14276462E+01</totfact>
</mgrwt>
</event>
<event>
12    1  0.1549527E-007  0.2982534E+04  0.7818608E-02  0.8248736E-01
          2   -1    0    0  501    0  0.00000000000E+00  0.00000000000E+00  0.20376638756E+04  0.20376638756E+04  0.00000000000E+00 0. -1.
         -2   -1    0    0    0  501 -0.00000000000E+00 -0.00000000000E+00 -0.10913857175E+04  0.10913857175E+04  0.00000000000E+00 0.  1.
         23    2    1    2    0    0 -0.40222132013E+03 -0.10694632339E+04  0.11898717679E+04  0.16521683090E+04  0.91278136792E+02 0.  0.
        254    2    1    2    0    0  0.40222132013E+03  0.10694632339E+04 -0.24359360978E+03  0.14768812842E+04  0.90349702925E+03 0.  0.
        -24    2    4    4    0    0  0.12551546372E+03  0.95440971378E+03 -0.48788567005E+03  0.10820368052E+04  0.78225235376E+02 0.  0.
         24    2    4    4    0    0  0.27670585640E+03  0.11505352010E+03  0.24429206027E+03  0.39484447895E+03  0.80125578887E+02 0.  0.
         11    1    3    3    0    0 -0.21976894874E+03 -0.52457133465E+03  0.65026616404E+03  0.86389788752E+03  0.00000000000E+00 0. -1.
        -11    1    3    3    0    0 -0.18245237138E+03 -0.54489189924E+03  0.53960560382E+03  0.78827042147E+03  0.00000000000E+00 0.  1.
          4    1    6    6  502    0  0.13719130222E+03  0.98141474088E+02  0.11755707567E+03  0.20560366821E+03  0.00000000000E+00 0. -1.
          3    1    5    5  503    0  0.34238322715E+02  0.30993946338E+03 -0.11818578301E+03  0.33347055793E+03  0.00000000000E+00 0. -1.
         -2    1    5    5    0  503  0.91277141008E+02  0.64447025041E+03 -0.36969988704E+03  0.74856624731E+03  0.00000000000E+00 0.  1.
         -3    1    6    6    0  502  0.13951455418E+03  0.16912046016E+02  0.12673498460E+03  0.18924081074E+03  0.00000000000E+00 0.  1.
<mgrwt>
<rscale>  0 0.29825340E+04</rscale>
<asrwt>0</asrwt>
<pdfrwt beam="1">  1        2 0.31348675E+00 0.29825340E+04</pdfrwt>
<pdfrwt beam="2">  1       -2 0.16790550E+00 0.29825340E+04</pdfrwt>
<totfact> 0.12040149E+00</totfact>
</mgrwt>
</event>
<event>
12    1  0.1549527E-007  0.1558612E+04  0.7818608E-02  0.8846386E-01
         -2   -1    0    0    0  501 -0.00000000000E+00  0.00000000000E+00  0.35082510940E+03  0.35082510940E+03  0.00000000000E+00 0.  1.
          2   -1    0    0  501    0  0.00000000000E+00 -0.00000000000E+00 -0.17311120999E+04  0.17311120999E+04  0.00000000000E+00 0. -1.
         23    2    1    2    0    0  0.40726212701E+02  0.38927820173E+03 -0.22819511260E+02  0.40613146872E+03  0.10595233385E+03 0.  0.
        254    2    1    2    0    0 -0.40726212701E+02 -0.38927820173E+03 -0.13574674793E+04  0.16758057406E+04  0.90133832726E+03 0.  0.
        -24    2    4    4    0    0 -0.25324439617E+03  0.92462037671E+02 -0.80441882255E+02  0.29212339420E+03  0.78633506939E+02 0.  0.
         24    2    4    4    0    0  0.21251818347E+03 -0.48174023941E+03 -0.12770255970E+04  0.13836823464E+04  0.80900084897E+02 0.  0.
         11    1    3    3    0    0  0.59113088160E+02  0.19430778129E+03 -0.47966741505E+02  0.20868799523E+03  0.00000000000E+00 0. -1.
        -11    1    3    3    0    0 -0.18386875459E+02  0.19497042044E+03  0.25147230245E+02  0.19744347350E+03  0.00000000000E+00 0.  1.
          2    1    6    6  502    0  0.11597039636E+03 -0.32438166184E+03 -0.90550932424E+03  0.96882389094E+03  0.00000000000E+00 0. -1.
          3    1    5    5  503    0 -0.77993901974E+02 -0.27190083518E+01 -0.43352582317E+02  0.89274230016E+02  0.00000000000E+00 0. -1.
         -4    1    5    5    0  503 -0.17525049420E+03  0.95181046023E+02 -0.37089299938E+02  0.20284916418E+03  0.00000000000E+00 0.  1.
         -1    1    6    6    0  502  0.96547787109E+02 -0.15735857756E+03 -0.37151627276E+03  0.41485845545E+03  0.00000000000E+00 0.  1.
<mgrwt>
<rscale>  0 0.15586117E+04</rscale>
<asrwt>0</asrwt>
<pdfrwt beam="1">  1        2 0.26632494E+00 0.15586117E+04</pdfrwt>
<pdfrwt beam="2">  1       -2 0.53973093E-01 0.15586117E+04</pdfrwt>
<totfact> 0.29305759E+01</totfact>
</mgrwt>
</event>
<event>
12    1  0.1549527E-007  0.2402298E+04  0.7818608E-02  0.8438644E-01
         -1   -1    0    0    0  501 -0.00000000000E+00  0.00000000000E+00  0.67981590477E+03  0.67981590477E+03  0.00000000000E+00 0.  1.
          1   -1    0    0  501    0  0.00000000000E+00 -0.00000000000E+00 -0.21222791569E+04  0.21222791569E+04  0.00000000000E+00 0. -1.
         23    2    1    2    0    0  0.90262721975E+03  0.24390097251E+03 -0.11445590381E+03  0.94582602803E+03  0.85224052671E+02 0.  0.
        254    2    1    2    0    0 -0.90262721975E+03 -0.24390097251E+03 -0.13280073484E+04  0.18562690337E+04  0.89883681826E+03 0.  0.
        -24    2    4    4    0    0  0.10168403994E+03  0.42288491926E+02  0.32605738803E+02  0.13924111445E+03  0.78720983370E+02 0.  0.
         24    2    4    4    0    0 -0.10043112597E+04 -0.28618946444E+03 -0.13606130872E+04  0.17170279192E+04  0.79820965627E+02 0.  0.
         13    1    3    3    0    0  0.79420938733E+03  0.18823898150E+03 -0.86447817221E+02  0.82077749128E+03  0.00000000000E+00 0.  1.
        -13    1    3    3    0    0  0.10841783242E+03  0.55661991012E+02 -0.28008086589E+02  0.12504853675E+03  0.00000000000E+00 0. -1.
          2    1    6    6  502    0 -0.92089738561E+03 -0.28473182833E+03 -0.12517746351E+04  0.15798936502E+04  0.00000000000E+00 0. -1.
          1    1    5    5  503    0  0.11262027064E+03  0.25834043093E+02  0.26284542259E+02  0.11849725863E+03  0.00000000000E+00 0. -1.
         -2    1    5    5    0  503 -0.10936230703E+02  0.16454448833E+02  0.63211965441E+01  0.20743855817E+02  0.00000000000E+00 0.  1.
         -3    1    6    6    0  502 -0.83413874081E+02 -0.14576361053E+01 -0.10883845210E+03  0.13713426905E+03  0.00000000000E+00 0.  1.
<mgrwt>
<rscale>  0 0.24022982E+04</rscale>
<asrwt>0</asrwt>
<pdfrwt beam="1">  1        1 0.32650449E+00 0.24022982E+04</pdfrwt>
<pdfrwt beam="2">  1       -1 0.10458706E+00 0.24022982E+04</pdfrwt>
<totfact> 0.18941032E+00</totfact>
</mgrwt>
</event>
<event>
12    1  0.1549527E-007  0.1449439E+04  0.7818608E-02  0.8918790E-01
         -2   -1    0    0    0  501 -0.00000000000E+00  0.00000000000E+00  0.17430640402E+03  0.17430640402E+03  0.00000000000E+00 0. -1.
          2   -1    0    0  501    0  0.00000000000E+00 -0.00000000000E+00 -0.30131895681E+04  0.30131895681E+04  0.00000000000E+00 0.  1.
         23    2    1    2    0    0  0.10509845882E+02  0.27757893600E+03 -0.16265085005E+04  0.16525900463E+04  0.91451825349E+02 0.  0.
        254    2    1    2    0    0 -0.10509845882E+02 -0.27757893600E+03 -0.12123746636E+04  0.15349059258E+04  0.89940166425E+03 0.  0.
        -24    2    4    4    0    0 -0.15824830413E+03 -0.57222476669E+03 -0.83288025482E+03  0.10261421549E+04  0.82428719270E+02 0.  0.
         24    2    4    4    0    0  0.14773845824E+03  0.29464583069E+03 -0.37949440876E+03  0.50876377095E+03  0.78624110574E+02 0.  0.
         13    1    3    3    0    0  0.71006490685E+01  0.58331583670E+02 -0.17474829283E+03  0.18436365889E+03  0.00000000000E+00 0. -1.
        -13    1    3    3    0    0  0.34091968137E+01  0.21924735233E+03 -0.14517602077E+04  0.14682263874E+04  0.00000000000E+00 0.  1.
          4    1    6    6  502    0 -0.53188504664E+01  0.29089561127E+01 -0.21102786299E+02  0.21956315391E+02  0.00000000000E+00 0. -1.
          3    1    5    5  503    0 -0.37503428873E+01 -0.12071932870E+03 -0.14107867394E+03  0.18571594879E+03  0.00000000000E+00 0. -1.
         -4    1    5    5    0  503 -0.15449796124E+03 -0.45150543799E+03 -0.69180158088E+03  0.84042620608E+03  0.00000000000E+00 0.  1.
         -3    1    6    6    0  502  0.15305730871E+03  0.29173687458E+03 -0.35839162246E+03  0.48680745555E+03  0.00000000000E+00 0.  1.
<mgrwt>
<rscale>  0 0.14494388E+04</rscale>
<asrwt>0</asrwt>
<pdfrwt beam="1">  1        2 0.46356763E+00 0.14494388E+04</pdfrwt>
<pdfrwt beam="2">  1       -2 0.26816370E-01 0.14494388E+04</pdfrwt>
<totfact> 0.21087048E+01</totfact>
</mgrwt>
</event>
<event>
12    1  0.1549527E-007  0.1208026E+04  0.7818608E-02  0.9105860E-01
         -3   -1    0    0    0  501 -0.00000000000E+00  0.00000000000E+00  0.30571766783E+03  0.30571766783E+03  0.00000000000E+00 0.  1.
          3   -1    0    0  501    0  0.00000000000E+00 -0.00000000000E+00 -0.11933617938E+04  0.11933617938E+04  0.00000000000E+00 0. -1.
         23    2    1    2    0    0 -0.64510073730E+02 -0.23734185044E+03 -0.15672314668E+03  0.30557324458E+03  0.91214908417E+02 0.  0.
        254    2    1    2    0    0  0.64510073730E+02  0.23734185044E+03 -0.73092097927E+03  0.11935062170E+04  0.91088907588E+03 0.  0.
        -24    2    4    4    0    0  0.42650205554E+03  0.18797931885E+03 -0.13929988987E+03  0.49283465071E+03  0.79001936215E+02 0.  0.
         24    2    4    4    0    0 -0.36199198181E+03  0.49362531590E+02 -0.59162108941E+03  0.70067156632E+03  0.86314981301E+02 0.  0.
         13    1    3    3    0    0 -0.74508603187E+02 -0.13852339444E+03 -0.64383438196E+02  0.16995731779E+03  0.00000000000E+00 0. -1.
        -13    1    3    3    0    0  0.99985294573E+01 -0.98818456003E+02 -0.92339708487E+02  0.13561592680E+03  0.00000000000E+00 0.  1.
          4    1    6    6  502    0 -0.31051893069E+03  0.72147361928E+02 -0.49215644030E+03  0.58638315962E+03  0.00000000000E+00 0. -1.
          3    1    5    5  503    0  0.23567024761E+03  0.68986896790E+02 -0.48492008807E+02  0.25030208240E+03  0.00000000000E+00 0. -1.
         -4    1    5    5    0  503  0.19083180793E+03  0.11899242206E+03 -0.90807881061E+02  0.24253256830E+03  0.00000000000E+00 0.  1.
         -3    1    6    6    0  502 -0.51473051115E+02 -0.22784830338E+02 -0.99464649108E+02  0.11428840670E+03  0.00000000000E+00 0.  1.
<mgrwt>
<rscale>  0 0.12080261E+04</rscale>
<asrwt>0</asrwt>
<pdfrwt beam="1">  1        3 0.18359412E+00 0.12080261E+04</pdfrwt>
<pdfrwt beam="2">  1       -3 0.47033487E-01 0.12080261E+04</pdfrwt>
<totfact> 0.21855185E+00</totfact>
</mgrwt>
</event>
<event>
12    1  0.1549527E-007  0.1167480E+04  0.7818608E-02  0.9141808E-01
         -1   -1    0    0    0  501 -0.00000000000E+00  0.00000000000E+00  0.49582601687E+03  0.49582601687E+03  0.00000000000E+00 0.  1.
          1   -1    0    0  501    0  0.00000000000E+00 -0.00000000000E+00 -0.68724152417E+03  0.68724152417E+03  0.00000000000E+00 0. -1.
         23    2    1    2    0    0 -0.26899981019E+02  0.18923091642E+03  0.83341360039E+02  0.22737194605E+03  0.90665709335E+02 0.  0.
        254    2    1    2    0    0  0.26899981019E+02 -0.18923091642E+03 -0.27475686734E+03  0.95569559499E+03  0.89517081354E+03 0.  0.
        -24    2    4    4    0    0 -0.66591839361E+02 -0.16355164362E+03 -0.58809940869E+03  0.61913469058E+03  0.79266874446E+02 0.  0.
         24    2    4    4    0    0  0.93491820380E+02 -0.25679272804E+02  0.31334254134E+03  0.33656090441E+03  0.75429096706E+02 0.  0.
         13    1    3    3    0    0  0.12369848983E+02  0.26305606937E+02 -0.15358334523E+02  0.32876687174E+02  0.00000000000E+00 0. -1.
        -13    1    3    3    0    0 -0.39269830002E+02  0.16292530949E+03  0.98699694562E+02  0.19449525888E+03  0.00000000000E+00 0.  1.
          4    1    6    6  502    0  0.76306408473E+02 -0.50830945779E+02  0.24977293437E+03  0.26606948673E+03  0.00000000000E+00 0. -1.
          3    1    5    5  503    0 -0.46731385670E+02 -0.41800597110E+02 -0.28653272518E+03  0.29331231635E+03  0.00000000000E+00 0. -1.
         -4    1    5    5    0  503 -0.19860453691E+02 -0.12175104651E+03 -0.30156668351E+03  0.32582237423E+03  0.00000000000E+00 0.  1.
         -3    1    6    6    0  502  0.17185411907E+02  0.25151672975E+02  0.63569606968E+02  0.70491417675E+02  0.00000000000E+00 0.  1.
<mgrwt>
<rscale>  0 0.11674797E+04</rscale>
<asrwt>0</asrwt>
<pdfrwt beam="1">  1        1 0.10572946E+00 0.11674797E+04</pdfrwt>
<pdfrwt beam="2">  1       -1 0.76280926E-01 0.11674797E+04</pdfrwt>
<totfact> 0.47974104E+01</totfact>
</mgrwt>
</event>
<event>
12    1  0.1549527E-007  0.1823577E+04  0.7818608E-02  0.8693861E-01
          1   -1    0    0  501    0  0.00000000000E+00  0.00000000000E+00  0.22917026948E+04  0.22917026948E+04  0.00000000000E+00 0. -1.
         -1   -1    0    0    0  501 -0.00000000000E+00 -0.00000000000E+00 -0.36276864814E+03  0.36276864814E+03  0.00000000000E+00 0.  1.
         23    2    1    2    0    0 -0.12578187681E+03  0.34227274303E+03  0.16106942489E+04  0.16539787755E+04  0.91313280540E+02 0.  0.
        254    2    1    2    0    0  0.12578187681E+03 -0.34227274303E+03  0.31823979767E+03  0.10004925674E+04  0.87563525361E+03 0.  0.
        -24    2    4    4    0    0  0.70034867814E+02 -0.24061722163E+03  0.61649334684E+03  0.67035067302E+03  0.80650158467E+02 0.  0.
         24    2    4    4    0    0  0.55747008992E+02 -0.10165552140E+03 -0.29825354917E+03  0.33014189434E+03  0.81221405825E+02 0.  0.
         11    1    3    3    0    0 -0.10275120417E+03  0.22964735440E+03  0.12617048578E+04  0.12865437675E+04  0.00000000000E+00 0. -1.
        -11    1    3    3    0    0 -0.23030672637E+02  0.11262538863E+03  0.34898939111E+03  0.36743500807E+03  0.00000000000E+00 0.  1.
          2    1    6    6  502    0 -0.18176140983E+02 -0.20711644320E+02 -0.98554276518E+02  0.10233420607E+03  0.00000000000E+00 0. -1.
          1    1    5    5  503    0  0.52600447138E+02 -0.20849249156E+03  0.58053457704E+03  0.61907699134E+03  0.00000000000E+00 0. -1.
         -2    1    5    5    0  503  0.17434420677E+02 -0.32124730074E+02  0.35958769805E+02  0.51273681676E+02  0.00000000000E+00 0.  1.
         -1    1    6    6    0  502  0.73923149975E+02 -0.80943877079E+02 -0.19969927265E+03  0.22780768827E+03  0.00000000000E+00 0.  1.
<mgrwt>
<rscale>  0 0.18235766E+04</rscale>
<asrwt>0</asrwt>
<pdfrwt beam="1">  1        1 0.35256964E+00 0.18235766E+04</pdfrwt>
<pdfrwt beam="2">  1       -1 0.55810563E-01 0.18235766E+04</pdfrwt>
<totfact> 0.57693555E+00</totfact>
</mgrwt>
</event>
<event>
12    1  0.1549527E-007  0.1396051E+04  0.7818608E-02  0.8956682E-01
          2   -1    0    0  501    0  0.00000000000E+00  0.00000000000E+00  0.77785687366E+03  0.77785687366E+03  0.00000000000E+00 0. -1.
         -2   -1    0    0    0  501 -0.00000000000E+00 -0.00000000000E+00 -0.62638736600E+03  0.62638736600E+03  0.00000000000E+00 0.  1.
         23    2    1    2    0    0 -0.12066574372E+03 -0.36007110019E+03  0.21586337047E+03  0.44682623102E+03  0.94049280262E+02 0.  0.
        254    2    1    2    0    0  0.12066574372E+03  0.36007110019E+03 -0.64393862820E+02  0.95741800864E+03  0.87652225004E+03 0.  0.
        -24    2    4    4    0    0  0.31433645583E+03  0.54023276943E+03  0.97197057933E+02  0.63756247636E+03  0.79873591163E+02 0.  0.
         24    2    4    4    0    0 -0.19367071210E+03 -0.18016166924E+03 -0.16159092075E+03  0.31985553228E+03  0.78926320510E+02 0.  0.
         11    1    3    3    0    0 -0.90781720361E+02 -0.17385990003E+03  0.69439389033E+02  0.20806348632E+03  0.00000000000E+00 0. -1.
        -11    1    3    3    0    0 -0.29884023364E+02 -0.18621120015E+03  0.14642398144E+03  0.23876274470E+03  0.00000000000E+00 0.  1.
          2    1    6    6  502    0 -0.19614957779E+03 -0.16066732717E+03 -0.16069087512E+03  0.30018361753E+03  0.00000000000E+00 0. -1.
          3    1    5    5  503    0  0.27480623073E+03  0.50910242693E+03  0.78280972582E+02  0.58380789325E+03  0.00000000000E+00 0. -1.
         -4    1    5    5    0  503  0.39530225100E+02  0.31130342504E+02  0.18916085351E+02  0.53754583115E+02  0.00000000000E+00 0.  1.
         -1    1    6    6    0  502  0.24788656834E+01 -0.19494342072E+02 -0.90004563768E+00  0.19671914753E+02  0.00000000000E+00 0.  1.
<mgrwt>
<rscale>  0 0.13960512E+04</rscale>
<asrwt>0</asrwt>
<pdfrwt beam="1">  1        2 0.11967029E+00 0.13960512E+04</pdfrwt>
<pdfrwt beam="2">  1       -2 0.96367287E-01 0.13960512E+04</pdfrwt>
<totfact> 0.31381324E+01</totfact>
</mgrwt>
</event>
<event>
12    1  0.1549527E-007  0.1703908E+04  0.7818608E-02  0.8759138E-01
         -1   -1    0    0    0  501 -0.00000000000E+00  0.00000000000E+00  0.26789878114E+04  0.26789878114E+04  0.00000000000E+00 0.  1.
          1   -1    0    0  501    0  0.00000000000E+00 -0.00000000000E+00 -0.27093287844E+03  0.27093287844E+03  0.00000000000E+00 0. -1.
         23    2    1    2    0    0 -0.41096848493E+03  0.13256563156E+03  0.16252335065E+04  0.16840467198E+04  0.90336379533E+02 0.  0.
        254    2    1    2    0    0  0.41096848493E+03 -0.13256563156E+03  0.78282142642E+03  0.12658739700E+04  0.89619126311E+03 0.  0.
        -24    2    4    4    0    0  0.21010304468E+03 -0.48062041009E+03  0.23221160590E+03  0.57953597189E+03  0.82464809565E+02 0.  0.
         24    2    4    4    0    0  0.20086544025E+03  0.34805477854E+03  0.55060982052E+03  0.68633799814E+03  0.79997620554E+02 0.  0.
         13    1    3    3    0    0 -0.13518850368E+03  0.18495923165E+02  0.65016170134E+03  0.66432542371E+03  0.00000000000E+00 0.  1.
        -13    1    3    3    0    0 -0.27577998125E+03  0.11406970839E+03  0.97507180515E+03  0.10197212961E+04  0.00000000000E+00 0. -1.
          4    1    6    6  502    0  0.14529700345E+03  0.26540711939E+03  0.46622264457E+03  0.55580186447E+03  0.00000000000E+00 0. -1.
          1    1    5    5  503    0  0.18963261204E+03 -0.46069057308E+03  0.23498743633E+03  0.55083157762E+03  0.00000000000E+00 0. -1.
         -2    1    5    5    0  503  0.20470432634E+02 -0.19929837013E+02 -0.27758304257E+01  0.28704394265E+02  0.00000000000E+00 0.  1.
         -3    1    6    6    0  502  0.55568436802E+02  0.82647659144E+02  0.84387175950E+02  0.13053613368E+03  0.00000000000E+00 0.  1.
<mgrwt>
<rscale>  0 0.17039083E+04</rscale>
<asrwt>0</asrwt>
<pdfrwt beam="1">  1        1 0.41681983E-01 0.17039083E+04</pdfrwt>
<pdfrwt beam="2">  1       -1 0.41215195E+00 0.17039083E+04</pdfrwt>
<totfact> 0.56484844E-01</totfact>
</mgrwt>
</event>
<event>
12    1  0.1549527E-007  0.2562646E+04  0.7818608E-02  0.8381001E-01
         -2   -1    0    0    0  501 -0.00000000000E+00  0.00000000000E+00  0.96082410268E+03  0.96082410268E+03  0.00000000000E+00 0.  1.
          2   -1    0    0  501    0  0.00000000000E+00 -0.00000000000E+00 -0.17087294467E+04  0.17087294467E+04  0.00000000000E+00 0. -1.
         23    2    1    2    0    0  0.57100361145E+03  0.50850087069E+03 -0.11726727004E+04  0.14030880259E+04  0.94215107603E+02 0.  0.
        254    2    1    2    0    0 -0.57100361145E+03 -0.50850087069E+03  0.42476735632E+03  0.12664655235E+04  0.91590903227E+03 0.  0.
        -24    2    4    4    0    0 -0.27718258782E+03  0.23232013073E+03  0.24925047454E+03  0.44654862877E+03  0.80480113489E+02 0.  0.
         24    2    4    4    0    0 -0.29382102363E+03 -0.74082100142E+03  0.17551688177E+03  0.81991689471E+03  0.79441729432E+02 0.  0.
         11    1    3    3    0    0  0.30355635460E+03  0.20760769044E+03 -0.56809821649E+03  0.67674441049E+03  0.00000000000E+00 0.  1.
        -11    1    3    3    0    0  0.26744725685E+03  0.30089318025E+03 -0.60457448387E+03  0.72634361542E+03  0.00000000000E+00 0. -1.
          2    1    6    6  502    0 -0.60208078009E+02 -0.12709543770E+03  0.61122388652E+02  0.15334343591E+03  0.00000000000E+00 0. -1.
          1    1    5    5  503    0 -0.26064876429E+03  0.23074928460E+03  0.25194925079E+03  0.42972251005E+03  0.00000000000E+00 0. -1.
         -2    1    5    5    0  503 -0.16533823533E+02  0.15708461237E+01 -0.26987762432E+01  0.16826118726E+02  0.00000000000E+00 0.  1.
         -1    1    6    6    0  502 -0.23361294562E+03 -0.61372556372E+03  0.11439449312E+03  0.66657345880E+03  0.00000000000E+00 0.  1.
<mgrwt>
<rscale>  0 0.25626458E+04</rscale>
<asrwt>0</asrwt>
<pdfrwt beam="1">  1        2 0.26288145E+00 0.25626458E+04</pdfrwt>
<pdfrwt beam="2">  1       -2 0.14781909E+00 0.25626458E+04</pdfrwt>
<totfact> 0.26805141E+00</totfact>
</mgrwt>
</event>
<event>
12    1  0.1549527E-007  0.1791989E+04  0.7818608E-02  0.8710571E-01
         -1   -1    0    0    0  501 -0.00000000000E+00  0.00000000000E+00  0.34796625872E+03  0.34796625872E+03  0.00000000000E+00 0.  1.
          1   -1    0    0  501    0  0.00000000000E+00 -0.00000000000E+00 -0.23071380778E+04  0.23071380778E+04  0.00000000000E+00 0. -1.
         23    2    1    2    0    0 -0.52257277262E+03  0.23195054742E+03 -0.12384218169E+04  0.13669616472E+04  0.89510832876E+02 0.  0.
        254    2    1    2    0    0  0.52257277262E+03 -0.23195054742E+03 -0.72075000223E+03  0.12881426894E+04  0.90163610363E+03 0.  0.
        -24    2    4    4    0    0 -0.13561692910E+03  0.21481365922E+03 -0.14858564828E+03  0.30505928801E+03  0.80290813177E+02 0.  0.
         24    2    4    4    0    0  0.65818970172E+03 -0.44676420664E+03 -0.57216435395E+03  0.98308340137E+03  0.79176930667E+02 0.  0.
         13    1    3    3    0    0 -0.45648608769E+03  0.18011553613E+03 -0.11083335155E+04  0.12121156447E+04  0.00000000000E+00 0. -1.
        -13    1    3    3    0    0 -0.66086684921E+02  0.51835011289E+02 -0.13008830141E+03  0.15484600248E+03  0.00000000000E+00 0.  1.
          4    1    6    6  502    0  0.24911777938E+03 -0.12449846780E+03 -0.20895723389E+03  0.34817044976E+03  0.00000000000E+00 0. -1.
          1    1    5    5  503    0 -0.48395729815E+02  0.18923394091E+02 -0.27101584205E+02  0.58606632514E+02  0.00000000000E+00 0. -1.
         -2    1    5    5    0  503 -0.87221199285E+02  0.19589026513E+03 -0.12148406408E+03  0.24645265550E+03  0.00000000000E+00 0.  1.
         -3    1    6    6    0  502  0.40907192233E+03 -0.32226573883E+03 -0.36320712006E+03  0.63491295161E+03  0.00000000000E+00 0.  1.
<mgrwt>
<rscale>  0 0.17919891E+04</rscale>
<asrwt>0</asrwt>
<pdfrwt beam="1">  1        1 0.35494431E+00 0.17919891E+04</pdfrwt>
<pdfrwt beam="2">  1       -1 0.53533272E-01 0.17919891E+04</pdfrwt>
<totfact> 0.61219481E+00</totfact>
</mgrwt>
</event>
<event>
12    1  0.1549527E-007  0.1545560E+04  0.7818608E-02  0.8854709E-01
         -2   -1    0    0    0  501 -0.00000000000E+00  0.00000000000E+00  0.76023290634E+03  0.76023290634E+03  0.00000000000E+00 0.  1.
          2   -1    0    0  501    0  0.00000000000E+00 -0.00000000000E+00 -0.78553416624E+03  0.78553416624E+03  0.00000000000E+00 0. -1.
         23    2    1    2    0    0  0.33338254914E+03  0.79018862829E+01 -0.39157380625E+03  0.52242369164E+03  0.91597510716E+02 0.  0.
        254    2    1    2    0    0 -0.33338254914E+03 -0.79018862829E+01  0.36627254635E+03  0.10233433809E+04  0.89547179364E+03 0.  0.
        -24    2    4    4    0    0  0.25480736270E+02  0.11958104244E+03 -0.25294619299E+03  0.29200628853E+03  0.79605291052E+02 0.  0.
         24    2    4    4    0    0 -0.35886328541E+03 -0.12748292872E+03  0.61921873934E+03  0.73133709240E+03  0.79920841088E+02 0.  0.
         13    1    3    3    0    0  0.23054231395E+03  0.22997647601E+02 -0.32448988585E+03  0.39871335109E+03  0.00000000000E+00 0. -1.
        -13    1    3    3    0    0  0.10284023519E+03 -0.15095761318E+02 -0.67083920399E+02  0.12371034055E+03  0.00000000000E+00 0.  1.
          2    1    6    6  502    0 -0.16094573554E+03 -0.49580835567E+02  0.34849028536E+03  0.38704943875E+03  0.00000000000E+00 0. -1.
          3    1    5    5  503    0 -0.20011397351E+02  0.12197307883E+02 -0.17462383824E+02  0.29226104639E+02  0.00000000000E+00 0. -1.
         -2    1    5    5    0  503  0.45492133621E+02  0.10738373455E+03 -0.23548380917E+03  0.26278018389E+03  0.00000000000E+00 0.  1.
         -1    1    6    6    0  502 -0.19791754987E+03 -0.77902093153E+02  0.27072845398E+03  0.34428765365E+03  0.00000000000E+00 0.  1.
<mgrwt>
<rscale>  0 0.15455600E+04</rscale>
<asrwt>0</asrwt>
<pdfrwt beam="1">  1        2 0.12085141E+00 0.15455600E+04</pdfrwt>
<pdfrwt beam="2">  1       -2 0.11695891E+00 0.15455600E+04</pdfrwt>
<totfact> 0.19225326E+01</totfact>
</mgrwt>
</event>
<event>
12    1  0.1549527E-007  0.1688177E+04  0.7818608E-02  0.8768136E-01
         -1   -1    0    0    0  501 -0.00000000000E+00  0.00000000000E+00  0.35844060155E+03  0.35844060155E+03  0.00000000000E+00 0.  1.
          1   -1    0    0  501    0  0.00000000000E+00 -0.00000000000E+00 -0.19877372518E+04  0.19877372518E+04  0.00000000000E+00 0. -1.
         23    2    1    2    0    0 -0.54922397005E+03 -0.12816403796E+03 -0.33066793848E+03  0.66133009298E+03  0.99715677982E+02 0.  0.
        254    2    1    2    0    0  0.54922397005E+03  0.12816403796E+03 -0.12986287118E+04  0.16848477604E+04  0.91334684254E+03 0.  0.
        -24    2    4    4    0    0 -0.22905624734E+03 -0.91536471720E+02 -0.29074268688E+03  0.38991640914E+03  0.81595380008E+02 0.  0.
         24    2    4    4    0    0  0.77828021739E+03  0.21970050968E+03 -0.10078860249E+04  0.12949313513E+04  0.83812615762E+02 0.  0.
         13    1    3    3    0    0 -0.54871717258E+03 -0.11662114961E+03 -0.32634969124E+03  0.64899549227E+03  0.00000000000E+00 0.  1.
        -13    1    3    3    0    0 -0.50679746782E+00 -0.11542888356E+02 -0.43182472453E+01  0.12334600705E+02  0.00000000000E+00 0. -1.
          2    1    6    6  502    0  0.15549561503E+03  0.69111257597E+02 -0.17481664709E+03  0.24395924315E+03  0.00000000000E+00 0. -1.
          1    1    5    5  503    0  0.16024955541E+01 -0.16962603340E+02 -0.14326918216E+02  0.22261143044E+02  0.00000000000E+00 0. -1.
         -2    1    5    5    0  503 -0.23065874290E+03 -0.74573868380E+02 -0.27641576867E+03  0.36765526610E+03  0.00000000000E+00 0.  1.
         -1    1    6    6    0  502  0.62278460236E+03  0.15058925209E+03 -0.83306937784E+03  0.10509721081E+04  0.00000000000E+00 0.  1.
<mgrwt>
<rscale>  0 0.16881774E+04</rscale>
<asrwt>0</asrwt>
<pdfrwt beam="1">  1        1 0.30580574E+00 0.16881774E+04</pdfrwt>
<pdfrwt beam="2">  1       -1 0.55144707E-01 0.16881774E+04</pdfrwt>
<totfact> 0.96208560E+00</totfact>
</mgrwt>
</event>
<event>
12    1  0.1549527E-007  0.1759379E+04  0.7818608E-02  0.8728204E-01
          2   -1    0    0  501    0  0.00000000000E+00  0.00000000000E+00  0.25327918390E+04  0.25327918390E+04  0.00000000000E+00 0. -1.
         -2   -1    0    0    0  501 -0.00000000000E+00 -0.00000000000E+00 -0.30553397231E+03  0.30553397231E+03  0.00000000000E+00 0.  1.
         23    2    1    2    0    0 -0.37058960283E+03  0.31603589519E+03  0.14519418534E+03  0.51611896611E+03  0.89900472474E+02 0.  0.
        254    2    1    2    0    0  0.37058960283E+03 -0.31603589519E+03  0.20820636813E+04  0.23222068452E+04  0.90578149566E+03 0.  0.
        -24    2    4    4    0    0  0.10760180425E+03  0.22761721684E+03  0.13216838017E+04  0.13478662774E+04  0.80670218773E+02 0.  0.
         24    2    4    4    0    0  0.26298779858E+03 -0.54365311203E+03  0.76037987961E+03  0.97434056783E+03  0.80253924367E+02 0.  0.
         11    1    3    3    0    0 -0.68493269198E+02  0.10909108245E+03  0.30158986534E+02  0.13229420496E+03  0.00000000000E+00 0. -1.
        -11    1    3    3    0    0 -0.30209633363E+03  0.20694481273E+03  0.11503519881E+03  0.38382476115E+03  0.00000000000E+00 0.  1.
          2    1    6    6  502    0  0.14290539031E+03 -0.28876650272E+03  0.46907071025E+03  0.56906535204E+03  0.00000000000E+00 0. -1.
          3    1    5    5  503    0  0.13172425972E+02  0.99384011259E+02  0.39052841847E+03  0.40319119550E+03  0.00000000000E+00 0. -1.
         -4    1    5    5    0  503  0.94429378280E+02  0.12823320558E+03  0.93115538326E+03  0.94467508185E+03  0.00000000000E+00 0.  1.
         -1    1    6    6    0  502  0.12008240826E+03 -0.25488660931E+03  0.29130916936E+03  0.40527521579E+03  0.00000000000E+00 0.  1.
<mgrwt>
<rscale>  0 0.17593794E+04</rscale>
<asrwt>0</asrwt>
<pdfrwt beam="1">  1        2 0.38966027E+00 0.17593794E+04</pdfrwt>
<pdfrwt beam="2">  1       -2 0.47005228E-01 0.17593794E+04</pdfrwt>
<totfact> 0.13557362E+01</totfact>
</mgrwt>
</event>
<event>
12    1  0.1549527E-007  0.1727742E+04  0.7818608E-02  0.8745699E-01
          2   -1    0    0  501    0  0.00000000000E+00  0.00000000000E+00  0.83376960404E+03  0.83376960404E+03  0.00000000000E+00 0. -1.
         -2   -1    0    0    0  501 -0.00000000000E+00 -0.00000000000E+00 -0.89505862592E+03  0.89505862592E+03  0.00000000000E+00 0.  1.
         23    2    1    2    0    0 -0.43231576589E+02  0.59694947473E+03  0.14132288853E+03  0.62158966144E+03  0.90464931285E+02 0.  0.
        254    2    1    2    0    0  0.43231576589E+02 -0.59694947473E+03 -0.20261191040E+03  0.11072385685E+04  0.90923485239E+03 0.  0.
        -24    2    4    4    0    0 -0.10206903765E+02 -0.40465553764E+03 -0.55716343626E+03  0.69285293155E+03  0.75919727577E+02 0.  0.
         24    2    4    4    0    0  0.53438480354E+02 -0.19229393709E+03  0.35455152586E+03  0.41438563697E+03  0.78587799399E+02 0.  0.
         11    1    3    3    0    0 -0.28281274477E+01  0.18979452828E+03  0.35067677751E+01  0.18984798838E+03  0.00000000000E+00 0.  1.
        -11    1    3    3    0    0 -0.40403449141E+02  0.40715494644E+03  0.13781612075E+03  0.43174167306E+03  0.00000000000E+00 0. -1.
          2    1    6    6  502    0 -0.48629260270E+01 -0.78718932048E+02  0.83982132194E+02  0.11520988169E+03  0.00000000000E+00 0. -1.
          3    1    5    5  503    0  0.12161645514E+02 -0.38940706496E+02 -0.92602099455E+02  0.10119008384E+03  0.00000000000E+00 0. -1.
         -4    1    5    5    0  503 -0.22368549279E+02 -0.36571483114E+03 -0.46456133680E+03  0.59166284771E+03  0.00000000000E+00 0.  1.
         -1    1    6    6    0  502  0.58301406381E+02 -0.11357500504E+03  0.27056939367E+03  0.29917575528E+03  0.00000000000E+00 0.  1.
<mgrwt>
<rscale>  0 0.17277415E+04</rscale>
<asrwt>0</asrwt>
<pdfrwt beam="1">  1        2 0.12827225E+00 0.17277415E+04</pdfrwt>
<pdfrwt beam="2">  1       -2 0.13770133E+00 0.17277415E+04</pdfrwt>
<totfact> 0.11596447E+01</totfact>
</mgrwt>
</event>
<event>
12    1  0.1549527E-007  0.1652626E+04  0.7818608E-02  0.8788854E-01
          2   -1    0    0  501    0  0.00000000000E+00  0.00000000000E+00  0.35556145632E+04  0.35556145632E+04  0.00000000000E+00 0. -1.
         -2   -1    0    0    0  501 -0.00000000000E+00 -0.00000000000E+00 -0.19203248294E+03  0.19203248294E+03  0.00000000000E+00 0.  1.
         23    2    1    2    0    0 -0.77092100992E+02 -0.34828321970E+03  0.16902324165E+03  0.40694894542E+03  0.98965624348E+02 0.  0.
        254    2    1    2    0    0  0.77092100992E+02  0.34828321970E+03  0.31945588386E+04  0.33406981007E+04  0.90984242243E+03 0.  0.
        -24    2    4    4    0    0  0.10117792361E+03 -0.10229104813E+03  0.68795919498E+02  0.18151425826E+03  0.86684004646E+02 0.  0.
         24    2    4    4    0    0 -0.24085822616E+02  0.45057426782E+03  0.31257629191E+04  0.31591838424E+04  0.80320771052E+02 0.  0.
         11    1    3    3    0    0 -0.48540970015E+02 -0.31243183722E+03  0.17391937143E+03  0.36085707203E+03  0.00000000000E+00 0.  1.
        -11    1    3    3    0    0 -0.28551130976E+02 -0.35851382480E+02 -0.48961297771E+01  0.46091873389E+02  0.00000000000E+00 0. -1.
          4    1    6    6  502    0  0.60878919910E+00  0.38749573550E+02  0.14857192128E+03  0.15354320521E+03  0.00000000000E+00 0. -1.
          1    1    5    5  503    0  0.12572563646E+02  0.88348298608E+01 -0.10644805436E+02  0.18693192827E+02  0.00000000000E+00 0. -1.
         -2    1    5    5    0  503  0.88605359962E+02 -0.11112587799E+03  0.79440724934E+02  0.16282106544E+03  0.00000000000E+00 0.  1.
         -3    1    6    6    0  502 -0.24694611815E+02  0.41182469427E+03  0.29771909978E+04  0.30056406372E+04  0.00000000000E+00 0.  1.
<mgrwt>
<rscale>  0 0.16526264E+04</rscale>
<asrwt>0</asrwt>
<pdfrwt beam="1">  1        2 0.54701758E+00 0.16526264E+04</pdfrwt>
<pdfrwt beam="2">  1       -2 0.29543462E-01 0.16526264E+04</pdfrwt>
<totfact> 0.75724079E+00</totfact>
</mgrwt>
</event>
<event>
12    1  0.1549527E-007  0.2839451E+04  0.7818608E-02  0.8291124E-01
          2   -1    0    0  501    0  0.00000000000E+00  0.00000000000E+00  0.43350884114E+04  0.43350884114E+04  0.00000000000E+00 0. -1.
         -2   -1    0    0    0  501 -0.00000000000E+00 -0.00000000000E+00 -0.46495491111E+03  0.46495491111E+03  0.00000000000E+00 0.  1.
         23    2    1    2    0    0  0.70981088740E+03 -0.73289593663E+03  0.30284072689E+04  0.31970802493E+04  0.95412704126E+02 0.  0.
        254    2    1    2    0    0 -0.70981088740E+03  0.73289593663E+03  0.84172623133E+03  0.16029630732E+04  0.90554934472E+03 0.  0.
        -24    2    4    4    0    0 -0.40277772229E+03  0.91102068216E+03  0.63566386845E+03  0.11845356865E+04  0.82871358954E+02 0.  0.
         24    2    4    4    0    0 -0.30703316510E+03 -0.17812474553E+03  0.20606236288E+03  0.41842738665E+03  0.81375617108E+02 0.  0.
         11    1    3    3    0    0  0.22311240955E+03 -0.20506580484E+03  0.77880405249E+03  0.83568348302E+03  0.00000000000E+00 0. -1.
        -11    1    3    3    0    0  0.48669847784E+03 -0.52783013179E+03  0.22496032164E+04  0.23613967663E+04  0.00000000000E+00 0.  1.
          4    1    6    6  502    0 -0.14481116441E+03 -0.37883582802E+02  0.88047191274E+02  0.17365986029E+03  0.00000000000E+00 0. -1.
          3    1    5    5  503    0 -0.11675278054E+03  0.35315220722E+03  0.21603773522E+03  0.43013950791E+03  0.00000000000E+00 0. -1.
         -4    1    5    5    0  503 -0.28602494176E+03  0.55786847494E+03  0.41962613323E+03  0.75439617863E+03  0.00000000000E+00 0.  1.
         -3    1    6    6    0  502 -0.16222200069E+03 -0.14024116273E+03  0.11801517161E+03  0.24476752636E+03  0.00000000000E+00 0.  1.
<mgrwt>
<rscale>  0 0.28394511E+04</rscale>
<asrwt>0</asrwt>
<pdfrwt beam="1">  1        2 0.66693665E+00 0.28394511E+04</pdfrwt>
<pdfrwt beam="2">  1       -2 0.71531528E-01 0.28394511E+04</pdfrwt>
<totfact> 0.27126062E-01</totfact>
</mgrwt>
</event>
<event>
12    1  0.1549527E-007  0.2550723E+04  0.7818608E-02  0.8385135E-01
         -1   -1    0    0    0  501 -0.00000000000E+00  0.00000000000E+00  0.93210088762E+03  0.93210088762E+03  0.00000000000E+00 0.  1.
          1   -1    0    0  501    0  0.00000000000E+00 -0.00000000000E+00 -0.17450338261E+04  0.17450338261E+04  0.00000000000E+00 0. -1.
         23    2    1    2    0    0 -0.18883972535E+03  0.10402535165E+04 -0.72689759462E+03  0.12862177916E+04  0.90489081599E+02 0.  0.
        254    2    1    2    0    0  0.18883972535E+03 -0.10402535165E+04 -0.86035343896E+02  0.13909169221E+04  0.89969994071E+03 0.  0.
        -24    2    4    4    0    0  0.52595533744E+03 -0.43893178648E+03 -0.98534402076E+02  0.69667659442E+03  0.79744082248E+02 0.  0.
         24    2    4    4    0    0 -0.33711561210E+03 -0.60132173006E+03  0.12499058180E+02  0.69424032770E+03  0.81108860116E+02 0.  0.
         13    1    3    3    0    0 -0.18422810934E+03  0.87395669519E+03 -0.58632174259E+03  0.10684163454E+04  0.00000000000E+00 0.  1.
        -13    1    3    3    0    0 -0.46116160060E+01  0.16629682136E+03 -0.14057585203E+03  0.21780144621E+03  0.00000000000E+00 0. -1.
          2    1    6    6  502    0 -0.13247677153E+03 -0.30908972556E+03 -0.13334939981E+02  0.33654772925E+03  0.00000000000E+00 0. -1.
          1    1    5    5  503    0  0.16396467675E+03 -0.93453874732E+02 -0.14570882611E+02  0.18928907138E+03  0.00000000000E+00 0. -1.
         -2    1    5    5    0  503  0.36199066069E+03 -0.34547791175E+03 -0.83963519466E+02  0.50738752304E+03  0.00000000000E+00 0.  1.
         -1    1    6    6    0  502 -0.20463884057E+03 -0.29223200450E+03  0.25833998161E+02  0.35769259845E+03  0.00000000000E+00 0.  1.
<mgrwt>
<rscale>  0 0.25507235E+04</rscale>
<asrwt>0</asrwt>
<pdfrwt beam="1">  1        1 0.26846674E+00 0.25507235E+04</pdfrwt>
<pdfrwt beam="2">  1       -1 0.14340014E+00 0.25507235E+04</pdfrwt>
<totfact> 0.15454882E+00</totfact>
</mgrwt>
</event>
<event>
12    1  0.1549527E-007  0.1242925E+04  0.7818608E-02  0.9076092E-01
          2   -1    0    0  501    0  0.00000000000E+00  0.00000000000E+00  0.46395373434E+03  0.46395373434E+03  0.00000000000E+00 0. -1.
         -2   -1    0    0    0  501 -0.00000000000E+00 -0.00000000000E+00 -0.83244440050E+03  0.83244440050E+03  0.00000000000E+00 0.  1.
         23    2    1    2    0    0 -0.14832769035E+03  0.46302107906E+02  0.16365809402E+03  0.24353167299E+03  0.91535321523E+02 0.  0.
        254    2    1    2    0    0  0.14832769035E+03 -0.46302107906E+02 -0.53214876019E+03  0.10528664619E+04  0.89509803631E+03 0.  0.
        -24    2    4    4    0    0 -0.36441774528E+03 -0.98746703860E+02 -0.24260151361E+03  0.45622205300E+03  0.82047928927E+02 0.  0.
         24    2    4    4    0    0  0.51274543562E+03  0.52444595954E+02 -0.28954724658E+03  0.59664440886E+03  0.80552003207E+02 0.  0.
         11    1    3    3    0    0 -0.13549550471E+03  0.14791311360E+02  0.15862102377E+03  0.20913738038E+03  0.00000000000E+00 0. -1.
        -11    1    3    3    0    0 -0.12832185640E+02  0.31510796546E+02  0.50370702502E+01  0.34394292607E+02  0.00000000000E+00 0.  1.
          4    1    6    6  502    0  0.45947317564E+03  0.50820318549E+02 -0.22869340722E+03  0.51575088794E+03  0.00000000000E+00 0. -1.
          1    1    5    5  503    0 -0.30744785047E+03 -0.59620591790E+02 -0.22275986893E+03  0.38431855918E+03  0.00000000000E+00 0. -1.
         -2    1    5    5    0  503 -0.56969894804E+02 -0.39126112070E+02 -0.19841644683E+02  0.71903493819E+02  0.00000000000E+00 0.  1.
         -3    1    6    6    0  502  0.53272259987E+02  0.16242774052E+01 -0.60853839359E+02  0.80893520915E+02  0.00000000000E+00 0.  1.
<mgrwt>
<rscale>  0 0.12429251E+04</rscale>
<asrwt>0</asrwt>
<pdfrwt beam="1">  1        2 0.71377499E-01 0.12429251E+04</pdfrwt>
<pdfrwt beam="2">  1       -2 0.12806837E+00 0.12429251E+04</pdfrwt>
<totfact> 0.29788558E+01</totfact>
</mgrwt>
</event>
<event>
12    1  0.1549527E-007  0.1771084E+04  0.7818608E-02  0.8721829E-01
          1   -1    0    0  501    0  0.00000000000E+00  0.00000000000E+00  0.69908843201E+03  0.69908843201E+03  0.00000000000E+00 0. -1.
         -1   -1    0    0    0  501 -0.00000000000E+00 -0.00000000000E+00 -0.11217251346E+04  0.11217251346E+04  0.00000000000E+00 0.  1.
         23    2    1    2    0    0 -0.34890831072E+03  0.55127343284E+03 -0.17002645848E+03  0.68022681532E+03  0.90333363963E+02 0.  0.
        254    2    1    2    0    0  0.34890831072E+03 -0.55127343284E+03 -0.25261024411E+03  0.11405867513E+04  0.90082561838E+03 0.  0.
        -24    2    4    4    0    0  0.47121502260E+03 -0.72055068299E+03 -0.10072963280E+03  0.87052688732E+03  0.80210462814E+02 0.  0.
         24    2    4    4    0    0 -0.12230671188E+03  0.16927725014E+03 -0.15188061130E+03  0.27005986397E+03  0.79062575525E+02 0.  0.
         13    1    3    3    0    0 -0.11681600961E+03  0.11550288620E+03 -0.55452880849E+02  0.17338373285E+03  0.00000000000E+00 0.  1.
        -13    1    3    3    0    0 -0.23209230111E+03  0.43577054664E+03 -0.11457357764E+03  0.50684308247E+03  0.00000000000E+00 0. -1.
          4    1    6    6  502    0  0.48061468177E+01  0.96029766244E+01 -0.31111871338E+02  0.32912987489E+02  0.00000000000E+00 0. -1.
          3    1    5    5  503    0  0.18533994713E+03 -0.29685724512E+03 -0.20466716641E+01  0.34997043996E+03  0.00000000000E+00 0. -1.
         -4    1    5    5    0  503  0.28587507546E+03 -0.42369343787E+03 -0.98682961140E+02  0.52055644736E+03  0.00000000000E+00 0.  1.
         -3    1    6    6    0  502 -0.12711285870E+03  0.15967427352E+03 -0.12076873997E+03  0.23714687648E+03  0.00000000000E+00 0.  1.
<mgrwt>
<rscale>  0 0.17710845E+04</rscale>
<asrwt>0</asrwt>
<pdfrwt beam="1">  1        1 0.10755207E+00 0.17710845E+04</pdfrwt>
<pdfrwt beam="2">  1       -1 0.17257310E+00 0.17710845E+04</pdfrwt>
<totfact> 0.60833534E+00</totfact>
</mgrwt>
</event>
<event>
12    1  0.1549527E-007  0.1834512E+04  0.7818608E-02  0.8688159E-01
         -3   -1    0    0    0  501 -0.00000000000E+00  0.00000000000E+00  0.24052938128E+04  0.24052938128E+04  0.00000000000E+00 0.  1.
          3   -1    0    0  501    0  0.00000000000E+00 -0.00000000000E+00 -0.34979459676E+03  0.34979459676E+03  0.00000000000E+00 0. -1.
         23    2    1    2    0    0 -0.39085589705E+03 -0.31757917120E+03  0.63761078365E+02  0.51715852945E+03  0.98805906874E+02 0.  0.
        254    2    1    2    0    0  0.39085589705E+03  0.31757917120E+03  0.19917381377E+04  0.22379298801E+04  0.88751590237E+03 0.  0.
        -24    2    4    4    0    0  0.16265053633E+03 -0.24753502334E+03  0.26635076731E+03  0.40634141176E+03  0.80260992471E+02 0.  0.
         24    2    4    4    0    0  0.22820536072E+03  0.56511419453E+03  0.17253873703E+04  0.18315884683E+04  0.79517294102E+02 0.  0.
         11    1    3    3    0    0 -0.19154079439E+03 -0.21349073881E+03  0.55553382696E+02  0.29215124474E+03  0.00000000000E+00 0. -1.
        -11    1    3    3    0    0 -0.19931510266E+03 -0.10408843238E+03  0.82076956691E+01  0.22500728471E+03  0.00000000000E+00 0.  1.
          2    1    6    6  502    0  0.90061298930E+02  0.13373776897E+03  0.42350579276E+03  0.45315999925E+03  0.00000000000E+00 0. -1.
          1    1    5    5  503    0  0.11188982500E+03 -0.98851400751E+02  0.14092160779E+03  0.20530424231E+03  0.00000000000E+00 0. -1.
         -2    1    5    5    0  503  0.50760711336E+02 -0.14868362258E+03  0.12542915952E+03  0.20103716945E+03  0.00000000000E+00 0.  1.
         -1    1    6    6    0  502  0.13814406179E+03  0.43137642556E+03  0.13018815776E+04  0.13784284691E+04  0.00000000000E+00 0.  1.
<mgrwt>
<rscale>  0 0.18345122E+04</rscale>
<asrwt>0</asrwt>
<pdfrwt beam="1">  1        3 0.53814555E-01 0.18345122E+04</pdfrwt>
<pdfrwt beam="2">  1       -3 0.37004519E+00 0.18345122E+04</pdfrwt>
<totfact> 0.13062229E-01</totfact>
</mgrwt>
</event>
<event>
12    1  0.1549527E-007  0.1736127E+04  0.7818608E-02  0.8741024E-01
          2   -1    0    0  501    0  0.00000000000E+00  0.00000000000E+00  0.17463304700E+04  0.17463304700E+04  0.00000000000E+00 0. -1.
         -2   -1    0    0    0  501 -0.00000000000E+00 -0.00000000000E+00 -0.43149593204E+03  0.43149593204E+03  0.00000000000E+00 0.  1.
         23    2    1    2    0    0  0.39890787718E+02  0.35890751897E+03  0.11308778794E+04  0.11905384003E+04  0.89950110602E+02 0.  0.
        254    2    1    2    0    0 -0.39890787718E+02 -0.35890751897E+03  0.18395665861E+03  0.98728800177E+03  0.90027310527E+03 0.  0.
        -24    2    4    4    0    0 -0.25259223459E+03  0.10700392674E+03  0.34159841521E+03  0.44553202521E+03  0.80973025771E+02 0.  0.
         24    2    4    4    0    0  0.21270144687E+03 -0.46591144571E+03 -0.15764175660E+03  0.54175597656E+03  0.79581618288E+02 0.  0.
         11    1    3    3    0    0  0.55539900770E+02  0.17817743648E+03  0.48505172285E+03  0.51971824414E+03  0.00000000000E+00 0.  1.
        -11    1    3    3    0    0 -0.15649113052E+02  0.18073008249E+03  0.64582615654E+03  0.67082015618E+03  0.00000000000E+00 0. -1.
          2    1    6    6  502    0  0.65653182197E+02 -0.71515723699E+02 -0.36971939064E+02  0.10388341228E+03  0.00000000000E+00 0. -1.
          1    1    5    5  503    0 -0.44968390159E+01 -0.72430243348E+01  0.29906914861E+02  0.31098336277E+02  0.00000000000E+00 0. -1.
         -2    1    5    5    0  503 -0.24809539557E+03  0.11424695108E+03  0.31169150035E+03  0.41443368893E+03  0.00000000000E+00 0.  1.
         -1    1    6    6    0  502  0.14704826467E+03 -0.39439572201E+03 -0.12066981753E+03  0.43787256428E+03  0.00000000000E+00 0.  1.
<mgrwt>
<rscale>  0 0.17361273E+04</rscale>
<asrwt>0</asrwt>
<pdfrwt beam="1">  1        2 0.26866622E+00 0.17361273E+04</pdfrwt>
<pdfrwt beam="2">  1       -2 0.66383990E-01 0.17361273E+04</pdfrwt>
<totfact> 0.18291985E+01</totfact>
</mgrwt>
</event>
<event>
12    1  0.1549527E-007  0.1683381E+04  0.7818608E-02  0.8770900E-01
          1   -1    0    0  501    0  0.00000000000E+00  0.00000000000E+00  0.61493663450E+03  0.61493663450E+03  0.00000000000E+00 0. -1.
         -1   -1    0    0    0  501 -0.00000000000E+00 -0.00000000000E+00 -0.11520577815E+04  0.11520577815E+04  0.00000000000E+00 0.  1.
         23    2    1    2    0    0  0.45470230334E+02  0.17864655832E+03  0.39952883441E+03  0.44962755565E+03  0.92517644971E+02 0.  0.
        254    2    1    2    0    0 -0.45470230334E+02 -0.17864655832E+03 -0.93664998142E+03  0.13173668604E+04  0.90783265112E+03 0.  0.
        -24    2    4    4    0    0 -0.11640146359E+03  0.26669643535E+03 -0.77390427363E+03  0.83074822499E+03  0.80860987067E+02 0.  0.
         24    2    4    4    0    0  0.70931233256E+02 -0.44534299367E+03 -0.16274570780E+03  0.48661863537E+03  0.83366114376E+02 0.  0.
         11    1    3    3    0    0 -0.15759531577E+02  0.13695660690E+02  0.10074719904E+03  0.10288795883E+03  0.00000000000E+00 0.  1.
        -11    1    3    3    0    0  0.61229761910E+02  0.16495089763E+03  0.29878163537E+03  0.34673959683E+03  0.00000000000E+00 0. -1.
          2    1    6    6  502    0  0.12670608115E+02 -0.26132184517E+03 -0.12492822843E+03  0.28992535821E+03  0.00000000000E+00 0. -1.
          1    1    5    5  503    0 -0.11626211723E+03  0.17665333072E+03 -0.52049828940E+03  0.56182003206E+03  0.00000000000E+00 0. -1.
         -2    1    5    5    0  503 -0.13934635846E+00  0.90043104634E+02 -0.25340598422E+03  0.26892819293E+03  0.00000000000E+00 0.  1.
         -1    1    6    6    0  502  0.58260625141E+02 -0.18402114850E+03 -0.37817479362E+02  0.19669327716E+03  0.00000000000E+00 0.  1.
<mgrwt>
<rscale>  0 0.16833806E+04</rscale>
<asrwt>0</asrwt>
<pdfrwt beam="1">  1        1 0.94605637E-01 0.16833806E+04</pdfrwt>
<pdfrwt beam="2">  1       -1 0.17723966E+00 0.16833806E+04</pdfrwt>
<totfact> 0.68602738E+00</totfact>
</mgrwt>
</event>
<event>
12    1  0.1549527E-007  0.1817556E+04  0.7818608E-02  0.8697018E-01
          2   -1    0    0  501    0  0.00000000000E+00  0.00000000000E+00  0.17659552570E+04  0.17659552570E+04  0.00000000000E+00 0. -1.
         -2   -1    0    0    0  501 -0.00000000000E+00 -0.00000000000E+00 -0.46766637410E+03  0.46766637410E+03  0.00000000000E+00 0.  1.
         23    2    1    2    0    0  0.27806382494E+03 -0.55303987077E+03  0.65726367088E+03  0.90751845259E+03  0.91769381220E+02 0.  0.
        254    2    1    2    0    0 -0.27806382494E+03  0.55303987077E+03  0.64102521199E+03  0.13261031785E+04  0.98207114211E+03 0.  0.
        -24    2    4    4    0    0 -0.40159514985E+03 -0.12951574832E+03  0.39991226874E+03  0.58732677314E+03  0.83486060591E+02 0.  0.
         24    2    4    4    0    0  0.12353132491E+03  0.68255561909E+03  0.24111294326E+03  0.73877640534E+03  0.80702938534E+02 0.  0.
         11    1    3    3    0    0  0.20964436226E+03 -0.44209794629E+03  0.56724541836E+03  0.74911195251E+03  0.00000000000E+00 0. -1.
        -11    1    3    3    0    0  0.68419462683E+02 -0.11094192448E+03  0.90018252520E+02  0.15840650008E+03  0.00000000000E+00 0.  1.
          4    1    6    6  502    0  0.41143609363E+02  0.44416461315E+03  0.15068392863E+03  0.47082974260E+03  0.00000000000E+00 0. -1.
          1    1    5    5  503    0 -0.37799672402E+03 -0.12730310356E+03  0.39813342528E+03  0.56355818499E+03  0.00000000000E+00 0. -1.
         -2    1    5    5    0  503 -0.23598425829E+02 -0.22126447606E+01  0.17788434579E+01  0.23768588147E+02  0.00000000000E+00 0.  1.
         -3    1    6    6    0  502  0.82387715548E+02  0.23839100594E+03  0.90429014621E+02  0.26794666274E+03  0.00000000000E+00 0.  1.
<mgrwt>
<rscale>  0 0.18175565E+04</rscale>
<asrwt>0</asrwt>
<pdfrwt beam="1">  1        2 0.27168542E+00 0.18175565E+04</pdfrwt>
<pdfrwt beam="2">  1       -2 0.71948674E-01 0.18175565E+04</pdfrwt>
<totfact> 0.14870147E+01</totfact>
</mgrwt>
</event>
<event>
12    1  0.1549527E-007  0.2444849E+04  0.7818608E-02  0.8422901E-01
          1   -1    0    0  501    0  0.00000000000E+00  0.00000000000E+00  0.20973865148E+04  0.20973865148E+04  0.00000000000E+00 0. -1.
         -1   -1    0    0    0  501 -0.00000000000E+00 -0.00000000000E+00 -0.71246822615E+03  0.71246822615E+03  0.00000000000E+00 0.  1.
         23    2    1    2    0    0  0.49795778274E+03  0.12833625531E+03 -0.45990258707E+03  0.69556493823E+03  0.88702006092E+02 0.  0.
        254    2    1    2    0    0 -0.49795778274E+03 -0.12833625531E+03  0.18448208757E+04  0.21142898028E+04  0.89578187000E+03 0.  0.
        -24    2    4    4    0    0  0.23550122005E+03 -0.15404538589E+03  0.51868621344E+03  0.59667000688E+03  0.88254764942E+02 0.  0.
         24    2    4    4    0    0 -0.73345900278E+03  0.25709130581E+02  0.13261346623E+04  0.15176197959E+04  0.76900156781E+02 0.  0.
         13    1    3    3    0    0  0.39926033522E+03  0.13358470591E+03 -0.39515007653E+03  0.57740563897E+03  0.00000000000E+00 0.  1.
        -13    1    3    3    0    0  0.98697447514E+02 -0.52484506018E+01 -0.64752510539E+02  0.11815929926E+03  0.00000000000E+00 0. -1.
          2    1    6    6  502    0 -0.71452772912E+03  0.13095099414E+02  0.12743245205E+04  0.14610353661E+04  0.00000000000E+00 0. -1.
          1    1    5    5  503    0  0.19178006855E+03 -0.78734808931E+02  0.34858157881E+03  0.40557105656E+03  0.00000000000E+00 0. -1.
         -2    1    5    5    0  503  0.43721151493E+02 -0.75310576963E+02  0.17010463463E+03  0.19109895032E+03  0.00000000000E+00 0.  1.
         -1    1    6    6    0  502 -0.18931273664E+02  0.12614031167E+02  0.51810141784E+02  0.56584429807E+02  0.00000000000E+00 0.  1.
<mgrwt>
<rscale>  0 0.24448487E+04</rscale>
<asrwt>0</asrwt>
<pdfrwt beam="1">  1        1 0.32267484E+00 0.24448487E+04</pdfrwt>
<pdfrwt beam="2">  1       -1 0.10961050E+00 0.24448487E+04</pdfrwt>
<totfact> 0.17575628E+00</totfact>
</mgrwt>
</event>
<event>
12    1  0.1549527E-007  0.1587701E+04  0.7818608E-02  0.8828140E-01
          2   -1    0    0  501    0  0.00000000000E+00  0.00000000000E+00  0.23686807978E+04  0.23686807978E+04  0.00000000000E+00 0. -1.
         -2   -1    0    0    0  501 -0.00000000000E+00 -0.00000000000E+00 -0.26605463772E+03  0.26605463772E+03  0.00000000000E+00 0.  1.
         23    2    1    2    0    0 -0.29728255568E+03 -0.13075092506E+03  0.13703749981E+04  0.14113175954E+04  0.91744195104E+02 0.  0.
        254    2    1    2    0    0  0.29728255568E+03  0.13075092506E+03  0.73225116199E+03  0.12234178401E+04  0.92470899477E+03 0.  0.
        -24    2    4    4    0    0 -0.14950126406E+03  0.40154785203E+03  0.43974812531E+03  0.61922744042E+03  0.80454358657E+02 0.  0.
         24    2    4    4    0    0  0.44678381974E+03 -0.27079692697E+03  0.29250303668E+03  0.60419039972E+03  0.80878027971E+02 0.  0.
         11    1    3    3    0    0 -0.28550989170E+03 -0.12804168058E+03  0.13595594882E+04  0.13951030687E+04  0.00000000000E+00 0. -1.
        -11    1    3    3    0    0 -0.11772663981E+02 -0.27092444832E+01  0.10815509899E+02  0.16214526736E+02  0.00000000000E+00 0.  1.
          4    1    6    6  502    0  0.28712618509E+03 -0.20691461972E+03  0.22541561952E+03  0.41960375063E+03  0.00000000000E+00 0. -1.
          3    1    5    5  503    0 -0.41621404310E+02  0.22673703224E+03  0.23543645749E+03  0.32950318450E+03  0.00000000000E+00 0. -1.
         -4    1    5    5    0  503 -0.10787985975E+03  0.17481081980E+03  0.20431166782E+03  0.28972425591E+03  0.00000000000E+00 0.  1.
         -3    1    6    6    0  502  0.15965763465E+03 -0.63882307257E+02  0.67087417158E+02  0.18458664909E+03  0.00000000000E+00 0.  1.
<mgrwt>
<rscale>  0 0.15877009E+04</rscale>
<asrwt>0</asrwt>
<pdfrwt beam="1">  1        2 0.36441242E+00 0.15877009E+04</pdfrwt>
<pdfrwt beam="2">  1       -2 0.40931484E-01 0.15877009E+04</pdfrwt>
<totfact> 0.22513078E+01</totfact>
</mgrwt>
</event>
<event>
12    1  0.1549527E-007  0.2110326E+04  0.7818608E-02  0.8556708E-01
          1   -1    0    0  501    0  0.00000000000E+00  0.00000000000E+00  0.82917507570E+03  0.82917507570E+03  0.00000000000E+00 0. -1.
         -1   -1    0    0    0  501 -0.00000000000E+00 -0.00000000000E+00 -0.13427428695E+04  0.13427428695E+04  0.00000000000E+00 0.  1.
         23    2    1    2    0    0  0.26913899116E+03  0.10277984448E+03  0.62732706158E+03  0.69551553785E+03  0.84871244904E+02 0.  0.
        254    2    1    2    0    0 -0.26913899116E+03 -0.10277984448E+03 -0.11408948554E+04  0.14764024074E+04  0.89169698015E+03 0.  0.
        -24    2    4    4    0    0 -0.36278648779E+03  0.27948017254E+03 -0.32312228566E+03  0.56559519582E+03  0.75938866688E+02 0.  0.
         24    2    4    4    0    0  0.93647496630E+02 -0.38226001702E+03 -0.81777256974E+03  0.91080721155E+03  0.76975493271E+02 0.  0.
         11    1    3    3    0    0  0.13660770713E+03  0.91509715211E+02  0.29818976746E+03  0.34051847387E+03  0.00000000000E+00 0. -1.
        -11    1    3    3    0    0  0.13253128402E+03  0.11270129272E+02  0.32913729412E+03  0.35499706399E+03  0.00000000000E+00 0.  1.
          2    1    6    6  502    0  0.79403210845E+02 -0.36825671616E+03 -0.79917575083E+03  0.88351556840E+03  0.00000000000E+00 0. -1.
          3    1    5    5  503    0 -0.26398348565E+03  0.21367447771E+03 -0.19803125614E+03  0.39314175755E+03  0.00000000000E+00 0. -1.
         -4    1    5    5    0  503 -0.98803002139E+02  0.65805694832E+02 -0.12509102952E+03  0.17245343827E+03  0.00000000000E+00 0.  1.
         -1    1    6    6    0  502  0.14244285784E+02 -0.14003300862E+02 -0.18596818904E+02  0.27291643151E+02  0.00000000000E+00 0.  1.
<mgrwt>
<rscale>  0 0.21103260E+04</rscale>
<asrwt>0</asrwt>
<pdfrwt beam="1">  1        1 0.12756540E+00 0.21103260E+04</pdfrwt>
<pdfrwt beam="2">  1       -1 0.20657582E+00 0.21103260E+04</pdfrwt>
<totfact> 0.25999512E+00</totfact>
</mgrwt>
</event>
<event>
12    1  0.1549527E-007  0.2597356E+04  0.7818608E-02  0.8369100E-01
         -2   -1    0    0    0  501 -0.00000000000E+00  0.00000000000E+00  0.13534977144E+04  0.13534977144E+04  0.00000000000E+00 0. -1.
          2   -1    0    0  501    0  0.00000000000E+00 -0.00000000000E+00 -0.12460790315E+04  0.12460790315E+04  0.00000000000E+00 0.  1.
         23    2    1    2    0    0  0.98869393878E+03  0.50911868000E+03  0.24973019350E+03  0.11437569117E+04  0.95379078876E+02 0.  0.
        254    2    1    2    0    0 -0.98869393878E+03 -0.50911868000E+03 -0.14231151054E+03  0.14558198341E+04  0.92867717131E+03 0.  0.
        -24    2    4    4    0    0 -0.30317197027E+03 -0.17711229834E+03 -0.49535221234E+03  0.61252485993E+03  0.80813860039E+02 0.  0.
         24    2    4    4    0    0 -0.68552196851E+03 -0.33200638165E+03  0.35304070180E+03  0.84329497421E+03  0.79624554122E+02 0.  0.
         11    1    3    3    0    0  0.65029800782E+03  0.35822385350E+03  0.12549053259E+03  0.75296726486E+03  0.00000000000E+00 0.  1.
        -11    1    3    3    0    0  0.33839593096E+03  0.15089482649E+03  0.12423966091E+03  0.39078964687E+03  0.00000000000E+00 0. -1.
          2    1    6    6  502    0 -0.28065753108E+03 -0.11422949404E+03  0.17767987279E+03  0.35126509114E+03  0.00000000000E+00 0. -1.
          3    1    5    5  503    0 -0.18095325009E+03 -0.13982736271E+03 -0.27352753898E+03  0.35652921992E+03  0.00000000000E+00 0. -1.
         -4    1    5    5    0  503 -0.12221872018E+03 -0.37284935637E+02 -0.22182467336E+03  0.25599564000E+03  0.00000000000E+00 0.  1.
         -1    1    6    6    0  502 -0.40486443743E+03 -0.21777688761E+03  0.17536082902E+03  0.49202988307E+03  0.00000000000E+00 0.  1.
<mgrwt>
<rscale>  0 0.25973564E+04</rscale>
<asrwt>0</asrwt>
<pdfrwt beam="1">  1        2 0.19170447E+00 0.25973564E+04</pdfrwt>
<pdfrwt beam="2">  1       -2 0.20823042E+00 0.25973564E+04</pdfrwt>
<totfact> 0.18495183E+00</totfact>
</mgrwt>
</event>
<event>
12    1  0.1549527E-007  0.2520334E+04  0.7818608E-02  0.8395777E-01
          2   -1    0    0  501    0  0.00000000000E+00  0.00000000000E+00  0.17666950483E+04  0.17666950483E+04  0.00000000000E+00 0. -1.
         -2   -1    0    0    0  501 -0.00000000000E+00 -0.00000000000E+00 -0.89886509969E+03  0.89886509969E+03  0.00000000000E+00 0.  1.
         23    2    1    2    0    0 -0.98823341996E+03  0.13197179124E+03 -0.11115669020E+03  0.10070851077E+04  0.88559349089E+02 0.  0.
        254    2    1    2    0    0  0.98823341996E+03 -0.13197179124E+03  0.97898663885E+03  0.16584750404E+04  0.89336598013E+03 0.  0.
        -24    2    4    4    0    0  0.17126110605E+03 -0.44262875363E+01 -0.16050900156E+03  0.24828574767E+03  0.80825209234E+02 0.  0.
         24    2    4    4    0    0  0.81697231391E+03 -0.12754550370E+03  0.11394956404E+04  0.14101892927E+04  0.80448179063E+02 0.  0.
         11    1    3    3    0    0 -0.97437522778E+03  0.12857770412E+03 -0.12027240238E+03  0.99015390788E+03  0.00000000000E+00 0.  1.
        -11    1    3    3    0    0 -0.13858192182E+02  0.33940871130E+01  0.91157121871E+01  0.16931199797E+02  0.00000000000E+00 0. -1.
          2    1    6    6  502    0  0.13289141080E+03  0.76851390872E+01  0.19778227356E+03  0.23840515128E+03  0.00000000000E+00 0. -1.
          3    1    5    5  503    0  0.91951820575E+02 -0.25724143826E+02 -0.42494052331E+02  0.10451130736E+03  0.00000000000E+00 0. -1.
         -4    1    5    5    0  503  0.79309285472E+02  0.21297856289E+02 -0.11801494923E+03  0.14377444031E+03  0.00000000000E+00 0.  1.
         -1    1    6    6    0  502  0.68408090312E+03 -0.13523064279E+03  0.94171336685E+03  0.11717841414E+04  0.00000000000E+00 0.  1.
<mgrwt>
<rscale>  0 0.25203337E+04</rscale>
<asrwt>0</asrwt>
<pdfrwt beam="1">  1        2 0.27179924E+00 0.25203337E+04</pdfrwt>
<pdfrwt beam="2">  1       -2 0.13828694E+00 0.25203337E+04</pdfrwt>
<totfact> 0.29734130E+00</totfact>
</mgrwt>
</event>
<event>
12    1  0.1549527E-007  0.1105811E+04  0.7818608E-02  0.9199546E-01
         -1   -1    0    0    0  501 -0.00000000000E+00  0.00000000000E+00  0.12907743594E+03  0.12907743594E+03  0.00000000000E+00 0.  1.
          1   -1    0    0  501    0  0.00000000000E+00 -0.00000000000E+00 -0.23683820721E+04  0.23683820721E+04  0.00000000000E+00 0. -1.
         23    2    1    2    0    0 -0.83694137729E+02 -0.15323750114E+03 -0.44683951908E+03  0.48841829831E+03  0.91653902600E+02 0.  0.
        254    2    1    2    0    0  0.83694137729E+02  0.15323750114E+03 -0.17924651170E+04  0.20090412097E+04  0.89040942604E+03 0.  0.
        -24    2    4    4    0    0  0.22502238788E+02  0.91615170329E+02 -0.18657340421E+04  0.18698079453E+04  0.79489284001E+02 0.  0.
         24    2    4    4    0    0  0.61191898941E+02  0.61622330808E+02  0.73268925047E+02  0.13923326440E+03  0.80472395198E+02 0.  0.
         13    1    3    3    0    0 -0.51750289340E+01 -0.30890702503E+02 -0.19184759576E+02  0.36729707671E+02  0.00000000000E+00 0.  1.
        -13    1    3    3    0    0 -0.78519108795E+02 -0.12234679863E+03 -0.42765475951E+03  0.45168859064E+03  0.00000000000E+00 0. -1.
          4    1    6    6  502    0  0.38546513146E+02  0.23194093310E+02  0.82235904456E+02  0.93736565021E+02  0.00000000000E+00 0. -1.
          3    1    5    5  503    0  0.37598384191E+02  0.93471331521E+02 -0.17707484231E+04  0.17736122761E+04  0.00000000000E+00 0. -1.
         -4    1    5    5    0  503 -0.15096145403E+02 -0.18561611919E+01 -0.94985619027E+02  0.96195669146E+02  0.00000000000E+00 0.  1.
         -3    1    6    6    0  502  0.22645385796E+02  0.38428237499E+02 -0.89669794092E+01  0.45496699384E+02  0.00000000000E+00 0.  1.
<mgrwt>
<rscale>  0 0.11058113E+04</rscale>
<asrwt>0</asrwt>
<pdfrwt beam="1">  1        1 0.36436646E+00 0.11058113E+04</pdfrwt>
<pdfrwt beam="2">  1       -1 0.19858068E-01 0.11058113E+04</pdfrwt>
<totfact> 0.34682060E+01</totfact>
</mgrwt>
</event>
<event>
12    1  0.1549527E-007  0.1276531E+04  0.7818608E-02  0.9048386E-01
         -2   -1    0    0    0  501 -0.00000000000E+00  0.00000000000E+00  0.22091759165E+04  0.22091759165E+04  0.00000000000E+00 0. -1.
          2   -1    0    0  501    0  0.00000000000E+00 -0.00000000000E+00 -0.18440479393E+03  0.18440479393E+03  0.00000000000E+00 0.  1.
         23    2    1    2    0    0  0.11424430637E+02 -0.46233586234E+01  0.11082639766E+04  0.11121303980E+04  0.91831841676E+02 0.  0.
        254    2    1    2    0    0 -0.11424430637E+02  0.46233586234E+01  0.91650714597E+03  0.12814503125E+04  0.89553205509E+03 0.  0.
        -24    2    4    4    0    0  0.20028953201E+03 -0.36688591087E+03  0.62536592042E+03  0.75663518715E+03  0.81811391520E+02 0.  0.
         24    2    4    4    0    0 -0.21171396265E+03  0.37150926949E+03  0.29114122555E+03  0.52481512534E+03  0.88463344225E+02 0.  0.
         13    1    3    3    0    0 -0.15013021432E+02 -0.27287407884E+02  0.92864311548E+03  0.92916523255E+03  0.00000000000E+00 0. -1.
        -13    1    3    3    0    0  0.26437452069E+02  0.22664049261E+02  0.17962086113E+03  0.18296516541E+03  0.00000000000E+00 0.  1.
          2    1    6    6  502    0 -0.13572890370E+03  0.31118460401E+03  0.22088317252E+03  0.40502786197E+03  0.00000000000E+00 0. -1.
          1    1    5    5  503    0  0.19599253462E+03 -0.32183450412E+03  0.58576539989E+03  0.69649955160E+03  0.00000000000E+00 0. -1.
         -2    1    5    5    0  503  0.42969973859E+01 -0.45051406751E+02  0.39600520531E+02  0.60135635551E+02  0.00000000000E+00 0.  1.
         -1    1    6    6    0  502 -0.75985058948E+02  0.60324665480E+02  0.70258053030E+02  0.11978726336E+03  0.00000000000E+00 0.  1.
<mgrwt>
<rscale>  0 0.12765307E+04</rscale>
<asrwt>0</asrwt>
<pdfrwt beam="1">  1        2 0.28369970E-01 0.12765307E+04</pdfrwt>
<pdfrwt beam="2">  1       -2 0.33987320E+00 0.12765307E+04</pdfrwt>
<totfact> 0.33931276E+00</totfact>
</mgrwt>
</event>
<event>
12    1  0.1549527E-007  0.2354583E+04  0.7818608E-02  0.8456705E-01
          2   -1    0    0  501    0  0.00000000000E+00  0.00000000000E+00  0.13041675336E+04  0.13041675336E+04  0.00000000000E+00 0.  1.
         -2   -1    0    0    0  501 -0.00000000000E+00 -0.00000000000E+00 -0.10627588991E+04  0.10627588991E+04  0.00000000000E+00 0. -1.
         23    2    1    2    0    0 -0.15154317284E+03  0.99267867240E+03  0.21645615778E+03  0.10312466919E+04  0.90775500071E+02 0.  0.
        254    2    1    2    0    0  0.15154317284E+03 -0.99267867240E+03  0.24952476645E+02  0.13356797408E+04  0.88036439276E+03 0.  0.
        -24    2    4    4    0    0  0.93959764249E+02  0.14485423421E+03  0.31986786583E+02  0.19381150759E+03  0.82027797073E+02 0.  0.
         24    2    4    4    0    0  0.57583408589E+02 -0.11375329066E+04 -0.70343099374E+01  0.11418682332E+04  0.80725571871E+02 0.  0.
         11    1    3    3    0    0 -0.11502740514E+03  0.84724450742E+03  0.15382703821E+03  0.86874467881E+03  0.00000000000E+00 0.  1.
        -11    1    3    3    0    0 -0.36515767693E+02  0.14543416498E+03  0.62629119568E+02  0.16250201307E+03  0.00000000000E+00 0. -1.
          2    1    6    6  502    0 -0.16586289975E+01 -0.29426405838E+03 -0.33063231896E+02  0.29612035460E+03  0.00000000000E+00 0. -1.
          3    1    5    5  503    0  0.86928110447E+02  0.14054676461E+03  0.51114964541E+02  0.17298158580E+03  0.00000000000E+00 0. -1.
         -2    1    5    5    0  503  0.70316538015E+01  0.43074695997E+01 -0.19128177958E+02  0.20829921784E+02  0.00000000000E+00 0.  1.
         -1    1    6    6    0  502  0.59242037587E+02 -0.84326884823E+03  0.26028921959E+02  0.84574787862E+03  0.00000000000E+00 0.  1.
<mgrwt>
<rscale>  0 0.23545833E+04</rscale>
<asrwt>0</asrwt>
<pdfrwt beam="1">  1        2 0.20064116E+00 0.23545833E+04</pdfrwt>
<pdfrwt beam="2">  1       -2 0.16350137E+00 0.23545833E+04</pdfrwt>
<totfact> 0.35228675E+00</totfact>
</mgrwt>
</event>
<event>
12    1  0.1549527E-007  0.2770107E+04  0.7818608E-02  0.8312609E-01
          1   -1    0    0  501    0  0.00000000000E+00  0.00000000000E+00  0.24201087619E+04  0.24201087619E+04  0.00000000000E+00 0. -1.
         -1   -1    0    0    0  501 -0.00000000000E+00 -0.00000000000E+00 -0.79268057879E+03  0.79268057879E+03  0.00000000000E+00 0.  1.
         23    2    1    2    0    0  0.11443198889E+04 -0.25309692402E+02  0.19089046597E+03  0.11639098051E+04  0.90212392047E+02 0.  0.
        254    2    1    2    0    0 -0.11443198889E+04  0.25309692402E+02  0.14365377172E+04  0.20488795357E+04  0.90783156486E+03 0.  0.
        -24    2    4    4    0    0 -0.86290039536E+03  0.33322283893E+03  0.13104623180E+04  0.16060009247E+04  0.79327993328E+02 0.  0.
         24    2    4    4    0    0 -0.28141949352E+03 -0.30791314653E+03  0.12607539921E+03  0.44287861099E+03  0.78987471444E+02 0.  0.
         11    1    3    3    0    0  0.88030368230E+03 -0.13842680664E+02  0.10835194861E+03  0.88705486732E+03  0.00000000000E+00 0.  1.
        -11    1    3    3    0    0  0.26401620659E+03 -0.11467011738E+02  0.82538517356E+02  0.27685493774E+03  0.00000000000E+00 0. -1.
          4    1    6    6  502    0 -0.20407528760E+03 -0.26990653071E+03  0.99752352905E+02  0.35277016631E+03  0.00000000000E+00 0. -1.
          3    1    5    5  503    0 -0.14309898858E+03  0.64469517248E+02  0.27462037584E+03  0.31630679729E+03  0.00000000000E+00 0. -1.
         -4    1    5    5    0  503 -0.71980140678E+03  0.26875332169E+03  0.10358419421E+04  0.12896941274E+04  0.00000000000E+00 0.  1.
         -3    1    6    6    0  502 -0.77344205921E+02 -0.38006615825E+02  0.26323046305E+02  0.90108444681E+02  0.00000000000E+00 0.  1.
<mgrwt>
<rscale>  0 0.27701070E+04</rscale>
<asrwt>0</asrwt>
<pdfrwt beam="1">  1        1 0.37232442E+00 0.27701070E+04</pdfrwt>
<pdfrwt beam="2">  1       -1 0.12195086E+00 0.27701070E+04</pdfrwt>
<totfact> 0.79432060E-01</totfact>
</mgrwt>
</event>
<event>
12    1  0.1549527E-007  0.1671377E+04  0.7818608E-02  0.8777860E-01
         -1   -1    0    0    0  501 -0.00000000000E+00  0.00000000000E+00  0.52004777051E+03  0.52004777051E+03  0.00000000000E+00 0.  1.
          1   -1    0    0  501    0  0.00000000000E+00 -0.00000000000E+00 -0.13429052936E+04  0.13429052936E+04  0.00000000000E+00 0. -1.
         23    2    1    2    0    0  0.22231370146E+03 -0.16466464345E+03 -0.87934934957E+03  0.92650611344E+03  0.92846502265E+02 0.  0.
        254    2    1    2    0    0 -0.22231370146E+03  0.16466464345E+03  0.56491826506E+02  0.93644695064E+03  0.89286266483E+03 0.  0.
        -24    2    4    4    0    0  0.30792596805E+03 -0.94575395435E+02  0.79137498386E+02  0.34086728607E+03  0.78516595973E+02 0.  0.
         24    2    4    4    0    0 -0.53023966951E+03  0.25924003889E+03 -0.22645671880E+02  0.59557966457E+03  0.76438246366E+02 0.  0.
         11    1    3    3    0    0  0.11667045346E+03 -0.55113884167E+02 -0.28274364727E+03  0.31079495654E+03  0.00000000000E+00 0.  1.
        -11    1    3    3    0    0  0.10564324800E+03 -0.10955075928E+03 -0.59660570231E+03  0.61571115690E+03  0.00000000000E+00 0. -1.
          2    1    6    6  502    0 -0.33853604388E+03  0.17451732148E+03  0.21165901722E+02  0.38145896752E+03  0.00000000000E+00 0. -1.
          1    1    5    5  503    0  0.20173732740E+03 -0.23332831984E+02  0.38560928593E+02  0.20671070493E+03  0.00000000000E+00 0. -1.
         -2    1    5    5    0  503  0.10618864064E+03 -0.71242563451E+02  0.40576569794E+02  0.13415658115E+03  0.00000000000E+00 0.  1.
         -1    1    6    6    0  502 -0.19170362563E+03  0.84722717405E+02 -0.43811573602E+02  0.21412069705E+03  0.00000000000E+00 0.  1.
<mgrwt>
<rscale>  0 0.16713766E+04</rscale>
<asrwt>0</asrwt>
<pdfrwt beam="1">  1        1 0.20660082E+00 0.16713766E+04</pdfrwt>
<pdfrwt beam="2">  1       -1 0.80007349E-01 0.16713766E+04</pdfrwt>
<totfact> 0.12542231E+01</totfact>
</mgrwt>
</event>
<event>
12    1  0.1549527E-007  0.1242713E+04  0.7818608E-02  0.9076270E-01
         -2   -1    0    0    0  501 -0.00000000000E+00  0.00000000000E+00  0.24758515014E+03  0.24758515014E+03  0.00000000000E+00 0.  1.
          2   -1    0    0  501    0  0.00000000000E+00 -0.00000000000E+00 -0.15593996347E+04  0.15593996347E+04  0.00000000000E+00 0. -1.
         23    2    1    2    0    0 -0.98430788000E+02 -0.21190020394E+03 -0.92133357231E+02  0.26838464063E+03  0.94612067697E+02 0.  0.
        254    2    1    2    0    0  0.98430788000E+02  0.21190020394E+03 -0.12196811273E+04  0.15386001442E+04  0.90833806205E+03 0.  0.
        -24    2    4    4    0    0 -0.48555014428E+02  0.48127823318E+03 -0.32385454440E+03  0.58833266004E+03  0.85248025118E+02 0.  0.
         24    2    4    4    0    0  0.14698580243E+03 -0.26937802924E+03 -0.89582658292E+03  0.95026748416E+03  0.79584395673E+02 0.  0.
         11    1    3    3    0    0 -0.43001943299E+01  0.79578763841E+01  0.49013579035E+01  0.10287991890E+02  0.00000000000E+00 0.  1.
        -11    1    3    3    0    0 -0.94130593670E+02 -0.21985808032E+03 -0.97034715134E+02  0.25809664874E+03  0.00000000000E+00 0. -1.
          2    1    6    6  502    0  0.61154718415E+02 -0.10776263140E+03 -0.48411804940E+03  0.49972289327E+03  0.00000000000E+00 0. -1.
          3    1    5    5  503    0  0.18590778176E+02  0.33958652693E+02 -0.29258299493E+02  0.48526850456E+02  0.00000000000E+00 0. -1.
         -4    1    5    5    0  503 -0.67145792604E+02  0.44731958049E+03 -0.29459624491E+03  0.53980580959E+03  0.00000000000E+00 0.  1.
         -1    1    6    6    0  502  0.85831084012E+02 -0.16161539784E+03 -0.41170853353E+03  0.45054459089E+03  0.00000000000E+00 0.  1.
<mgrwt>
<rscale>  0 0.12427135E+04</rscale>
<asrwt>0</asrwt>
<pdfrwt beam="1">  1        2 0.23990764E+00 0.12427135E+04</pdfrwt>
<pdfrwt beam="2">  1       -2 0.38090022E-01 0.12427135E+04</pdfrwt>
<totfact> 0.75213709E+01</totfact>
</mgrwt>
</event>
<event>
12    1  0.1549527E-007  0.3636942E+04  0.7818608E-02  0.8082082E-01
         -2   -1    0    0    0  501 -0.00000000000E+00  0.00000000000E+00  0.14396311088E+04  0.14396311088E+04  0.00000000000E+00 0.  1.
          2   -1    0    0  501    0  0.00000000000E+00 -0.00000000000E+00 -0.22970022330E+04  0.22970022330E+04  0.00000000000E+00 0. -1.
         23    2    1    2    0    0  0.53480034659E+03 -0.94432356084E+03  0.94616809425E+03  0.14426693183E+04  0.91116963796E+02 0.  0.
        254    2    1    2    0    0 -0.53480034659E+03  0.94432356084E+03 -0.18035392184E+04  0.22939640235E+04  0.91200813073E+03 0.  0.
        -24    2    4    4    0    0 -0.39717725166E+03  0.11016155399E+04 -0.13542400314E+04  0.17921041656E+04  0.79779137768E+02 0.  0.
         24    2    4    4    0    0 -0.13762309493E+03 -0.15729197908E+03 -0.44929918705E+03  0.50185985790E+03  0.79452341324E+02 0.  0.
         13    1    3    3    0    0  0.41237988691E+03 -0.77364789312E+03  0.79936276271E+03  0.11864101568E+04  0.00000000000E+00 0.  1.
        -13    1    3    3    0    0  0.12242045968E+03 -0.17067566771E+03  0.14680533155E+03  0.25625916153E+03  0.00000000000E+00 0. -1.
          2    1    6    6  502    0 -0.92310414290E+02 -0.14070493751E+03 -0.28867363860E+03  0.33414302574E+03  0.00000000000E+00 0. -1.
          3    1    5    5  503    0 -0.37752514371E+03  0.10048285514E+04 -0.12644627450E+04  0.16586354890E+04  0.00000000000E+00 0. -1.
         -4    1    5    5    0  503 -0.19652107946E+02  0.96786988499E+02 -0.89777286395E+02  0.13346867663E+03  0.00000000000E+00 0.  1.
         -1    1    6    6    0  502 -0.45312680642E+02 -0.16587041573E+02 -0.16062554845E+03  0.16771683216E+03  0.00000000000E+00 0.  1.
<mgrwt>
<rscale>  0 0.36369415E+04</rscale>
<asrwt>0</asrwt>
<pdfrwt beam="1">  1        2 0.35338495E+00 0.36369415E+04</pdfrwt>
<pdfrwt beam="2">  1       -2 0.22148171E+00 0.36369415E+04</pdfrwt>
<totfact> 0.35772449E-01</totfact>
</mgrwt>
</event>
<event>
12    1  0.1549527E-007  0.2401620E+04  0.7818608E-02  0.8438897E-01
          1   -1    0    0  501    0  0.00000000000E+00  0.00000000000E+00  0.25572991559E+04  0.25572991559E+04  0.00000000000E+00 0. -1.
         -1   -1    0    0    0  501 -0.00000000000E+00 -0.00000000000E+00 -0.56385466623E+03  0.56385466623E+03  0.00000000000E+00 0.  1.
         23    2    1    2    0    0  0.77736239415E+03  0.59945914505E+03  0.45003916690E+03  0.10837078542E+04  0.90795942307E+02 0.  0.
        254    2    1    2    0    0 -0.77736239415E+03 -0.59945914505E+03  0.15434053228E+04  0.20374459679E+04  0.89746449698E+03 0.  0.
        -24    2    4    4    0    0 -0.33763623177E+03 -0.77283457987E+03  0.10496154442E+04  0.13491130016E+04  0.84509156988E+02 0.  0.
         24    2    4    4    0    0 -0.43972616239E+03  0.17337543482E+03  0.49378987858E+03  0.68833296628E+03  0.80967209347E+02 0.  0.
         11    1    3    3    0    0  0.74317170628E+03  0.59071982306E+03  0.44344942446E+03  0.10478079435E+04  0.00000000000E+00 0.  1.
        -11    1    3    3    0    0  0.34190687869E+02  0.87393219923E+01  0.65897424397E+01  0.35899910742E+02  0.00000000000E+00 0. -1.
          2    1    6    6  502    0 -0.10202172983E+03  0.60256647004E+01  0.11797065252E+03  0.15608272437E+03  0.00000000000E+00 0. -1.
          1    1    5    5  503    0 -0.31986782209E+03 -0.68064897715E+03  0.95803121477E+03  0.12179582350E+04  0.00000000000E+00 0. -1.
         -2    1    5    5    0  503 -0.17768409675E+02 -0.92185602728E+02  0.91584229416E+02  0.13115476663E+03  0.00000000000E+00 0.  1.
         -1    1    6    6    0  502 -0.33770443256E+03  0.16734977012E+03  0.37581922606E+03  0.53225024190E+03  0.00000000000E+00 0.  1.
<mgrwt>
<rscale>  0 0.24016203E+04</rscale>
<asrwt>0</asrwt>
<pdfrwt beam="1">  1        1 0.39343063E+00 0.24016203E+04</pdfrwt>
<pdfrwt beam="2">  1       -1 0.86746873E-01 0.24016203E+04</pdfrwt>
<totfact> 0.14500607E+00</totfact>
</mgrwt>
</event>
<event>
12    1  0.1549527E-007  0.3005730E+04  0.7818608E-02  0.8242097E-01
          2   -1    0    0  501    0  0.00000000000E+00  0.00000000000E+00  0.26395634549E+04  0.26395634549E+04  0.00000000000E+00 0. -1.
         -2   -1    0    0    0  501 -0.00000000000E+00 -0.00000000000E+00 -0.85567291875E+03  0.85567291875E+03  0.00000000000E+00 0.  1.
         23    2    1    2    0    0  0.77109986534E+03 -0.55062616865E+02  0.21256612041E+04  0.22637132895E+04  0.91298455664E+02 0.  0.
        254    2    1    2    0    0 -0.77109986534E+03  0.55062616865E+02 -0.34177066794E+03  0.12315230842E+04  0.89566457081E+03 0.  0.
        -24    2    4    4    0    0 -0.47523238590E+02  0.35503468386E+02 -0.48019786786E+03  0.49031898359E+03  0.79396214658E+02 0.  0.
         24    2    4    4    0    0 -0.72357662675E+03  0.19559148479E+02  0.13842719991E+03  0.74120410063E+03  0.79219530727E+02 0.  0.
         13    1    3    3    0    0  0.39279206363E+03  0.17678188246E+02  0.10683943210E+04  0.11384483074E+04  0.00000000000E+00 0. -1.
        -13    1    3    3    0    0  0.37830780172E+03 -0.72740805111E+02  0.10572668831E+04  0.11252649820E+04  0.00000000000E+00 0.  1.
          4    1    6    6  502    0 -0.25996422134E+03  0.40735627639E+02  0.68141573747E+02  0.27181622801E+03  0.00000000000E+00 0. -1.
          3    1    5    5  503    0 -0.33091161749E+02  0.22530173497E+02 -0.46194910827E+03  0.46368050675E+03  0.00000000000E+00 0. -1.
         -4    1    5    5    0  503 -0.14432076841E+02  0.12973294889E+02 -0.18248759586E+02  0.26638476845E+02  0.00000000000E+00 0.  1.
         -3    1    6    6    0  502 -0.46361240541E+03 -0.21176479160E+02  0.70285626166E+02  0.46938787263E+03  0.00000000000E+00 0.  1.
<mgrwt>
<rscale>  0 0.30057298E+04</rscale>
<asrwt>0</asrwt>
<pdfrwt beam="1">  1        2 0.40608668E+00 0.30057298E+04</pdfrwt>
<pdfrwt beam="2">  1       -2 0.13164199E+00 0.30057298E+04</pdfrwt>
<totfact> 0.10377990E+00</totfact>
</mgrwt>
</event>
<event>
12    1  0.1549527E-007  0.1935856E+04  0.7818608E-02  0.8637211E-01
          2   -1    0    0  501    0  0.00000000000E+00  0.00000000000E+00  0.11615378025E+04  0.11615378025E+04  0.00000000000E+00 0. -1.
         -2   -1    0    0    0  501 -0.00000000000E+00 -0.00000000000E+00 -0.80659006831E+03  0.80659006831E+03  0.00000000000E+00 0.  1.
         23    2    1    2    0    0  0.84003195983E+02 -0.39803832069E+03 -0.50554135467E+03  0.65534206053E+03  0.91706670160E+02 0.  0.
        254    2    1    2    0    0 -0.84003195983E+02  0.39803832069E+03  0.86048908890E+03  0.13127858103E+04  0.90414272656E+03 0.  0.
        -24    2    4    4    0    0 -0.17204926965E+03  0.97734486543E+02 -0.14363382263E+03  0.25806829158E+03  0.82556568900E+02 0.  0.
         24    2    4    4    0    0  0.88046073667E+02  0.30030383414E+03  0.10041229115E+04  0.10547175187E+04  0.78941237604E+02 0.  0.
         13    1    3    3    0    0  0.20549855870E+01 -0.79498773633E+02 -0.51724923874E+02  0.94866989647E+02  0.00000000000E+00 0. -1.
        -13    1    3    3    0    0  0.81948210396E+02 -0.31853954705E+03 -0.45381643080E+03  0.56047507089E+03  0.00000000000E+00 0.  1.
          2    1    6    6  502    0  0.15837385234E+02  0.13536507872E+03  0.53892553562E+03  0.55589141048E+03  0.00000000000E+00 0. -1.
          3    1    5    5  503    0 -0.78330265177E+02  0.69269051369E+02 -0.11626586970E+03  0.15637002391E+03  0.00000000000E+00 0. -1.
         -4    1    5    5    0  503 -0.93719004472E+02  0.28465435174E+02 -0.27367952923E+02  0.10169826767E+03  0.00000000000E+00 0.  1.
         -1    1    6    6    0  502  0.72208688433E+02  0.16493875543E+03  0.46519737591E+03  0.49882610826E+03  0.00000000000E+00 0.  1.
<mgrwt>
<rscale>  0 0.19358563E+04</rscale>
<asrwt>0</asrwt>
<pdfrwt beam="1">  1        2 0.17869812E+00 0.19358563E+04</pdfrwt>
<pdfrwt beam="2">  1       -2 0.12409078E+00 0.19358563E+04</pdfrwt>
<totfact> 0.91123025E+00</totfact>
</mgrwt>
</event>
<event>
12    1  0.1549527E-007  0.2132466E+04  0.7818608E-02  0.8547075E-01
         -2   -1    0    0    0  501 -0.00000000000E+00  0.00000000000E+00  0.92093768532E+03  0.92093768532E+03  0.00000000000E+00 0.  1.
          2   -1    0    0  501    0  0.00000000000E+00 -0.00000000000E+00 -0.12344516548E+04  0.12344516548E+04  0.00000000000E+00 0. -1.
         23    2    1    2    0    0  0.56146359673E+03  0.65342902042E+03  0.19640029201E+02  0.86640248598E+03  0.89759020593E+02 0.  0.
        254    2    1    2    0    0 -0.56146359673E+03 -0.65342902042E+03 -0.33315399868E+03  0.12889868541E+04  0.89904653279E+03 0.  0.
        -24    2    4    4    0    0 -0.66030117897E+03 -0.22943445995E+03 -0.44499291741E+03  0.83235392225E+03  0.78463602857E+02 0.  0.
         24    2    4    4    0    0  0.98837582238E+02 -0.42399456047E+03  0.11183891874E+03  0.45663293189E+03  0.80407933527E+02 0.  0.
         11    1    3    3    0    0  0.24033813169E+03  0.31528597229E+03  0.47293674720E+02  0.39925474767E+03  0.00000000000E+00 0. -1.
        -11    1    3    3    0    0  0.32112546504E+03  0.33814304814E+03 -0.27653645519E+02  0.46714773831E+03  0.00000000000E+00 0.  1.
          2    1    6    6  502    0  0.82900809875E+02 -0.20389314398E+03  0.77227937663E+02  0.23325761037E+03  0.00000000000E+00 0. -1.
          1    1    5    5  503    0 -0.45963236573E+03 -0.18116408627E+03 -0.27819766500E+03  0.56698878171E+03  0.00000000000E+00 0. -1.
         -2    1    5    5    0  503 -0.20066881324E+03 -0.48270373684E+02 -0.16679525241E+03  0.26536514053E+03  0.00000000000E+00 0.  1.
         -1    1    6    6    0  502  0.15936772363E+02 -0.22010141649E+03  0.34610981072E+02  0.22337532152E+03  0.00000000000E+00 0.  1.
<mgrwt>
<rscale>  0 0.21324662E+04</rscale>
<asrwt>0</asrwt>
<pdfrwt beam="1">  1        2 0.18991564E+00 0.21324662E+04</pdfrwt>
<pdfrwt beam="2">  1       -2 0.14168272E+00 0.21324662E+04</pdfrwt>
<totfact> 0.57818190E+00</totfact>
</mgrwt>
</event>
<event>
12    1  0.1549527E-007  0.1784841E+04  0.7818608E-02  0.8714403E-01
          1   -1    0    0  501    0  0.00000000000E+00  0.00000000000E+00  0.35253984698E+03  0.35253984698E+03  0.00000000000E+00 0. -1.
         -1   -1    0    0    0  501 -0.00000000000E+00 -0.00000000000E+00 -0.22590755520E+04  0.22590755520E+04  0.00000000000E+00 0.  1.
         23    2    1    2    0    0  0.38059661013E+03  0.38197946159E+03 -0.16542497531E+03  0.57374797554E+03  0.10516286540E+03 0.  0.
        254    2    1    2    0    0 -0.38059661013E+03 -0.38197946159E+03 -0.17411107297E+04  0.20378674235E+04  0.91141372258E+03 0.  0.
        -24    2    4    4    0    0 -0.76521265766E+02  0.23197568228E+03 -0.13678505682E+03  0.29149557907E+03  0.81186818919E+02 0.  0.
         24    2    4    4    0    0 -0.30407534436E+03 -0.61395514387E+03 -0.16043256729E+04  0.17463718444E+04  0.80938374125E+02 0.  0.
         13    1    3    3    0    0  0.12831309647E+03  0.63732514412E+02 -0.43157330135E+02  0.14962833710E+03  0.00000000000E+00 0.  1.
        -13    1    3    3    0    0  0.25228351366E+03  0.31824694718E+03 -0.12226764517E+03  0.42411963844E+03  0.00000000000E+00 0. -1.
          2    1    6    6  502    0 -0.30090914043E+03 -0.56756939266E+03 -0.15176968228E+04  0.16480549057E+04  0.00000000000E+00 0. -1.
          1    1    5    5  503    0 -0.88285246049E+02  0.22725227828E+03 -0.12411811990E+03  0.27357483499E+03  0.00000000000E+00 0. -1.
         -2    1    5    5    0  503  0.11763980282E+02  0.47234039967E+01 -0.12666936921E+02  0.17920744079E+02  0.00000000000E+00 0.  1.
         -1    1    6    6    0  502 -0.31662039296E+01 -0.46385751201E+02 -0.86628850144E+02  0.98316938719E+02  0.00000000000E+00 0.  1.
<mgrwt>
<rscale>  0 0.17848408E+04</rscale>
<asrwt>0</asrwt>
<pdfrwt beam="1">  1        1 0.54236900E-01 0.17848408E+04</pdfrwt>
<pdfrwt beam="2">  1       -1 0.34755008E+00 0.17848408E+04</pdfrwt>
<totfact> 0.10838348E+00</totfact>
</mgrwt>
</event>
<event>
12    1  0.1549527E-007  0.2859710E+04  0.7818608E-02  0.8284967E-01
         -2   -1    0    0    0  501 -0.00000000000E+00  0.00000000000E+00  0.68023938200E+03  0.68023938200E+03  0.00000000000E+00 0.  1.
          2   -1    0    0  501    0  0.00000000000E+00 -0.00000000000E+00 -0.30055385518E+04  0.30055385518E+04  0.00000000000E+00 0. -1.
         23    2    1    2    0    0  0.93812080262E+03  0.87109417126E+03 -0.88795553684E+03  0.15606579457E+04  0.91172872647E+02 0.  0.
        254    2    1    2    0    0 -0.93812080262E+03 -0.87109417126E+03 -0.14373436330E+04  0.21251199881E+04  0.90072334763E+03 0.  0.
        -24    2    4    4    0    0 -0.14546224916E+03 -0.34019917240E+03  0.23444195427E+02  0.37856469521E+03  0.76595400170E+02 0.  0.
         24    2    4    4    0    0 -0.79265855346E+03 -0.53089499886E+03 -0.14607878284E+04  0.17465552929E+04  0.79982680878E+02 0.  0.
         13    1    3    3    0    0  0.23801538706E+03  0.22592445096E+03 -0.18045454403E+03  0.37450904459E+03  0.00000000000E+00 0. -1.
        -13    1    3    3    0    0  0.70010541556E+03  0.64516972030E+03 -0.70750099281E+03  0.11861489012E+04  0.00000000000E+00 0.  1.
          4    1    6    6  502    0 -0.42495531971E+03 -0.26413289440E+03 -0.83137044291E+03  0.97032469978E+03  0.00000000000E+00 0. -1.
          3    1    5    5  503    0 -0.12860626209E+03 -0.30718721067E+03 -0.29946128582E+01  0.33303531457E+03  0.00000000000E+00 0. -1.
         -4    1    5    5    0  503 -0.16855987071E+02 -0.33011961731E+02  0.26438808285E+02  0.45529380635E+02  0.00000000000E+00 0.  1.
         -3    1    6    6    0  502 -0.36770323375E+03 -0.26676210446E+03 -0.62941738551E+03  0.77623059310E+03  0.00000000000E+00 0.  1.
<mgrwt>
<rscale>  0 0.28597103E+04</rscale>
<asrwt>0</asrwt>
<pdfrwt beam="1">  1        2 0.46239056E+00 0.28597103E+04</pdfrwt>
<pdfrwt beam="2">  1       -2 0.10465221E+00 0.28597103E+04</pdfrwt>
<totfact> 0.11077035E+00</totfact>
</mgrwt>
</event>
<event>
12    1  0.1549527E-007  0.2085438E+04  0.7818608E-02  0.8567685E-01
          1   -1    0    0  501    0  0.00000000000E+00  0.00000000000E+00  0.92534127230E+03  0.92534127230E+03  0.00000000000E+00 0. -1.
         -1   -1    0    0    0  501 -0.00000000000E+00 -0.00000000000E+00 -0.11749858726E+04  0.11749858726E+04  0.00000000000E+00 0.  1.
         23    2    1    2    0    0  0.66695048761E+03  0.41919313429E+02  0.43051840428E+03  0.80021152558E+03  0.91718087021E+02 0.  0.
        254    2    1    2    0    0 -0.66695048761E+03 -0.41919313429E+02 -0.68016300456E+03  0.13001156193E+04  0.88379790055E+03 0.  0.
        -24    2    4    4    0    0 -0.61075839762E+03  0.34374452766E+03 -0.37587002360E+03  0.79939199021E+03  0.81013324872E+02 0.  0.
         24    2    4    4    0    0 -0.56192089981E+02 -0.38566384109E+03 -0.30429298097E+03  0.50072362909E+03  0.78966987796E+02 0.  0.
         13    1    3    3    0    0  0.44278587026E+03  0.63024409846E+02  0.31588669354E+03  0.54755438661E+03  0.00000000000E+00 0. -1.
        -13    1    3    3    0    0  0.22416461735E+03 -0.21105096416E+02  0.11463171074E+03  0.25265713897E+03  0.00000000000E+00 0.  1.
          4    1    6    6  502    0 -0.67657054676E+02 -0.34181766965E+03 -0.28959157930E+03  0.45307844700E+03  0.00000000000E+00 0. -1.
          1    1    5    5  503    0 -0.43307640536E+03  0.28455978341E+03 -0.27961786855E+03  0.58882560714E+03  0.00000000000E+00 0. -1.
         -2    1    5    5    0  503 -0.17768199226E+03  0.59184744252E+02 -0.96252155050E+02  0.21056638307E+03  0.00000000000E+00 0.  1.
         -3    1    6    6    0  502  0.11464964695E+02 -0.43846171440E+02 -0.14701401663E+02  0.47645182089E+02  0.00000000000E+00 0.  1.
<mgrwt>
<rscale>  0 0.20854380E+04</rscale>
<asrwt>0</asrwt>
<pdfrwt beam="1">  1        1 0.14236020E+00 0.20854380E+04</pdfrwt>
<pdfrwt beam="2">  1       -1 0.18076706E+00 0.20854380E+04</pdfrwt>
<totfact> 0.32830158E+00</totfact>
</mgrwt>
</event>
<event>
12    1  0.2618303E-007  0.1867293E+04  0.7818608E-02  0.8671310E-01
          2   -1    0    0  501    0  0.00000000000E+00  0.00000000000E+00  0.12411303701E+04  0.12411303701E+04  0.00000000000E+00 0.  1.
         -2   -1    0    0    0  501 -0.00000000000E+00 -0.00000000000E+00 -0.70233988241E+03  0.70233988241E+03  0.00000000000E+00 0. -1.
         23    2    1    2    0    0  0.18458175189E+03  0.60071225455E+02  0.92840573947E+03  0.95302610776E+03  0.92965422278E+02 0.  0.
        254    2    1    2    0    0 -0.18458175189E+03 -0.60071225455E+02 -0.38961525182E+03  0.99044414470E+03  0.88966318574E+03 0.  0.
        -24    2    4    4    0    0 -0.40117144924E+03  0.11112104758E+03 -0.52291411640E+03  0.67289341182E+03  0.77845691212E+02 0.  0.
         24    2    4    4    0    0  0.21658969734E+03 -0.17119227304E+03  0.13329886458E+03  0.31755073289E+03  0.82776743816E+02 0.  0.
         11    1    3    3    0    0  0.30197657452E+02 -0.15981058396E+02  0.74647795950E+02  0.82094982692E+02  0.00000000000E+00 0. -1.
        -11    1    3    3    0    0  0.15438409444E+03  0.76052283851E+02  0.85375794352E+03  0.87093112507E+03  0.00000000000E+00 0.  1.
          4    1    6    6  502    0 -0.13624103046E+01 -0.17104261859E+02 -0.36595139351E+01  0.17544343186E+02  0.00000000000E+00 0. -1.
          3    1    5    5  503    0 -0.14345986679E+02  0.87980209781E+00 -0.50173489559E+02  0.52191574416E+02  0.00000000000E+00 0. -1.
         -4    1    5    5    0  503 -0.38682546256E+03  0.11024124548E+03 -0.47274062684E+03  0.62070183740E+03  0.00000000000E+00 0.  1.
         -3    1    6    6    0  502  0.21795210765E+03 -0.15408801118E+03  0.13695837851E+03  0.30000638970E+03  0.00000000000E+00 0.  1.
<mgrwt>
<rscale>  0 0.18672925E+04</rscale>
<asrwt>0</asrwt>
<pdfrwt beam="1">  1        2 0.19094313E+00 0.18672925E+04</pdfrwt>
<pdfrwt beam="2">  1       -2 0.10805229E+00 0.18672925E+04</pdfrwt>
<totfact> 0.11535022E+01</totfact>
</mgrwt>
</event>
<event>
12    1  0.1549527E-007  0.1992509E+04  0.7818608E-02  0.8610131E-01
         -2   -1    0    0    0  501 -0.00000000000E+00  0.00000000000E+00  0.12767988358E+04  0.12767988358E+04  0.00000000000E+00 0.  1.
          2   -1    0    0  501    0  0.00000000000E+00 -0.00000000000E+00 -0.77735289905E+03  0.77735289905E+03  0.00000000000E+00 0. -1.
         23    2    1    2    0    0  0.38805793496E+03 -0.29216398307E+03  0.84463238993E+03  0.97872855172E+03  0.92503783410E+02 0.  0.
        254    2    1    2    0    0 -0.38805793496E+03  0.29216398307E+03 -0.34518645323E+03  0.10754231831E+04  0.89522767012E+03 0.  0.
        -24    2    4    4    0    0 -0.32666256672E+03 -0.84242686277E+02  0.20368770444E+03  0.40228446141E+03  0.80863120539E+02 0.  0.
         24    2    4    4    0    0 -0.61395368244E+02  0.37640666934E+03 -0.54887415767E+03  0.67313872168E+03  0.80009535063E+02 0.  0.
         11    1    3    3    0    0  0.31377523406E+03 -0.23998151241E+03  0.74952688289E+03  0.84725236617E+03  0.00000000000E+00 0.  1.
        -11    1    3    3    0    0  0.74282700902E+02 -0.52182470660E+02  0.95105507041E+02  0.13147618555E+03  0.00000000000E+00 0. -1.
          4    1    6    6  502    0 -0.51641843356E+02  0.34507807633E+03 -0.45296295289E+03  0.57177022959E+03  0.00000000000E+00 0. -1.
          1    1    5    5  503    0 -0.16443668994E+03 -0.12862080423E+02  0.65194672195E+02  0.17735614845E+03  0.00000000000E+00 0. -1.
         -2    1    5    5    0  503 -0.16222587678E+03 -0.71380605854E+02  0.13849303225E+03  0.22492831296E+03  0.00000000000E+00 0.  1.
         -3    1    6    6    0  502 -0.97535248880E+01  0.31328593016E+02 -0.95911204772E+02  0.10136849209E+03  0.00000000000E+00 0.  1.
<mgrwt>
<rscale>  0 0.19925092E+04</rscale>
<asrwt>0</asrwt>
<pdfrwt beam="1">  1        2 0.11959275E+00 0.19925092E+04</pdfrwt>
<pdfrwt beam="2">  1       -2 0.19643059E+00 0.19925092E+04</pdfrwt>
<totfact> 0.46681817E+00</totfact>
</mgrwt>
</event>
<event>
12    1  0.1549527E-007  0.1977092E+04  0.7818608E-02  0.8617406E-01
          1   -1    0    0  501    0  0.00000000000E+00  0.00000000000E+00  0.16692226079E+04  0.16692226079E+04  0.00000000000E+00 0. -1.
         -1   -1    0    0    0  501 -0.00000000000E+00 -0.00000000000E+00 -0.58543611696E+03  0.58543611696E+03  0.00000000000E+00 0.  1.
         23    2    1    2    0    0 -0.69180415329E+03 -0.36182278044E+03  0.39508422078E+03  0.87966458377E+03  0.90606442731E+02 0.  0.
        254    2    1    2    0    0  0.69180415329E+03  0.36182278044E+03  0.68870227012E+03  0.13749941410E+04  0.89821454012E+03 0.  0.
        -24    2    4    4    0    0  0.54735611012E+03  0.61016523425E+03  0.28166374256E+03  0.87016532559E+03  0.77155075121E+02 0.  0.
         24    2    4    4    0    0  0.14444804317E+03 -0.24834245381E+03  0.40703852756E+03  0.50482881545E+03  0.81440520951E+02 0.  0.
         13    1    3    3    0    0 -0.26808591979E+03 -0.13335715106E+03  0.20096223508E+03  0.36061060725E+03  0.00000000000E+00 0. -1.
        -13    1    3    3    0    0 -0.42371823350E+03 -0.22846562938E+03  0.19412198570E+03  0.51905397652E+03  0.00000000000E+00 0.  1.
          4    1    6    6  502    0  0.10783806803E+03 -0.11275156530E+03  0.24425670096E+03  0.28983322853E+03  0.00000000000E+00 0. -1.
          3    1    5    5  503    0  0.12464222828E+03  0.17526798022E+03  0.48966126298E+02  0.22057250845E+03  0.00000000000E+00 0. -1.
         -4    1    5    5    0  503  0.42271388184E+03  0.43489725403E+03  0.23269761626E+03  0.64959281714E+03  0.00000000000E+00 0.  1.
         -3    1    6    6    0  502  0.36609975141E+02 -0.13559088851E+03  0.16278182660E+03  0.21499558692E+03  0.00000000000E+00 0.  1.
<mgrwt>
<rscale>  0 0.19770920E+04</rscale>
<asrwt>0</asrwt>
<pdfrwt beam="1">  1        1 0.25680348E+00 0.19770920E+04</pdfrwt>
<pdfrwt beam="2">  1       -1 0.90067096E-01 0.19770920E+04</pdfrwt>
<totfact> 0.56067949E+00</totfact>
</mgrwt>
</event>
<event>
12    1  0.1549527E-007  0.2162100E+04  0.7818608E-02  0.8534371E-01
         -2   -1    0    0    0  501 -0.00000000000E+00  0.00000000000E+00  0.16356946975E+04  0.16356946975E+04  0.00000000000E+00 0.  1.
          2   -1    0    0  501    0  0.00000000000E+00 -0.00000000000E+00 -0.71447869876E+03  0.71447869876E+03  0.00000000000E+00 0. -1.
         23    2    1    2    0    0  0.17124155802E+03 -0.66796590391E+03 -0.23220858078E+03  0.73326128779E+03  0.90824948154E+02 0.  0.
        254    2    1    2    0    0 -0.17124155802E+03  0.66796590391E+03  0.11534245796E+04  0.16169121085E+04  0.89917428005E+03 0.  0.
        -24    2    4    4    0    0  0.31928782825E+03  0.60809563979E+02  0.22748360392E+03  0.40314596410E+03  0.71661412026E+02 0.  0.
         24    2    4    4    0    0 -0.49052938628E+03  0.60715633993E+03  0.92594097564E+03  0.12137661444E+04  0.81262925205E+02 0.  0.
         11    1    3    3    0    0  0.17905700852E+03 -0.59024285659E+03 -0.19629848885E+03  0.64728752404E+03  0.00000000000E+00 0. -1.
        -11    1    3    3    0    0 -0.78154504931E+01 -0.77723047321E+02 -0.35910091936E+02  0.85973763755E+02  0.00000000000E+00 0.  1.
          2    1    6    6  502    0 -0.77438986578E+01  0.24471778360E+02  0.50244510373E+02  0.56421154943E+02  0.00000000000E+00 0. -1.
          1    1    5    5  503    0  0.46691634233E+02  0.27532774202E+02  0.62695087625E+02  0.82878443366E+02  0.00000000000E+00 0. -1.
         -2    1    5    5    0  503  0.27259619402E+03  0.33276789777E+02  0.16478851630E+03  0.32026752073E+03  0.00000000000E+00 0.  1.
         -1    1    6    6    0  502 -0.48278548762E+03  0.58268456157E+03  0.87569646527E+03  0.11573449895E+04  0.00000000000E+00 0.  1.
<mgrwt>
<rscale>  0 0.21620999E+04</rscale>
<asrwt>0</asrwt>
<pdfrwt beam="1">  1        2 0.10991980E+00 0.21620999E+04</pdfrwt>
<pdfrwt beam="2">  1       -2 0.25164534E+00 0.21620999E+04</pdfrwt>
<totfact> 0.22974378E+00</totfact>
</mgrwt>
</event>
<event>
12    1  0.1549527E-007  0.2050105E+04  0.7818608E-02  0.8583547E-01
          1   -1    0    0  501    0  0.00000000000E+00  0.00000000000E+00  0.19600281703E+04  0.19600281703E+04  0.00000000000E+00 0. -1.
         -1   -1    0    0    0  501 -0.00000000000E+00 -0.00000000000E+00 -0.53608016703E+03  0.53608016703E+03  0.00000000000E+00 0.  1.
         23    2    1    2    0    0 -0.73030289181E+03 -0.14007985004E+03  0.99998730172E+03  0.12495855894E+04  0.92330187557E+02 0.  0.
        254    2    1    2    0    0  0.73030289181E+03  0.14007985004E+03  0.42396070154E+03  0.12465227479E+04  0.90615208788E+03 0.  0.
        -24    2    4    4    0    0  0.60434128079E+03 -0.29967429697E+03  0.11530574946E+03  0.68894962532E+03  0.79517937821E+02 0.  0.
         24    2    4    4    0    0  0.12596161102E+03  0.43975414701E+03  0.30865495208E+03  0.55757312257E+03  0.79811467245E+02 0.  0.
         11    1    3    3    0    0 -0.55665193212E+02 -0.36611637186E+02  0.96795405548E+02  0.11750904752E+03  0.00000000000E+00 0.  1.
        -11    1    3    3    0    0 -0.67463769859E+03 -0.10346821286E+03  0.90319189617E+03  0.11320765419E+04  0.00000000000E+00 0. -1.
          2    1    6    6  502    0  0.43348110429E+02  0.19084165586E+03  0.17809656242E+03  0.26460911140E+03  0.00000000000E+00 0. -1.
          3    1    5    5  503    0  0.41427379852E+03 -0.16600418599E+03  0.62389350907E+02  0.45063577422E+03  0.00000000000E+00 0. -1.
         -4    1    5    5    0  503  0.19006748227E+03 -0.13367011098E+03  0.52916398553E+02  0.23831385109E+03  0.00000000000E+00 0.  1.
         -1    1    6    6    0  502  0.82613500589E+02  0.24891249115E+03  0.13055838966E+03  0.29296401117E+03  0.00000000000E+00 0.  1.
<mgrwt>
<rscale>  0 0.20501046E+04</rscale>
<asrwt>0</asrwt>
<pdfrwt beam="1">  1        1 0.30154279E+00 0.20501046E+04</pdfrwt>
<pdfrwt beam="2">  1       -1 0.82473873E-01 0.20501046E+04</pdfrwt>
<totfact> 0.42812305E+00</totfact>
</mgrwt>
</event>
<event>
12    1  0.1549527E-007  0.1492948E+04  0.7818608E-02  0.8889156E-01
          1   -1    0    0  501    0  0.00000000000E+00  0.00000000000E+00  0.84267147567E+03  0.84267147567E+03  0.00000000000E+00 0. -1.
         -1   -1    0    0    0  501 -0.00000000000E+00 -0.00000000000E+00 -0.66125841189E+03  0.66125841189E+03  0.00000000000E+00 0.  1.
         23    2    1    2    0    0  0.22533811563E+03  0.15336557918E+02  0.49002083209E+03  0.54739060450E+03  0.92214866740E+02 0.  0.
        254    2    1    2    0    0 -0.22533811563E+03 -0.15336557918E+02 -0.30860776832E+03  0.95653928305E+03  0.87676460295E+03 0.  0.
        -24    2    4    4    0    0  0.31783744827E+03 -0.11460876090E+03 -0.12025590134E+03  0.36758735024E+03  0.80642213834E+02 0.  0.
         24    2    4    4    0    0 -0.54317556390E+03  0.99272202979E+02 -0.18835186698E+03  0.58895193281E+03  0.80580952202E+02 0.  0.
         13    1    3    3    0    0  0.21477759096E+03  0.36684467869E+02  0.41562466506E+03  0.46927500036E+03  0.00000000000E+00 0. -1.
        -13    1    3    3    0    0  0.10560524672E+02 -0.21347909951E+02  0.74396167037E+02  0.78115604141E+02  0.00000000000E+00 0.  1.
          2    1    6    6  502    0 -0.46293679786E+03  0.75492561513E+02 -0.12936457760E+03  0.48656428105E+03  0.00000000000E+00 0. -1.
          3    1    5    5  503    0  0.12086718071E+03 -0.33528522395E+01 -0.35579857863E+02  0.12603984797E+03  0.00000000000E+00 0. -1.
         -4    1    5    5    0  503  0.19697026757E+03 -0.11125590866E+03 -0.84676043475E+02  0.24154750227E+03  0.00000000000E+00 0.  1.
         -1    1    6    6    0  502 -0.80238766041E+02  0.23779641466E+02 -0.58987289373E+02  0.10238765175E+03  0.00000000000E+00 0.  1.
<mgrwt>
<rscale>  0 0.14929482E+04</rscale>
<asrwt>0</asrwt>
<pdfrwt beam="1">  1        1 0.12964177E+00 0.14929482E+04</pdfrwt>
<pdfrwt beam="2">  1       -1 0.10173206E+00 0.14929482E+04</pdfrwt>
<totfact> 0.18022154E+01</totfact>
</mgrwt>
</event>
<event>
12    1  0.1549527E-007  0.1267086E+04  0.7818608E-02  0.9056082E-01
         -3   -1    0    0    0  501 -0.00000000000E+00  0.00000000000E+00  0.38507159476E+03  0.38507159476E+03  0.00000000000E+00 0.  1.
          3   -1    0    0  501    0  0.00000000000E+00 -0.00000000000E+00 -0.10423423775E+04  0.10423423775E+04  0.00000000000E+00 0. -1.
         23    2    1    2    0    0  0.23511526420E+03  0.92934509777E+02  0.52723595629E+02  0.27042585346E+03  0.80214425837E+02 0.  0.
        254    2    1    2    0    0 -0.23511526420E+03 -0.92934509777E+02 -0.70999437833E+03  0.11569881188E+04  0.87784593131E+03 0.  0.
        -24    2    4    4    0    0 -0.55228237096E+02  0.12604213051E+03  0.16743301425E+03  0.23103267353E+03  0.80034399734E+02 0.  0.
         24    2    4    4    0    0 -0.17988702711E+03 -0.21897664028E+03 -0.87742739258E+03  0.92595544523E+03  0.84879595764E+02 0.  0.
         13    1    3    3    0    0  0.13924111595E+03  0.61535722359E+02 -0.84085139181E+01  0.15246454212E+03  0.00000000000E+00 0.  1.
        -13    1    3    3    0    0  0.95874148254E+02  0.31398787417E+02  0.61132109547E+02  0.11796131134E+03  0.00000000000E+00 0. -1.
          4    1    6    6  502    0 -0.35015675537E+02 -0.15730053211E+02 -0.59626440866E+02  0.70914346628E+02  0.00000000000E+00 0. -1.
          3    1    5    5  503    0 -0.90420111220E+01 -0.52723751250E+01  0.43222878863E+02  0.44472161650E+02  0.00000000000E+00 0. -1.
         -4    1    5    5    0  503 -0.46186225974E+02  0.13131450563E+03  0.12421013539E+03  0.18656051188E+03  0.00000000000E+00 0.  1.
         -3    1    6    6    0  502 -0.14487135157E+03 -0.20324658707E+03 -0.81780095172E+03  0.85504109860E+03  0.00000000000E+00 0.  1.
<mgrwt>
<rscale>  0 0.12670855E+04</rscale>
<asrwt>0</asrwt>
<pdfrwt beam="1">  1        3 0.16036036E+00 0.12670855E+04</pdfrwt>
<pdfrwt beam="2">  1       -3 0.59241784E-01 0.12670855E+04</pdfrwt>
<totfact> 0.19508065E+00</totfact>
</mgrwt>
</event>
<event>
12    1  0.1549527E-007  0.3731098E+04  0.7818608E-02  0.8061105E-01
          2   -1    0    0  501    0  0.00000000000E+00  0.00000000000E+00  0.21811077257E+04  0.21811077257E+04  0.00000000000E+00 0. -1.
         -2   -1    0    0    0  501 -0.00000000000E+00 -0.00000000000E+00 -0.15956449801E+04  0.15956449801E+04  0.00000000000E+00 0.  1.
         23    2    1    2    0    0 -0.40097489556E+03  0.86264422101E+02 -0.14536358458E+04  0.15131130203E+04  0.90727187630E+02 0.  0.
        254    2    1    2    0    0  0.40097489556E+03 -0.86264422101E+02  0.20390985914E+04  0.22636396855E+04  0.89326319912E+03 0.  0.
        -24    2    4    4    0    0  0.59536092398E+03 -0.23092450208E+03  0.18105028117E+04  0.19215058245E+04  0.80519856064E+02 0.  0.
         24    2    4    4    0    0 -0.19438602842E+03  0.14466007998E+03  0.22859577974E+03  0.34213386096E+03  0.78019750788E+02 0.  0.
         13    1    3    3    0    0 -0.36186525751E+03  0.50974586022E+02 -0.12168737410E+04  0.12705615194E+04  0.00000000000E+00 0.  1.
        -13    1    3    3    0    0 -0.39109638051E+02  0.35289836079E+02 -0.23676210482E+03  0.24255150092E+03  0.00000000000E+00 0. -1.
          4    1    6    6  502    0 -0.41549766747E+02  0.65579645281E+02  0.10352643751E+03  0.12940168567E+03  0.00000000000E+00 0. -1.
          3    1    5    5  503    0  0.15847657501E+03 -0.97529519116E+02  0.56716090666E+03  0.59690730099E+03  0.00000000000E+00 0. -1.
         -4    1    5    5    0  503  0.43688434897E+03 -0.13339498297E+03  0.12433419050E+04  0.13245985235E+04  0.00000000000E+00 0.  1.
         -3    1    6    6    0  502 -0.15283626168E+03  0.79080434704E+02  0.12506934223E+03  0.21273217529E+03  0.00000000000E+00 0.  1.
<mgrwt>
<rscale>  0 0.37310983E+04</rscale>
<asrwt>0</asrwt>
<pdfrwt beam="1">  1        2 0.33555504E+00 0.37310983E+04</pdfrwt>
<pdfrwt beam="2">  1       -2 0.24548384E+00 0.37310983E+04</pdfrwt>
<totfact> 0.29236854E-01</totfact>
</mgrwt>
</event>
<event>
12    1  0.1549527E-007  0.2315539E+04  0.7818608E-02  0.8471819E-01
          2   -1    0    0  501    0  0.00000000000E+00  0.00000000000E+00  0.27999818929E+04  0.27999818929E+04  0.00000000000E+00 0. -1.
         -2   -1    0    0    0  501 -0.00000000000E+00 -0.00000000000E+00 -0.47872824386E+03  0.47872824386E+03  0.00000000000E+00 0.  1.
         23    2    1    2    0    0  0.84691450433E+03  0.20830366845E+03  0.16222505026E+04  0.18441959846E+04  0.93314203968E+02 0.  0.
        254    2    1    2    0    0 -0.84691450433E+03 -0.20830366845E+03  0.69900314640E+03  0.14345141521E+04  0.89920568164E+03 0.  0.
        -24    2    4    4    0    0  0.93293300673E+02  0.74572396304E+02  0.36788108416E+03  0.39520954481E+03  0.81175180826E+02 0.  0.
         24    2    4    4    0    0 -0.94020780501E+03 -0.28287606476E+03  0.33112206224E+03  0.10393046073E+04  0.80639084711E+02 0.  0.
         13    1    3    3    0    0  0.66758127965E+02 -0.77371573334E+01  0.14003288594E+03  0.15532456469E+03  0.00000000000E+00 0. -1.
        -13    1    3    3    0    0  0.78015637637E+03  0.21604082578E+03  0.14822176167E+04  0.16888714199E+04  0.00000000000E+00 0.  1.
          4    1    6    6  502    0 -0.33310067617E+03 -0.71025226490E+02  0.14253731620E+03  0.36921203904E+03  0.00000000000E+00 0. -1.
          1    1    5    5  503    0 -0.12986766886E+02  0.20751590080E+01  0.17045466062E+02  0.21529289638E+02  0.00000000000E+00 0. -1.
         -2    1    5    5    0  503  0.10628006756E+03  0.72497237296E+02  0.35083561810E+03  0.37368025517E+03  0.00000000000E+00 0.  1.
         -3    1    6    6    0  502 -0.60710712884E+03 -0.21185083827E+03  0.18858474605E+03  0.67009256823E+03  0.00000000000E+00 0.  1.
<mgrwt>
<rscale>  0 0.23155392E+04</rscale>
<asrwt>0</asrwt>
<pdfrwt beam="1">  1        2 0.43076644E+00 0.23155392E+04</pdfrwt>
<pdfrwt beam="2">  1       -2 0.73650500E-01 0.23155392E+04</pdfrwt>
<totfact> 0.34818462E+00</totfact>
</mgrwt>
</event>
<event>
12    1  0.1549527E-007  0.1303163E+04  0.7818608E-02  0.9027061E-01
          2   -1    0    0  501    0  0.00000000000E+00  0.00000000000E+00  0.16497705788E+04  0.16497705788E+04  0.00000000000E+00 0. -1.
         -2   -1    0    0    0  501 -0.00000000000E+00 -0.00000000000E+00 -0.25734379695E+03  0.25734379695E+03  0.00000000000E+00 0.  1.
         23    2    1    2    0    0  0.13436508500E+03  0.10531900508E+03  0.80032977524E+03  0.82333173935E+03  0.90561222363E+02 0.  0.
        254    2    1    2    0    0 -0.13436508500E+03 -0.10531900508E+03  0.59209700657E+03  0.10837826364E+04  0.89154913986E+03 0.  0.
        -24    2    4    4    0    0 -0.44125648307E+03 -0.15964656773E+03  0.84689674320E+02  0.48328048665E+03  0.78698013963E+02 0.  0.
         24    2    4    4    0    0  0.30689139808E+03  0.54327562646E+02  0.50740733225E+03  0.60050214970E+03  0.77503656068E+02 0.  0.
         13    1    3    3    0    0  0.52022376793E+02  0.81532312548E+02  0.55733033424E+03  0.56565974503E+03  0.00000000000E+00 0. -1.
        -13    1    3    3    0    0  0.82342708204E+02  0.23786692534E+02  0.24299944099E+03  0.25767199433E+03  0.00000000000E+00 0.  1.
          4    1    6    6  502    0  0.34814602465E+02 -0.12614538819E+02  0.94574119782E+02  0.10156499036E+03  0.00000000000E+00 0. -1.
          3    1    5    5  503    0 -0.44953566006E+02  0.62924920242E+01  0.10484799124E+00  0.45391954636E+02  0.00000000000E+00 0. -1.
         -4    1    5    5    0  503 -0.39630291707E+03 -0.16593905975E+03  0.84584826329E+02  0.43788853202E+03  0.00000000000E+00 0.  1.
         -3    1    6    6    0  502  0.27207679561E+03  0.66942101465E+02  0.41283321246E+03  0.49893715934E+03  0.00000000000E+00 0.  1.
<mgrwt>
<rscale>  0 0.13031627E+04</rscale>
<asrwt>0</asrwt>
<pdfrwt beam="1">  1        2 0.25381085E+00 0.13031627E+04</pdfrwt>
<pdfrwt beam="2">  1       -2 0.39591354E-01 0.13031627E+04</pdfrwt>
<totfact> 0.61839849E+01</totfact>
</mgrwt>
</event>
<event>
12    1  0.1549527E-007  0.1626278E+04  0.7818608E-02  0.8804565E-01
         -2   -1    0    0    0  501 -0.00000000000E+00  0.00000000000E+00  0.24538851941E+03  0.24538851941E+03  0.00000000000E+00 0.  1.
          2   -1    0    0  501    0  0.00000000000E+00 -0.00000000000E+00 -0.26944816402E+04  0.26944816402E+04  0.00000000000E+00 0. -1.
         23    2    1    2    0    0  0.29638901081E+03 -0.29000910777E+02 -0.16750243316E+04  0.17038445368E+04  0.93231944692E+02 0.  0.
        254    2    1    2    0    0 -0.29638901081E+03  0.29000910777E+02 -0.77406878920E+03  0.12360256228E+04  0.91645477320E+03 0.  0.
        -24    2    4    4    0    0 -0.23877299461E+03  0.45645023116E+03 -0.47634474630E+03  0.70582086961E+03  0.76937807114E+02 0.  0.
         24    2    4    4    0    0 -0.57616016200E+02 -0.42744932038E+03 -0.29772404289E+03  0.53020475322E+03  0.80280432224E+02 0.  0.
         11    1    3    3    0    0  0.80520661040E+02 -0.40068021390E+02 -0.35362589662E+03  0.36488395135E+03  0.00000000000E+00 0.  1.
        -11    1    3    3    0    0  0.21586834977E+03  0.11067110614E+02 -0.13213984350E+04  0.13389605854E+04  0.00000000000E+00 0. -1.
          4    1    6    6  502    0  0.98895737830E+01 -0.20282204374E+03 -0.15698535442E+03  0.25666902150E+03  0.00000000000E+00 0. -1.
          3    1    5    5  503    0 -0.18162528037E+03  0.38820291515E+03 -0.42228933087E+03  0.60167892165E+03  0.00000000000E+00 0. -1.
         -4    1    5    5    0  503 -0.57147714244E+02  0.68247316012E+02 -0.54055415439E+02  0.10414194796E+03  0.00000000000E+00 0.  1.
         -1    1    6    6    0  502 -0.67505589983E+02 -0.22462727665E+03 -0.14073868847E+03  0.27353573171E+03  0.00000000000E+00 0.  1.
<mgrwt>
<rscale>  0 0.16262778E+04</rscale>
<asrwt>0</asrwt>
<pdfrwt beam="1">  1        2 0.41453566E+00 0.16262778E+04</pdfrwt>
<pdfrwt beam="2">  1       -2 0.37752078E-01 0.16262778E+04</pdfrwt>
<totfact> 0.17007342E+01</totfact>
</mgrwt>
</event>
<event>
12    1  0.1549527E-007  0.1433531E+04  0.7818608E-02  0.8929898E-01
          2   -1    0    0  501    0  0.00000000000E+00  0.00000000000E+00  0.15878068109E+04  0.15878068109E+04  0.00000000000E+00 0.  1.
         -2   -1    0    0    0  501 -0.00000000000E+00 -0.00000000000E+00 -0.32356131966E+03  0.32356131966E+03  0.00000000000E+00 0. -1.
         23    2    1    2    0    0  0.32126152051E+03 -0.47521214426E+02  0.76049100978E+03  0.83213579604E+03  0.92931032032E+02 0.  0.
        254    2    1    2    0    0 -0.32126152051E+03  0.47521214426E+02  0.50375448148E+03  0.10792323345E+04  0.89750020830E+03 0.  0.
        -24    2    4    4    0    0 -0.40135651489E+02  0.24547884205E+03 -0.17408631348E+03  0.31506952651E+03  0.84214188717E+02 0.  0.
         24    2    4    4    0    0 -0.28112586902E+03 -0.19795762762E+03  0.67784079496E+03  0.76416280802E+03  0.79105481999E+02 0.  0.
         11    1    3    3    0    0  0.13913480431E+02 -0.15412217900E+02  0.11040202325E+03  0.11233756334E+03  0.00000000000E+00 0. -1.
        -11    1    3    3    0    0  0.30734804008E+03 -0.32108996526E+02  0.65008898653E+03  0.71979823271E+03  0.00000000000E+00 0.  1.
          2    1    6    6  502    0 -0.16034037349E+03 -0.14754882146E+03  0.36573651570E+03  0.42572630762E+03  0.00000000000E+00 0. -1.
          3    1    5    5  503    0 -0.38534892865E+02  0.25006674987E+03 -0.15807887296E+03  0.29834082428E+03  0.00000000000E+00 0. -1.
         -4    1    5    5    0  503 -0.16007586243E+01 -0.45879078169E+01 -0.16007440520E+02  0.16728702231E+02  0.00000000000E+00 0.  1.
         -1    1    6    6    0  502 -0.12078549553E+03 -0.50408806165E+02  0.31210427926E+03  0.33843650040E+03  0.00000000000E+00 0.  1.
<mgrwt>
<rscale>  0 0.14335311E+04</rscale>
<asrwt>0</asrwt>
<pdfrwt beam="1">  1        2 0.24427797E+00 0.14335311E+04</pdfrwt>
<pdfrwt beam="2">  1       -2 0.49778666E-01 0.14335311E+04</pdfrwt>
<totfact> 0.41995844E+01</totfact>
</mgrwt>
</event>
<event>
12    1  0.1549527E-007  0.1667998E+04  0.7818608E-02  0.8779829E-01
         -1   -1    0    0    0  501 -0.00000000000E+00  0.00000000000E+00  0.11663924692E+04  0.11663924692E+04  0.00000000000E+00 0.  1.
          1   -1    0    0  501    0  0.00000000000E+00 -0.00000000000E+00 -0.59632990784E+03  0.59632990784E+03  0.00000000000E+00 0. -1.
         23    2    1    2    0    0 -0.23430150994E+03  0.16881606321E+03  0.71977753462E+03  0.78155930705E+03  0.96742908457E+02 0.  0.
        254    2    1    2    0    0  0.23430150994E+03 -0.16881606321E+03 -0.14971497325E+03  0.98116307000E+03  0.92567290981E+03 0.  0.
        -24    2    4    4    0    0  0.23851891366E+03  0.26587376807E+03 -0.34021176580E+03  0.49985797810E+03  0.80832047827E+02 0.  0.
         24    2    4    4    0    0 -0.42174037140E+01 -0.43468983128E+03  0.19049679256E+03  0.48130509190E+03  0.79953283862E+02 0.  0.
         13    1    3    3    0    0  0.68960918149E+01 -0.38132396510E+01  0.16154964773E+02  0.17974419761E+02  0.00000000000E+00 0. -1.
        -13    1    3    3    0    0 -0.24119760176E+03  0.17262930286E+03  0.70362256985E+03  0.76358488729E+03  0.00000000000E+00 0.  1.
          2    1    6    6  502    0  0.31178980325E+02 -0.10375433340E+03  0.34184564206E+02  0.11360314672E+03  0.00000000000E+00 0. -1.
          3    1    5    5  503    0  0.35962858653E+02  0.64276342345E+02 -0.11242552068E+03  0.13440339686E+03  0.00000000000E+00 0. -1.
         -4    1    5    5    0  503  0.20255605500E+03  0.20159742573E+03 -0.22778624512E+03  0.36545458123E+03  0.00000000000E+00 0.  1.
         -1    1    6    6    0  502 -0.35396384039E+02 -0.33093549788E+03  0.15631222835E+03  0.36770194518E+03  0.00000000000E+00 0.  1.
<mgrwt>
<rscale>  0 0.16679985E+04</rscale>
<asrwt>0</asrwt>
<pdfrwt beam="1">  1        1 0.91743063E-01 0.16679985E+04</pdfrwt>
<pdfrwt beam="2">  1       -1 0.17944500E+00 0.16679985E+04</pdfrwt>
<totfact> 0.69238764E+00</totfact>
</mgrwt>
</event>
<event>
12    1  0.1549527E-007  0.1378194E+04  0.7818608E-02  0.8969756E-01
         -2   -1    0    0    0  501 -0.00000000000E+00  0.00000000000E+00  0.39201038399E+03  0.39201038399E+03  0.00000000000E+00 0.  1.
          2   -1    0    0  501    0  0.00000000000E+00 -0.00000000000E+00 -0.12113324288E+04  0.12113324288E+04  0.00000000000E+00 0. -1.
         23    2    1    2    0    0 -0.28468496718E+03  0.25015095998E+03 -0.10518104860E+03  0.39825597156E+03  0.62639704533E+02 0.  0.
        254    2    1    2    0    0  0.28468496718E+03 -0.25015095998E+03 -0.71414099624E+03  0.12050868413E+04  0.89365312015E+03 0.  0.
        -24    2    4    4    0    0  0.39776435722E+03 -0.52472654489E+03 -0.48099993331E+03  0.81935392601E+03  0.80159150633E+02 0.  0.
         24    2    4    4    0    0 -0.11307939005E+03  0.27457558491E+03 -0.23314106293E+03  0.38573291525E+03  0.79097575229E+02 0.  0.
         13    1    3    3    0    0 -0.25489476800E+03  0.23996900642E+03 -0.10872364581E+03  0.36657509184E+03  0.00000000000E+00 0.  1.
        -13    1    3    3    0    0 -0.29790199174E+02  0.10181953562E+02  0.35425972096E+01  0.31680879725E+02  0.00000000000E+00 0. -1.
          4    1    6    6  502    0 -0.11839542002E+03  0.20548430847E+03 -0.16802402516E+03  0.29064299328E+03  0.00000000000E+00 0. -1.
          1    1    5    5  503    0  0.33377735889E+03 -0.42401897883E+03 -0.35559440201E+03  0.64625598524E+03  0.00000000000E+00 0. -1.
         -2    1    5    5    0  503  0.63986998333E+02 -0.10070756606E+03 -0.12540553130E+03  0.17309794077E+03  0.00000000000E+00 0.  1.
         -3    1    6    6    0  502  0.53160299740E+01  0.69091276435E+02 -0.65117037763E+02  0.95089921974E+02  0.00000000000E+00 0.  1.
<mgrwt>
<rscale>  0 0.13781943E+04</rscale>
<asrwt>0</asrwt>
<pdfrwt beam="1">  1        2 0.18635883E+00 0.13781943E+04</pdfrwt>
<pdfrwt beam="2">  1       -2 0.60309291E-01 0.13781943E+04</pdfrwt>
<totfact> 0.46570185E+01</totfact>
</mgrwt>
</event>
<event>
12    1  0.1549527E-007  0.1051735E+04  0.7818608E-02  0.9253554E-01
         -1   -1    0    0    0  501 -0.00000000000E+00  0.00000000000E+00  0.42792508396E+03  0.42792508396E+03  0.00000000000E+00 0.  1.
          1   -1    0    0  501    0  0.00000000000E+00 -0.00000000000E+00 -0.64622716548E+03  0.64622716548E+03  0.00000000000E+00 0. -1.
         23    2    1    2    0    0  0.76033280556E+02 -0.25459707967E+02  0.27972231790E+02  0.12473563427E+03  0.91363429353E+02 0.  0.
        254    2    1    2    0    0 -0.76033280556E+02  0.25459707967E+02 -0.24627431331E+03  0.94941661517E+03  0.91340659910E+03 0.  0.
        -24    2    4    4    0    0 -0.16565780576E+02 -0.43510721343E+03 -0.80885285953E+02  0.45010763829E+03  0.80384975596E+02 0.  0.
         24    2    4    4    0    0 -0.59467499980E+02  0.46056692140E+03 -0.16538902736E+03  0.49930897687E+03  0.79357743014E+02 0.  0.
         11    1    3    3    0    0  0.36619255337E+02  0.30463426483E+02 -0.65845547419E+01  0.48086864897E+02  0.00000000000E+00 0. -1.
        -11    1    3    3    0    0  0.39414025219E+02 -0.55923134450E+02  0.34556786532E+02  0.76648769371E+02  0.00000000000E+00 0.  1.
          2    1    6    6  502    0  0.39953973139E+01  0.21906416049E+03 -0.10203923845E+03  0.24169624696E+03  0.00000000000E+00 0. -1.
          3    1    5    5  503    0 -0.24141280732E+02 -0.97303019475E+02  0.84489618606E+01  0.10060846878E+03  0.00000000000E+00 0. -1.
         -4    1    5    5    0  503  0.75755001557E+01 -0.33780419396E+03 -0.89334247814E+02  0.34949916951E+03  0.00000000000E+00 0.  1.
         -1    1    6    6    0  502 -0.63462897294E+02  0.24150276090E+03 -0.63349788909E+02  0.25761272991E+03  0.00000000000E+00 0.  1.
<mgrwt>
<rscale>  0 0.10517354E+04</rscale>
<asrwt>0</asrwt>
<pdfrwt beam="1">  1        1 0.99419563E-01 0.10517354E+04</pdfrwt>
<pdfrwt beam="2">  1       -1 0.65834629E-01 0.10517354E+04</pdfrwt>
<totfact> 0.71830451E+01</totfact>
</mgrwt>
</event>
<event>
12    1  0.1549527E-007  0.1490820E+04  0.7818608E-02  0.8890581E-01
          1   -1    0    0  501    0  0.00000000000E+00  0.00000000000E+00  0.59452636581E+03  0.59452636581E+03  0.00000000000E+00 0. -1.
         -1   -1    0    0    0  501 -0.00000000000E+00 -0.00000000000E+00 -0.93458579979E+03  0.93458579979E+03  0.00000000000E+00 0.  1.
         23    2    1    2    0    0 -0.19875924019E+03  0.40107431298E+03  0.88379844519E+02  0.46521939083E+03  0.90841865866E+02 0.  0.
        254    2    1    2    0    0  0.19875924019E+03 -0.40107431298E+03 -0.42843927850E+03  0.10638927748E+04  0.86483627395E+03 0.  0.
        -24    2    4    4    0    0 -0.11483797380E+03 -0.53590196750E+03 -0.44845662692E+03  0.71269022508E+03  0.80220519262E+02 0.  0.
         24    2    4    4    0    0  0.31359721399E+03  0.13482765452E+03  0.20017348419E+02  0.35120254968E+03  0.80130066900E+02 0.  0.
         13    1    3    3    0    0 -0.89476086819E+02  0.10804512364E+03  0.55069707918E+02  0.15070630904E+03  0.00000000000E+00 0.  1.
        -13    1    3    3    0    0 -0.10928315337E+03  0.29302918934E+03  0.33310136601E+02  0.31451308179E+03  0.00000000000E+00 0. -1.
          2    1    6    6  502    0  0.26591154279E+03  0.11059067176E+03  0.46154615362E+02  0.29166675126E+03  0.00000000000E+00 0. -1.
          3    1    5    5  503    0 -0.12178377342E+03 -0.53181520542E+03 -0.44439406338E+03  0.70366524978E+03  0.00000000000E+00 0. -1.
         -4    1    5    5    0  503  0.69457996244E+01 -0.40867620776E+01 -0.40625635406E+01  0.90249753031E+01  0.00000000000E+00 0.  1.
         -1    1    6    6    0  502  0.47685671192E+02  0.24236982760E+02 -0.26137266943E+02  0.59535798421E+02  0.00000000000E+00 0.  1.
<mgrwt>
<rscale>  0 0.14908198E+04</rscale>
<asrwt>0</asrwt>
<pdfrwt beam="1">  1        1 0.91465595E-01 0.14908198E+04</pdfrwt>
<pdfrwt beam="2">  1       -1 0.14378243E+00 0.14908198E+04</pdfrwt>
<totfact> 0.13129183E+01</totfact>
</mgrwt>
</event>
<event>
12    1  0.1549527E-007  0.2604128E+04  0.7818608E-02  0.8366800E-01
          2   -1    0    0  501    0  0.00000000000E+00  0.00000000000E+00  0.29311283075E+04  0.29311283075E+04  0.00000000000E+00 0. -1.
         -2   -1    0    0    0  501 -0.00000000000E+00 -0.00000000000E+00 -0.57840212517E+03  0.57840212517E+03  0.00000000000E+00 0.  1.
         23    2    1    2    0    0 -0.10589525912E+04 -0.34965744742E+03  0.83764641869E+03  0.13987433699E+04  0.10578549597E+03 0.  0.
        254    2    1    2    0    0  0.10589525912E+04  0.34965744742E+03  0.15150797636E+04  0.21107870627E+04  0.95724313175E+03 0.  0.
        -24    2    4    4    0    0  0.74917584827E+03  0.21365233480E+03  0.28623268628E+03  0.83372226679E+03  0.79068929773E+02 0.  0.
         24    2    4    4    0    0  0.30977674291E+03  0.13600511262E+03  0.12288470773E+04  0.12770647959E+04  0.79814362957E+02 0.  0.
         13    1    3    3    0    0 -0.14652702662E+03 -0.24714844393E+02  0.14814041519E+03  0.20982510735E+03  0.00000000000E+00 0. -1.
        -13    1    3    3    0    0 -0.91242556456E+03 -0.32494260303E+03  0.68950600350E+03  0.11889182625E+04  0.00000000000E+00 0.  1.
          2    1    6    6  502    0  0.21026153742E+03  0.55233276389E+02  0.83798737814E+03  0.86572713649E+03  0.00000000000E+00 0. -1.
          1    1    5    5  503    0  0.54048687396E+03  0.17707744103E+03  0.23730696731E+03  0.61627678666E+03  0.00000000000E+00 0. -1.
         -4    1    5    5    0  503  0.20868897431E+03  0.36574893770E+02  0.48925718972E+02  0.21744548013E+03  0.00000000000E+00 0.  1.
         -1    1    6    6    0  502  0.99515205491E+02  0.80771836231E+02  0.39085969917E+03  0.41133765945E+03  0.00000000000E+00 0.  1.
<mgrwt>
<rscale>  0 0.26041281E+04</rscale>
<asrwt>0</asrwt>
<pdfrwt beam="1">  1        2 0.45094281E+00 0.26041281E+04</pdfrwt>
<pdfrwt beam="2">  1       -2 0.88984944E-01 0.26041281E+04</pdfrwt>
<totfact> 0.18434989E+00</totfact>
</mgrwt>
</event>
<event>
12    1  0.1549527E-007  0.1302625E+04  0.7818608E-02  0.9027486E-01
         -2   -1    0    0    0  501 -0.00000000000E+00  0.00000000000E+00  0.74028614039E+03  0.74028614039E+03  0.00000000000E+00 0.  1.
          2   -1    0    0  501    0  0.00000000000E+00 -0.00000000000E+00 -0.57303221307E+03  0.57303221307E+03  0.00000000000E+00 0. -1.
         23    2    1    2    0    0 -0.12971510842E+03 -0.48620301095E+02  0.34730749877E+03  0.38547769892E+03  0.93704933874E+02 0.  0.
        254    2    1    2    0    0  0.12971510842E+03  0.48620301095E+02 -0.18005357145E+03  0.92784065454E+03  0.89959938228E+03 0.  0.
        -24    2    4    4    0    0  0.46676303509E+03 -0.61989026745E+02 -0.27646807078E+03  0.55194864535E+03  0.80637104210E+02 0.  0.
         24    2    4    4    0    0 -0.33704792667E+03  0.11060932784E+03  0.96414499334E+02  0.37589200920E+03  0.78506806198E+02 0.  0.
         11    1    3    3    0    0 -0.90378155278E+02 -0.76997731038E+02  0.24470973938E+03  0.27199212872E+03  0.00000000000E+00 0.  1.
        -11    1    3    3    0    0 -0.39336953143E+02  0.28377429943E+02  0.10259775938E+03  0.11348557020E+03  0.00000000000E+00 0. -1.
          4    1    6    6  502    0 -0.14661128277E+03  0.13971933828E+02  0.17883471899E+02  0.14835734474E+03  0.00000000000E+00 0. -1.
          1    1    5    5  503    0  0.24699925932E+03  0.76837611528E+01 -0.14716354681E+03  0.28761916452E+03  0.00000000000E+00 0. -1.
         -4    1    5    5    0  503  0.21976377576E+03 -0.69672787898E+02 -0.12930452397E+03  0.26432948082E+03  0.00000000000E+00 0.  1.
         -3    1    6    6    0  502 -0.19043664390E+03  0.96637394012E+02  0.78531027435E+02  0.22753466446E+03  0.00000000000E+00 0.  1.
<mgrwt>
<rscale>  0 0.13026247E+04</rscale>
<asrwt>0</asrwt>
<pdfrwt beam="1">  1        2 0.88158801E-01 0.13026247E+04</pdfrwt>
<pdfrwt beam="2">  1       -2 0.11389018E+00 0.13026247E+04</pdfrwt>
<totfact> 0.31016102E+01</totfact>
</mgrwt>
</event>
<event>
12    1  0.1549527E-007  0.1278561E+04  0.7818608E-02  0.9046741E-01
          2   -1    0    0  501    0  0.00000000000E+00  0.00000000000E+00  0.27746684102E+04  0.27746684102E+04  0.00000000000E+00 0. -1.
         -2   -1    0    0    0  501 -0.00000000000E+00 -0.00000000000E+00 -0.14728958311E+03  0.14728958311E+03  0.00000000000E+00 0.  1.
         23    2    1    2    0    0  0.14087874863E+03 -0.15475508423E+02  0.10869374430E+04  0.10999393926E+04  0.91363828807E+02 0.  0.
        254    2    1    2    0    0 -0.14087874863E+03  0.15475508423E+02  0.15404413841E+04  0.18220186008E+04  0.96265560321E+03 0.  0.
        -24    2    4    4    0    0  0.13471355880E+03  0.43300925185E+03  0.63366272686E+03  0.78324205949E+03  0.79340514445E+02 0.  0.
         24    2    4    4    0    0 -0.27559230744E+03 -0.41753374342E+03  0.90677865727E+03  0.10387765413E+04  0.80768945737E+02 0.  0.
         13    1    3    3    0    0  0.98487055964E+02  0.48380727407E+00  0.96228904232E+03  0.96731594385E+03  0.00000000000E+00 0. -1.
        -13    1    3    3    0    0  0.42391692669E+02 -0.15959315697E+02  0.12464840068E+03  0.13262344875E+03  0.00000000000E+00 0.  1.
          4    1    6    6  502    0 -0.15921235917E+03 -0.21000282095E+03  0.55083871961E+03  0.61063332298E+03  0.00000000000E+00 0. -1.
          1    1    5    5  503    0  0.10006934044E+03  0.36079802564E+03  0.56470228203E+03  0.67755276955E+03  0.00000000000E+00 0. -1.
         -2    1    5    5    0  503  0.34644218359E+02  0.72211226203E+02  0.68960444834E+02  0.10568928994E+03  0.00000000000E+00 0.  1.
         -3    1    6    6    0  502 -0.11637994827E+03 -0.20753092247E+03  0.35593993766E+03  0.42814321828E+03  0.00000000000E+00 0.  1.
<mgrwt>
<rscale>  0 0.12785613E+04</rscale>
<asrwt>0</asrwt>
<pdfrwt beam="1">  1        2 0.42687202E+00 0.12785613E+04</pdfrwt>
<pdfrwt beam="2">  1       -2 0.22659938E-01 0.12785613E+04</pdfrwt>
<totfact> 0.40615760E+01</totfact>
</mgrwt>
</event>
<event>
12    1  0.1549527E-007  0.1365878E+04  0.7818608E-02  0.8978895E-01
         -2   -1    0    0    0  501 -0.00000000000E+00  0.00000000000E+00  0.44911393678E+03  0.44911393678E+03  0.00000000000E+00 0.  1.
          2   -1    0    0  501    0  0.00000000000E+00 -0.00000000000E+00 -0.10385020564E+04  0.10385020564E+04  0.00000000000E+00 0. -1.
         23    2    1    2    0    0 -0.26969195479E+03  0.72365929432E+02 -0.40804947814E+03  0.50268867601E+03  0.90669455476E+02 0.  0.
        254    2    1    2    0    0  0.26969195479E+03 -0.72365929432E+02 -0.18133864152E+03  0.98492731721E+03  0.92694527295E+03 0.  0.
        -24    2    4    4    0    0  0.20154475524E+03 -0.11661341170E+02 -0.55282120112E+03  0.59406546263E+03  0.80908703070E+02 0.  0.
         24    2    4    4    0    0  0.68147199546E+02 -0.60704588262E+02  0.37148255960E+03  0.39086185458E+03  0.80278324815E+02 0.  0.
         11    1    3    3    0    0 -0.78158681545E+02 -0.19757469271E+02 -0.12463555310E+03  0.14843570389E+03  0.00000000000E+00 0.  1.
        -11    1    3    3    0    0 -0.19153327324E+03  0.92123398703E+02 -0.28341392505E+03  0.35425297212E+03  0.00000000000E+00 0. -1.
          4    1    6    6  502    0  0.74280471022E+02 -0.73469321966E+02  0.29200941476E+03  0.31013678910E+03  0.00000000000E+00 0. -1.
          3    1    5    5  503    0  0.88108814211E+01 -0.11709364554E+02 -0.11197219698E+03  0.11292702842E+03  0.00000000000E+00 0. -1.
         -4    1    5    5    0  503  0.19273387382E+03  0.48023384257E-01 -0.44084900414E+03  0.48113843421E+03  0.00000000000E+00 0.  1.
         -3    1    6    6    0  502 -0.61332714758E+01  0.12764733703E+02  0.79473144842E+02  0.80725065479E+02  0.00000000000E+00 0.  1.
<mgrwt>
<rscale>  0 0.13658781E+04</rscale>
<asrwt>0</asrwt>
<pdfrwt beam="1">  1        2 0.15976955E+00 0.13658781E+04</pdfrwt>
<pdfrwt beam="2">  1       -2 0.69094452E-01 0.13658781E+04</pdfrwt>
<totfact> 0.44425688E+01</totfact>
</mgrwt>
</event>
<event>
12    1  0.1549527E-007  0.1173617E+04  0.7818608E-02  0.9136268E-01
          1   -1    0    0  501    0  0.00000000000E+00  0.00000000000E+00  0.25712319084E+04  0.25712319084E+04  0.00000000000E+00 0. -1.
         -1   -1    0    0    0  501 -0.00000000000E+00 -0.00000000000E+00 -0.13392187438E+03  0.13392187438E+03  0.00000000000E+00 0.  1.
         23    2    1    2    0    0  0.11020979542E+03 -0.19162172590E+03  0.54213654943E+03  0.59736572030E+03  0.11861146959E+03 0.  0.
        254    2    1    2    0    0 -0.11020979542E+03  0.19162172590E+03  0.18951734846E+04  0.21077880625E+04  0.89566896497E+03 0.  0.
        -24    2    4    4    0    0  0.37350405257E+03  0.18473593197E+03  0.10198311051E+04  0.11045415117E+04  0.79522488290E+02 0.  0.
         24    2    4    4    0    0 -0.48371384800E+03  0.68857939287E+01  0.87534237948E+03  0.10032465508E+04  0.79075024844E+02 0.  0.
         11    1    3    3    0    0  0.44957254575E+02 -0.13230429716E+03  0.44380944947E+03  0.46528744796E+03  0.00000000000E+00 0. -1.
        -11    1    3    3    0    0  0.65252540847E+02 -0.59317428737E+02  0.98327099960E+02  0.13207827234E+03  0.00000000000E+00 0.  1.
          2    1    6    6  502    0 -0.41798624681E+02 -0.10321848945E+02  0.43818393060E+02  0.61430588156E+02  0.00000000000E+00 0. -1.
          3    1    5    5  503    0  0.10933652187E+03  0.16672181401E+02  0.29071259524E+03  0.31104059169E+03  0.00000000000E+00 0. -1.
         -4    1    5    5    0  503  0.26416753071E+03  0.16806375057E+03  0.72911850990E+03  0.79350091998E+03  0.00000000000E+00 0.  1.
         -1    1    6    6    0  502 -0.44191522331E+03  0.17207642874E+02  0.83152398642E+03  0.94181596268E+03  0.00000000000E+00 0.  1.
<mgrwt>
<rscale>  0 0.11736170E+04</rscale>
<asrwt>0</asrwt>
<pdfrwt beam="1">  1        1 0.39557410E+00 0.11736170E+04</pdfrwt>
<pdfrwt beam="2">  1       -1 0.20603367E-01 0.11736170E+04</pdfrwt>
<totfact> 0.23501174E+01</totfact>
</mgrwt>
</event>
<event>
12    1  0.1549527E-007  0.1332166E+04  0.7818608E-02  0.9004439E-01
          2   -1    0    0  501    0  0.00000000000E+00  0.00000000000E+00  0.12199443015E+04  0.12199443015E+04  0.00000000000E+00 0. -1.
         -2   -1    0    0    0  501 -0.00000000000E+00 -0.00000000000E+00 -0.36367753998E+03  0.36367753998E+03  0.00000000000E+00 0.  1.
         23    2    1    2    0    0 -0.18741206505E+03  0.63064855625E+02  0.57793939747E+03  0.61753240947E+03  0.90729661426E+02 0.  0.
        254    2    1    2    0    0  0.18741206505E+03 -0.63064855625E+02  0.27832736409E+03  0.96608943205E+03  0.90374897565E+03 0.  0.
        -24    2    4    4    0    0  0.46144021291E+03 -0.23674643322E+03  0.34138255054E+03  0.62611994898E+03  0.80673421677E+02 0.  0.
         24    2    4    4    0    0 -0.27402814787E+03  0.17368157759E+03 -0.63055186442E+02  0.33996948307E+03  0.79665404450E+02 0.  0.
         11    1    3    3    0    0 -0.13302498328E+03  0.26740640710E+02  0.48679100970E+03  0.50534759836E+03  0.00000000000E+00 0. -1.
        -11    1    3    3    0    0 -0.54387081761E+02  0.36324214915E+02  0.91148387775E+02  0.11218481112E+03  0.00000000000E+00 0.  1.
          2    1    6    6  502    0 -0.60360151183E+02  0.35935051253E+02 -0.48439389665E+02  0.85329070255E+02  0.00000000000E+00 0. -1.
          1    1    5    5  503    0  0.12667663884E+03 -0.42418539007E+02  0.54316047443E+02  0.14421004226E+03  0.00000000000E+00 0. -1.
         -2    1    5    5    0  503  0.33476357407E+03 -0.19432789421E+03  0.28706650309E+03  0.48190990672E+03  0.00000000000E+00 0.  1.
         -1    1    6    6    0  502 -0.21366799668E+03  0.13774652634E+03 -0.14615796776E+02  0.25464041282E+03  0.00000000000E+00 0.  1.
<mgrwt>
<rscale>  0 0.13321657E+04</rscale>
<asrwt>0</asrwt>
<pdfrwt beam="1">  1        2 0.18768374E+00 0.13321657E+04</pdfrwt>
<pdfrwt beam="2">  1       -2 0.55950391E-01 0.13321657E+04</pdfrwt>
<totfact> 0.54061892E+01</totfact>
</mgrwt>
</event>
<event>
12    1  0.1549527E-007  0.1946283E+04  0.7818608E-02  0.8632155E-01
          1   -1    0    0  501    0  0.00000000000E+00  0.00000000000E+00  0.12913349828E+04  0.12913349828E+04  0.00000000000E+00 0. -1.
         -1   -1    0    0    0  501 -0.00000000000E+00 -0.00000000000E+00 -0.73335311252E+03  0.73335311252E+03  0.00000000000E+00 0.  1.
         23    2    1    2    0    0  0.41446508228E+03  0.58607269430E+03 -0.50027855311E+02  0.72544619839E+03  0.92232819625E+02 0.  0.
        254    2    1    2    0    0 -0.41446508228E+03 -0.58607269430E+03  0.60800972560E+03  0.12992418969E+04  0.89615354314E+03 0.  0.
        -24    2    4    4    0    0 -0.36525910334E+03 -0.78821450910E+03  0.62831028619E+03  0.10752727093E+04  0.82105168880E+02 0.  0.
         24    2    4    4    0    0 -0.49205978935E+02  0.20214181480E+03 -0.20300560597E+02  0.22396918760E+03  0.80421033188E+02 0.  0.
         13    1    3    3    0    0  0.33478715346E+03  0.45907681379E+03 -0.25641443054E+01  0.56819057887E+03  0.00000000000E+00 0.  1.
        -13    1    3    3    0    0  0.79677928821E+02  0.12699588051E+03 -0.47463711006E+02  0.15725561952E+03  0.00000000000E+00 0. -1.
          4    1    6    6  502    0  0.21443755708E+02  0.35175942668E+02 -0.99189259535E+01  0.42374127643E+02  0.00000000000E+00 0. -1.
          3    1    5    5  503    0 -0.13424259995E+03 -0.38633429985E+03  0.28804904433E+03  0.50024745758E+03  0.00000000000E+00 0. -1.
         -4    1    5    5    0  503 -0.23101650339E+03 -0.40188020926E+03  0.34026124186E+03  0.57502525174E+03  0.00000000000E+00 0.  1.
         -3    1    6    6    0  502 -0.70649734643E+02  0.16696587213E+03 -0.10381634643E+02  0.18159505995E+03  0.00000000000E+00 0.  1.
<mgrwt>
<rscale>  0 0.19462832E+04</rscale>
<asrwt>0</asrwt>
<pdfrwt beam="1">  1        1 0.19866692E+00 0.19462832E+04</pdfrwt>
<pdfrwt beam="2">  1       -1 0.11282356E+00 0.19462832E+04</pdfrwt>
<totfact> 0.61448461E+00</totfact>
</mgrwt>
</event>
<event>
12    1  0.1549527E-007  0.1855233E+04  0.7818608E-02  0.8677466E-01
          2   -1    0    0  501    0  0.00000000000E+00  0.00000000000E+00  0.24109046576E+04  0.24109046576E+04  0.00000000000E+00 0.  1.
         -2   -1    0    0    0  501 -0.00000000000E+00 -0.00000000000E+00 -0.35690852382E+03  0.35690852382E+03  0.00000000000E+00 0. -1.
         23    2    1    2    0    0  0.72809758494E+01  0.56018098738E+03  0.14272472572E+03  0.58529838566E+03  0.91367946754E+02 0.  0.
        254    2    1    2    0    0 -0.72809758494E+01 -0.56018098738E+03  0.19112714081E+04  0.21825147957E+04  0.89250024490E+03 0.  0.
        -24    2    4    4    0    0 -0.44026189371E+02 -0.36163340951E+03  0.14102348611E+03  0.39893691110E+03  0.80907398761E+02 0.  0.
         24    2    4    4    0    0  0.36745213522E+02 -0.19854757787E+03  0.17702479220E+04  0.17835778846E+04  0.81246624803E+02 0.  0.
         11    1    3    3    0    0 -0.95617943293E+01  0.44350231334E+03  0.14701602036E+03  0.46733225877E+03  0.00000000000E+00 0. -1.
        -11    1    3    3    0    0  0.16842770179E+02  0.11667867405E+03 -0.42912946382E+01  0.11796612690E+03  0.00000000000E+00 0.  1.
          2    1    6    6  502    0 -0.15209101875E+02 -0.43036544331E+02  0.22011116376E+03  0.22479409543E+03  0.00000000000E+00 0. -1.
          3    1    5    5  503    0 -0.52195053340E+02 -0.11409656733E+03  0.50166620278E+02  0.13512601548E+03  0.00000000000E+00 0. -1.
         -4    1    5    5    0  503  0.81688639691E+01 -0.24753684219E+03  0.90856865834E+02  0.26381089562E+03  0.00000000000E+00 0.  1.
         -1    1    6    6    0  502  0.51954315397E+02 -0.15551103354E+03  0.15501367582E+04  0.15587837892E+04  0.00000000000E+00 0.  1.
<mgrwt>
<rscale>  0 0.18552331E+04</rscale>
<asrwt>0</asrwt>
<pdfrwt beam="1">  1        2 0.37090840E+00 0.18552331E+04</pdfrwt>
<pdfrwt beam="2">  1       -2 0.54909005E-01 0.18552331E+04</pdfrwt>
<totfact> 0.11498295E+01</totfact>
</mgrwt>
</event>
<event>
12    1  0.1549527E-007  0.1539864E+04  0.7818608E-02  0.8858368E-01
         -2   -1    0    0    0  501 -0.00000000000E+00  0.00000000000E+00  0.12344078623E+04  0.12344078623E+04  0.00000000000E+00 0.  1.
          2   -1    0    0  501    0  0.00000000000E+00 -0.00000000000E+00 -0.48022639746E+03  0.48022639746E+03  0.00000000000E+00 0. -1.
         23    2    1    2    0    0 -0.28385862389E+03  0.38287591477E+03  0.66060253403E+02  0.49555737449E+03  0.11850514699E+03 0.  0.
        254    2    1    2    0    0  0.28385862389E+03 -0.38287591477E+03  0.68812121139E+03  0.12190768852E+04  0.88626630652E+03 0.  0.
        -24    2    4    4    0    0 -0.14019028052E+03  0.18517128072E+03  0.28252095031E+02  0.24766826412E+03  0.81238354392E+02 0.  0.
         24    2    4    4    0    0  0.42404890440E+03 -0.56804719549E+03  0.65986911635E+03  0.97140862110E+03  0.75580214390E+02 0.  0.
         13    1    3    3    0    0  0.17998312200E+00  0.52137973835E+02  0.24524586717E+02  0.57618192120E+02  0.00000000000E+00 0.  1.
        -13    1    3    3    0    0 -0.28403860701E+03  0.33073794094E+03  0.41535666686E+02  0.43793918237E+03  0.00000000000E+00 0. -1.
          2    1    6    6  502    0  0.33805016545E+02 -0.81863917986E+02  0.98724405649E+02  0.13263102383E+03  0.00000000000E+00 0. -1.
          1    1    5    5  503    0 -0.11425681511E+02 -0.70462105854E+01  0.75043179322E+01  0.15378883874E+02  0.00000000000E+00 0. -1.
         -2    1    5    5    0  503 -0.12876459901E+03  0.19221749130E+03  0.20747777099E+02  0.23228938025E+03  0.00000000000E+00 0.  1.
         -1    1    6    6    0  502  0.39024388786E+03 -0.48618327750E+03  0.56114471071E+03  0.83877759727E+03  0.00000000000E+00 0.  1.
<mgrwt>
<rscale>  0 0.15398639E+04</rscale>
<asrwt>0</asrwt>
<pdfrwt beam="1">  1        2 0.73880985E-01 0.15398639E+04</pdfrwt>
<pdfrwt beam="2">  1       -2 0.18990890E+00 0.15398639E+04</pdfrwt>
<totfact> 0.96388329E+00</totfact>
</mgrwt>
</event>
<event>
12    1  0.1549527E-007  0.1289499E+04  0.7818608E-02  0.9037934E-01
          2   -1    0    0  501    0  0.00000000000E+00  0.00000000000E+00  0.18620015714E+04  0.18620015714E+04  0.00000000000E+00 0. -1.
         -2   -1    0    0    0  501 -0.00000000000E+00 -0.00000000000E+00 -0.22325554485E+03  0.22325554485E+03  0.00000000000E+00 0.  1.
         23    2    1    2    0    0  0.17973952779E+03  0.26031763843E+03  0.29037366637E+03  0.44058682426E+03  0.98632210072E+02 0.  0.
        254    2    1    2    0    0 -0.17973952779E+03 -0.26031763843E+03  0.13483723602E+04  0.16446702920E+04  0.88699536465E+03 0.  0.
        -24    2    4    4    0    0 -0.43350145912E+03  0.67021640738E+02  0.10099901036E+04  0.11041129327E+04  0.81055187904E+02 0.  0.
         24    2    4    4    0    0  0.25376193134E+03 -0.32733927916E+03  0.33838225659E+03  0.54055735925E+03  0.78444793247E+02 0.  0.
         13    1    3    3    0    0  0.17317477767E+03  0.17720022744E+03  0.22406642286E+03  0.33405865665E+03  0.00000000000E+00 0. -1.
        -13    1    3    3    0    0  0.65647501145E+01  0.83117410983E+02  0.66307243511E+02  0.10652816761E+03  0.00000000000E+00 0.  1.
          2    1    6    6  502    0  0.31629395482E+01 -0.40415149418E+02  0.35096215711E+02  0.53620265258E+02  0.00000000000E+00 0. -1.
          3    1    5    5  503    0 -0.86899182371E+02  0.46782780904E+02  0.21030439533E+03  0.23231021325E+03  0.00000000000E+00 0. -1.
         -4    1    5    5    0  503 -0.34660227675E+03  0.20238859834E+02  0.79968570828E+03  0.87180271950E+03  0.00000000000E+00 0.  1.
         -1    1    6    6    0  502  0.25059899179E+03 -0.28692412975E+03  0.30328604088E+03  0.48693709400E+03  0.00000000000E+00 0.  1.
<mgrwt>
<rscale>  0 0.12894994E+04</rscale>
<asrwt>0</asrwt>
<pdfrwt beam="1">  1        2 0.28646177E+00 0.12894994E+04</pdfrwt>
<pdfrwt beam="2">  1       -2 0.34347008E-01 0.12894994E+04</pdfrwt>
<totfact> 0.62115854E+01</totfact>
</mgrwt>
</event>
<event>
12    1  0.1549527E-007  0.1587274E+04  0.7818608E-02  0.8828404E-01
         -2   -1    0    0    0  501 -0.00000000000E+00  0.00000000000E+00  0.87259144755E+03  0.87259144755E+03  0.00000000000E+00 0.  1.
          2   -1    0    0  501    0  0.00000000000E+00 -0.00000000000E+00 -0.72182648806E+03  0.72182648806E+03  0.00000000000E+00 0. -1.
         23    2    1    2    0    0 -0.43920362337E+03  0.27321881369E+03 -0.44189059603E+02  0.52724936311E+03  0.92145943882E+02 0.  0.
        254    2    1    2    0    0  0.43920362337E+03 -0.27321881369E+03  0.19495401910E+03  0.10671685725E+04  0.91284902894E+03 0.  0.
        -24    2    4    4    0    0  0.50338719994E+03 -0.51940324124E+03  0.29131709718E+03  0.78381801886E+03  0.79540150286E+02 0.  0.
         24    2    4    4    0    0 -0.64183576576E+02  0.24618442755E+03 -0.96363078073E+02  0.28335055364E+03  0.79217356457E+02 0.  0.
         11    1    3    3    0    0 -0.40552732512E+03  0.27195514004E+03 -0.26029010295E+02  0.48896780977E+03  0.00000000000E+00 0. -1.
        -11    1    3    3    0    0 -0.33676298251E+02  0.12636736431E+01 -0.18160049309E+02  0.38281553337E+02  0.00000000000E+00 0.  1.
          4    1    6    6  502    0 -0.78772799683E+02  0.16335863007E+03 -0.54277999309E+02  0.18930741453E+03  0.00000000000E+00 0. -1.
          3    1    5    5  503    0  0.33580866334E+03 -0.37614492110E+03  0.23480016706E+03  0.55622259797E+03  0.00000000000E+00 0. -1.
         -4    1    5    5    0  503  0.16757853661E+03 -0.14325832014E+03  0.56516930111E+02  0.22759542089E+03  0.00000000000E+00 0.  1.
         -3    1    6    6    0  502  0.14589223107E+02  0.82825797483E+02 -0.42085078764E+02  0.94043139113E+02  0.00000000000E+00 0.  1.
<mgrwt>
<rscale>  0 0.15872739E+04</rscale>
<asrwt>0</asrwt>
<pdfrwt beam="1">  1        2 0.11105023E+00 0.15872739E+04</pdfrwt>
<pdfrwt beam="2">  1       -2 0.13424484E+00 0.15872739E+04</pdfrwt>
<totfact> 0.15130243E+01</totfact>
</mgrwt>
</event>
<event>
12    1  0.1549527E-007  0.1623811E+04  0.7818608E-02  0.8806052E-01
          1   -1    0    0  501    0  0.00000000000E+00  0.00000000000E+00  0.70947323383E+03  0.70947323383E+03  0.00000000000E+00 0. -1.
         -1   -1    0    0    0  501 -0.00000000000E+00 -0.00000000000E+00 -0.92912636679E+03  0.92912636679E+03  0.00000000000E+00 0.  1.
         23    2    1    2    0    0 -0.28235055033E+03  0.23099592578E+03 -0.50044976231E+03  0.62586857157E+03  0.90446411095E+02 0.  0.
        254    2    1    2    0    0  0.28235055033E+03 -0.23099592578E+03  0.28079662935E+03  0.10127310291E+04  0.90205123976E+03 0.  0.
        -24    2    4    4    0    0 -0.37003238738E+02  0.30583850577E+03  0.20483705683E+03  0.37845278022E+03  0.79761241913E+02 0.  0.
         24    2    4    4    0    0  0.31935378907E+03 -0.53683443155E+03  0.75959572523E+02  0.63427824884E+03  0.79755819808E+02 0.  0.
         13    1    3    3    0    0 -0.11793942185E+03  0.12274955599E+03 -0.16585950639E+03  0.23766896429E+03  0.00000000000E+00 0. -1.
        -13    1    3    3    0    0 -0.16441112848E+03  0.10824636979E+03 -0.33459025592E+03  0.38819960728E+03  0.00000000000E+00 0.  1.
          2    1    6    6  502    0  0.12367789059E+03 -0.18917980977E+03 -0.97691686823E+01  0.22623142510E+03  0.00000000000E+00 0. -1.
          3    1    5    5  503    0  0.18868316649E+02  0.22584097560E+02  0.21541166905E+02  0.36470216717E+02  0.00000000000E+00 0. -1.
         -2    1    5    5    0  503 -0.55871555387E+02  0.28325440821E+03  0.18329588993E+03  0.34198256350E+03  0.00000000000E+00 0.  1.
         -1    1    6    6    0  502  0.19567589849E+03 -0.34765462178E+03  0.85728741206E+02  0.40804682374E+03  0.00000000000E+00 0.  1.
<mgrwt>
<rscale>  0 0.16238107E+04</rscale>
<asrwt>0</asrwt>
<pdfrwt beam="1">  1        1 0.10914973E+00 0.16238107E+04</pdfrwt>
<pdfrwt beam="2">  1       -1 0.14294252E+00 0.16238107E+04</pdfrwt>
<totfact> 0.10144556E+01</totfact>
</mgrwt>
</event>
<event>
12    1  0.1549527E-007  0.1449568E+04  0.7818608E-02  0.8918700E-01
          2   -1    0    0  501    0  0.00000000000E+00  0.00000000000E+00  0.24015817970E+04  0.24015817970E+04  0.00000000000E+00 0. -1.
         -2   -1    0    0    0  501 -0.00000000000E+00 -0.00000000000E+00 -0.21873583569E+03  0.21873583569E+03  0.00000000000E+00 0.  1.
         23    2    1    2    0    0  0.25059573000E+03 -0.36073131499E+03  0.48317305525E+03  0.65736601406E+03  0.75819348532E+02 0.  0.
        254    2    1    2    0    0 -0.25059573000E+03  0.36073131499E+03  0.16996729061E+04  0.19629516187E+04  0.87827431251E+03 0.  0.
        -24    2    4    4    0    0 -0.45457946267E+03  0.41386727603E+03  0.15999690980E+04  0.17159016706E+04  0.80553203564E+02 0.  0.
         24    2    4    4    0    0  0.20398373267E+03 -0.53135961042E+02  0.99703808077E+02  0.24704994804E+03  0.81609030944E+02 0.  0.
         11    1    3    3    0    0  0.20642304059E+03 -0.28322908117E+03  0.42500343084E+03  0.55086940406E+03  0.00000000000E+00 0.  1.
        -11    1    3    3    0    0  0.44172689414E+02 -0.77502233822E+02  0.58169624415E+02  0.10649661000E+03  0.00000000000E+00 0. -1.
          2    1    6    6  502    0  0.53081252980E+02 -0.18604391976E+01 -0.93557354852E+01  0.53931534731E+02  0.00000000000E+00 0. -1.
          3    1    5    5  503    0 -0.76713962381E+02  0.89258740031E+02  0.39082712902E+03  0.40816418201E+03  0.00000000000E+00 0. -1.
         -4    1    5    5    0  503 -0.37786550029E+03  0.32460853600E+03  0.12091419690E+04  0.13077374886E+04  0.00000000000E+00 0.  1.
         -1    1    6    6    0  502  0.15090247969E+03 -0.51275521845E+02  0.10905954356E+03  0.19311841331E+03  0.00000000000E+00 0.  1.
<mgrwt>
<rscale>  0 0.14495682E+04</rscale>
<asrwt>0</asrwt>
<pdfrwt beam="1">  1        2 0.36947410E+00 0.14495682E+04</pdfrwt>
<pdfrwt beam="2">  1       -2 0.33651669E-01 0.14495682E+04</pdfrwt>
<totfact> 0.31849924E+01</totfact>
</mgrwt>
</event>
<event>
12    1  0.1549527E-007  0.1414108E+04  0.7818608E-02  0.8943670E-01
          2   -1    0    0  501    0  0.00000000000E+00  0.00000000000E+00  0.17639303623E+04  0.17639303623E+04  0.00000000000E+00 0. -1.
         -2   -1    0    0    0  501 -0.00000000000E+00 -0.00000000000E+00 -0.28341540514E+03  0.28341540514E+03  0.00000000000E+00 0.  1.
         23    2    1    2    0    0  0.34580419554E+03 -0.19928395691E+03  0.29631671506E+03  0.50562372911E+03  0.92504717045E+02 0.  0.
        254    2    1    2    0    0 -0.34580419554E+03  0.19928395691E+03  0.11841982422E+04  0.15417220384E+04  0.90293229523E+03 0.  0.
        -24    2    4    4    0    0 -0.63129579365E+03  0.99975599263E+02  0.60595758456E+03  0.88432208323E+03  0.79444654108E+02 0.  0.
         24    2    4    4    0    0  0.28549159811E+03  0.99308357649E+02  0.57824065760E+03  0.65739995515E+03  0.80279763624E+02 0.  0.
         13    1    3    3    0    0  0.63956262173E+02 -0.28665416159E+02  0.13405699731E+02  0.71357006243E+02  0.00000000000E+00 0.  1.
        -13    1    3    3    0    0  0.28184793337E+03 -0.17061854075E+03  0.28291101533E+03  0.43426672286E+03  0.00000000000E+00 0. -1.
          2    1    6    6  502    0  0.21491579592E+03  0.58555474070E+02  0.34823223692E+03  0.41338025317E+03  0.00000000000E+00 0. -1.
          1    1    5    5  503    0 -0.48221890978E+03  0.70318294870E+02  0.50538047576E+03  0.70206065609E+03  0.00000000000E+00 0. -1.
         -2    1    5    5    0  503 -0.14907688388E+03  0.29657304393E+02  0.10057710879E+03  0.18226142714E+03  0.00000000000E+00 0.  1.
         -1    1    6    6    0  502  0.70575802192E+02  0.40752883579E+02  0.23000842068E+03  0.24401970199E+03  0.00000000000E+00 0.  1.
<mgrwt>
<rscale>  0 0.14141075E+04</rscale>
<asrwt>0</asrwt>
<pdfrwt beam="1">  1        2 0.27137390E+00 0.14141075E+04</pdfrwt>
<pdfrwt beam="2">  1       -2 0.43602371E-01 0.14141075E+04</pdfrwt>
<totfact> 0.43820795E+01</totfact>
</mgrwt>
</event>
<event>
12    1  0.1549527E-007  0.2266383E+04  0.7818608E-02  0.8491295E-01
          3   -1    0    0  501    0  0.00000000000E+00  0.00000000000E+00  0.29795066116E+04  0.29795066116E+04  0.00000000000E+00 0. -1.
         -3   -1    0    0    0  501 -0.00000000000E+00 -0.00000000000E+00 -0.43098521784E+03  0.43098521784E+03  0.00000000000E+00 0.  1.
         23    2    1    2    0    0 -0.32161139572E+03 -0.88917253343E+03  0.92807945849E+03  0.13289882481E+04  0.10400287628E+03 0.  0.
        254    2    1    2    0    0  0.32161139572E+03  0.88917253343E+03  0.16204419352E+04  0.20815035813E+04  0.90153392028E+03 0.  0.
        -24    2    4    4    0    0  0.26196095329E+03  0.84597466474E+03  0.17185254372E+04  0.19349384900E+04  0.79753415326E+02 0.  0.
         24    2    4    4    0    0  0.59650442434E+02  0.43197868694E+02 -0.98083501964E+02  0.14656509132E+03  0.80229181070E+02 0.  0.
         13    1    3    3    0    0 -0.29860224211E+03 -0.82303264529E+03  0.89325229313E+03  0.12507780352E+04  0.00000000000E+00 0.  1.
        -13    1    3    3    0    0 -0.23009153610E+02 -0.66139888136E+02  0.34827165359E+02  0.78210212885E+02  0.00000000000E+00 0. -1.
          2    1    6    6  502    0 -0.19079060826E+02  0.88723022939E+01 -0.91968280364E+01  0.22963230521E+02  0.00000000000E+00 0. -1.
          1    1    5    5  503    0  0.30095289024E+02  0.20965728627E+03  0.39507145313E+03  0.44826706012E+03  0.00000000000E+00 0. -1.
         -2    1    5    5    0  503  0.23186566426E+03  0.63631737847E+03  0.13234539841E+04  0.14866714299E+04  0.00000000000E+00 0.  1.
         -3    1    6    6    0  502  0.78729503260E+02  0.34325566400E+02 -0.88886673927E+02  0.12360186080E+03  0.00000000000E+00 0.  1.
<mgrwt>
<rscale>  0 0.22663833E+04</rscale>
<asrwt>0</asrwt>
<pdfrwt beam="1">  1        3 0.45838562E+00 0.22663833E+04</pdfrwt>
<pdfrwt beam="2">  1       -3 0.66305420E-01 0.22663833E+04</pdfrwt>
<totfact> 0.28830506E-02</totfact>
</mgrwt>
</event>
<event>
12    1  0.1549527E-007  0.1702875E+04  0.7818608E-02  0.8759727E-01
         -2   -1    0    0    0  501 -0.00000000000E+00  0.00000000000E+00  0.77642900140E+03  0.77642900140E+03  0.00000000000E+00 0.  1.
          2   -1    0    0  501    0  0.00000000000E+00 -0.00000000000E+00 -0.93369186413E+03  0.93369186413E+03  0.00000000000E+00 0. -1.
         23    2    1    2    0    0  0.47221218815E+03 -0.25712045840E+03  0.22434475744E+03  0.59014615797E+03  0.94056561774E+02 0.  0.
        254    2    1    2    0    0 -0.47221218815E+03  0.25712045840E+03 -0.38160762018E+03  0.11199747076E+04  0.90533070700E+03 0.  0.
        -24    2    4    4    0    0 -0.25875671834E+03 -0.13825392098E+03  0.21249518144E+03  0.37084360848E+03  0.79382579084E+02 0.  0.
         24    2    4    4    0    0 -0.21345546980E+03  0.39537437938E+03 -0.59410280162E+03  0.74913109908E+03  0.79719052000E+02 0.  0.
         11    1    3    3    0    0  0.14297832719E+03 -0.54958119034E+02  0.10527778853E+03  0.18586718282E+03  0.00000000000E+00 0. -1.
        -11    1    3    3    0    0  0.32923386096E+03 -0.20216233937E+03  0.11906696892E+03  0.40427897515E+03  0.00000000000E+00 0.  1.
          4    1    6    6  502    0 -0.20009359102E+03  0.33565983970E+03 -0.54529418459E+03  0.67085819732E+03  0.00000000000E+00 0. -1.
          3    1    5    5  503    0 -0.20639245045E+03 -0.88822030369E+02  0.12361322866E+03  0.25645160748E+03  0.00000000000E+00 0. -1.
         -4    1    5    5    0  503 -0.52364267890E+02 -0.49431890611E+02  0.88881952787E+02  0.11439200100E+03  0.00000000000E+00 0.  1.
         -3    1    6    6    0  502 -0.13361878782E+02  0.59714539683E+02 -0.48808617025E+02  0.78272901761E+02  0.00000000000E+00 0.  1.
<mgrwt>
<rscale>  0 0.17028746E+04</rscale>
<asrwt>0</asrwt>
<pdfrwt beam="1">  1        2 0.14364490E+00 0.17028746E+04</pdfrwt>
<pdfrwt beam="2">  1       -2 0.11945062E+00 0.17028746E+04</pdfrwt>
<totfact> 0.14222188E+01</totfact>
</mgrwt>
</event>
<event>
12    1  0.1549527E-007  0.2852066E+04  0.7818608E-02  0.8287284E-01
         -1   -1    0    0    0  501 -0.00000000000E+00  0.00000000000E+00  0.13145773182E+04  0.13145773182E+04  0.00000000000E+00 0.  1.
          1   -1    0    0  501    0  0.00000000000E+00 -0.00000000000E+00 -0.15469387276E+04  0.15469387276E+04  0.00000000000E+00 0. -1.
         23    2    1    2    0    0  0.61931898458E+02 -0.13979654298E+03 -0.13812333504E+04  0.13929442178E+04  0.95443135970E+02 0.  0.
        254    2    1    2    0    0 -0.61931898458E+02  0.13979654298E+03  0.11488719410E+04  0.14685718280E+04  0.90189680324E+03 0.  0.
        -24    2    4    4    0    0  0.55039881018E+02  0.48791938111E+03  0.86526992311E+03  0.99780399633E+03  0.76328659736E+02 0.  0.
         24    2    4    4    0    0 -0.11697177948E+03 -0.34812283813E+03  0.28360201792E+03  0.47076783169E+03  0.79500560771E+02 0.  0.
         11    1    3    3    0    0  0.67314961192E+02 -0.80305964573E+02 -0.11236500029E+04  0.11285254454E+04  0.00000000000E+00 0. -1.
        -11    1    3    3    0    0 -0.53830627338E+01 -0.59490578411E+02 -0.25758334754E+03  0.26441877243E+03  0.00000000000E+00 0.  1.
          4    1    6    6  502    0 -0.10600519814E+03 -0.19792334402E+03  0.15626243634E+03  0.27354835249E+03  0.00000000000E+00 0. -1.
          3    1    5    5  503    0  0.42675156921E+02  0.10709421857E+03  0.22228592821E+03  0.25040242521E+03  0.00000000000E+00 0. -1.
         -4    1    5    5    0  503  0.12364724096E+02  0.38082516255E+03  0.64298399489E+03  0.74740157112E+03  0.00000000000E+00 0.  1.
         -1    1    6    6    0  502 -0.10966581335E+02 -0.15019949411E+03  0.12733958158E+03  0.19721947919E+03  0.00000000000E+00 0.  1.
<mgrwt>
<rscale>  0 0.28520663E+04</rscale>
<asrwt>0</asrwt>
<pdfrwt beam="1">  1        1 0.23799057E+00 0.28520663E+04</pdfrwt>
<pdfrwt beam="2">  1       -1 0.20224267E+00 0.28520663E+04</pdfrwt>
<totfact> 0.75990988E-01</totfact>
</mgrwt>
</event>
<event>
12    1  0.1549527E-007  0.2796532E+04  0.7818608E-02  0.8304346E-01
          1   -1    0    0  501    0  0.00000000000E+00  0.00000000000E+00  0.21838746274E+04  0.21838746274E+04  0.00000000000E+00 0. -1.
         -1   -1    0    0    0  501 -0.00000000000E+00 -0.00000000000E+00 -0.89526586310E+03  0.89526586310E+03  0.00000000000E+00 0.  1.
         23    2    1    2    0    0  0.10665358910E+04  0.14649384413E+03  0.12786718429E+04  0.16741870047E+04  0.94557876014E+02 0.  0.
        254    2    1    2    0    0 -0.10665358910E+04 -0.14649384413E+03  0.99369214521E+01  0.14049534858E+04  0.90268283556E+03 0.  0.
        -24    2    4    4    0    0 -0.46409134197E+03  0.34354386027E+03  0.17302720040E+03  0.60764377366E+03  0.76742334920E+02 0.  0.
         24    2    4    4    0    0 -0.60244454904E+03 -0.49003770440E+03 -0.16309027895E+03  0.79730971212E+03  0.77639883749E+02 0.  0.
         11    1    3    3    0    0  0.24694257333E+03 -0.36624685478E+01  0.31383327143E+03  0.39935619496E+03  0.00000000000E+00 0.  1.
        -11    1    3    3    0    0  0.81959331768E+03  0.15015631268E+03  0.96483857144E+03  0.12748308098E+04  0.00000000000E+00 0. -1.
          2    1    6    6  502    0 -0.19814014186E+03 -0.12067207693E+03 -0.65436249444E+02  0.24104598878E+03  0.00000000000E+00 0. -1.
          3    1    5    5  503    0 -0.35304922326E+02  0.55300608696E+02  0.24763066426E+02  0.70127058411E+02  0.00000000000E+00 0. -1.
         -4    1    5    5    0  503 -0.42878641965E+03  0.28824325158E+03  0.14826413398E+03  0.53751671525E+03  0.00000000000E+00 0.  1.
         -1    1    6    6    0  502 -0.40430440718E+03 -0.36936562747E+03 -0.97654029507E+02  0.55626372334E+03  0.00000000000E+00 0.  1.
<mgrwt>
<rscale>  0 0.27965324E+04</rscale>
<asrwt>0</asrwt>
<pdfrwt beam="1">  1        1 0.33598071E+00 0.27965324E+04</pdfrwt>
<pdfrwt beam="2">  1       -1 0.13773321E+00 0.27965324E+04</pdfrwt>
<totfact> 0.84618014E-01</totfact>
</mgrwt>
</event>
<event>
12    1  0.1549527E-007  0.1944934E+04  0.7818608E-02  0.8632808E-01
         -1   -1    0    0    0  501 -0.00000000000E+00  0.00000000000E+00  0.43100433344E+03  0.43100433344E+03  0.00000000000E+00 0.  1.
          1   -1    0    0  501    0  0.00000000000E+00 -0.00000000000E+00 -0.21941582414E+04  0.21941582414E+04  0.00000000000E+00 0. -1.
         23    2    1    2    0    0 -0.25879229284E+03  0.33378771957E+03 -0.15362049092E+04  0.15959765693E+04  0.93957405034E+02 0.  0.
        254    2    1    2    0    0  0.25879229284E+03 -0.33378771957E+03 -0.22694899877E+03  0.10291860056E+04  0.91067573457E+03 0.  0.
        -24    2    4    4    0    0 -0.25686228630E+03 -0.12315048142E+03  0.16876943655E+03  0.34109699436E+03  0.81974152325E+02 0.  0.
         24    2    4    4    0    0  0.51565457914E+03 -0.21063723815E+03 -0.39571843532E+03  0.68808901126E+03  0.81275557690E+02 0.  0.
         13    1    3    3    0    0 -0.17672883671E+02  0.38972426211E+02 -0.28171761855E+03  0.28494911374E+03  0.00000000000E+00 0. -1.
        -13    1    3    3    0    0 -0.24111940917E+03  0.29481529336E+03 -0.12544872907E+04  0.13110274555E+04  0.00000000000E+00 0.  1.
          2    1    6    6  502    0  0.86862074802E+02 -0.27335442953E+02 -0.10309030859E+03  0.13754947548E+03  0.00000000000E+00 0. -1.
          3    1    5    5  503    0 -0.38439758379E+02 -0.14122470937E+02  0.62787745634E+02  0.74962391980E+02  0.00000000000E+00 0. -1.
         -4    1    5    5    0  503 -0.21842252792E+03 -0.10902801048E+03  0.10598169091E+03  0.26613460238E+03  0.00000000000E+00 0.  1.
         -1    1    6    6    0  502  0.42879250434E+03 -0.18330179520E+03 -0.29262812673E+03  0.55053953578E+03  0.00000000000E+00 0.  1.
<mgrwt>
<rscale>  0 0.19449336E+04</rscale>
<asrwt>0</asrwt>
<pdfrwt beam="1">  1        1 0.33756281E+00 0.19449336E+04</pdfrwt>
<pdfrwt beam="2">  1       -1 0.66308358E-01 0.19449336E+04</pdfrwt>
<totfact> 0.47235872E+00</totfact>
</mgrwt>
</event>
<event>
12    1  0.1549527E-007  0.2024254E+04  0.7818608E-02  0.8595364E-01
          3   -1    0    0  501    0  0.00000000000E+00  0.00000000000E+00  0.86447436264E+03  0.86447436264E+03  0.00000000000E+00 0. -1.
         -3   -1    0    0    0  501 -0.00000000000E+00 -0.00000000000E+00 -0.11849992915E+04  0.11849992915E+04  0.00000000000E+00 0.  1.
         23    2    1    2    0    0  0.57963506474E+03 -0.29355944445E+03 -0.61731475142E+03  0.90194003303E+03  0.10131320329E+03 0.  0.
        254    2    1    2    0    0 -0.57963506474E+03  0.29355944445E+03  0.29678982260E+03  0.11475336211E+04  0.89810648423E+03 0.  0.
        -24    2    4    4    0    0  0.15902392658E+02  0.45916534827E+03  0.21779006920E+02  0.46633168645E+03  0.76845386953E+02 0.  0.
         24    2    4    4    0    0 -0.59553745740E+03 -0.16560590382E+03  0.27501081568E+03  0.68120193463E+03  0.79466650000E+02 0.  0.
         13    1    3    3    0    0  0.11326404484E+03 -0.39368124996E+02 -0.16701590761E+03  0.20560376094E+03  0.00000000000E+00 0. -1.
        -13    1    3    3    0    0  0.46637101990E+03 -0.25419131945E+03 -0.45029884381E+03  0.69633627209E+03  0.00000000000E+00 0.  1.
          4    1    6    6  502    0 -0.46887416435E+03 -0.16310658572E+03  0.21417019961E+03  0.54066220018E+03  0.00000000000E+00 0. -1.
          1    1    5    5  503    0  0.35915748839E+01  0.32394490030E+03 -0.19112672260E+02  0.32452810677E+03  0.00000000000E+00 0. -1.
         -2    1    5    5    0  503  0.12310817775E+02  0.13522044797E+03  0.40891679180E+02  0.14180357968E+03  0.00000000000E+00 0.  1.
         -3    1    6    6    0  502 -0.12666329305E+03 -0.24993180996E+01  0.60840616072E+02  0.14053973446E+03  0.00000000000E+00 0.  1.
<mgrwt>
<rscale>  0 0.20242544E+04</rscale>
<asrwt>0</asrwt>
<pdfrwt beam="1">  1        3 0.13299606E+00 0.20242544E+04</pdfrwt>
<pdfrwt beam="2">  1       -3 0.18230758E+00 0.20242544E+04</pdfrwt>
<totfact> 0.20307555E-01</totfact>
</mgrwt>
</event>
<event>
12    1  0.1549527E-007  0.1481497E+04  0.7818608E-02  0.8896852E-01
         -1   -1    0    0    0  501 -0.00000000000E+00  0.00000000000E+00  0.58597093768E+03  0.58597093768E+03  0.00000000000E+00 0.  1.
          1   -1    0    0  501    0  0.00000000000E+00 -0.00000000000E+00 -0.93640829441E+03  0.93640829441E+03  0.00000000000E+00 0. -1.
         23    2    1    2    0    0  0.43000532129E+03 -0.41474228827E+02  0.43601119791E+02  0.44363042796E+03  0.91006653409E+02 0.  0.
        254    2    1    2    0    0 -0.43000532129E+03  0.41474228827E+02 -0.39403847651E+03  0.10787488041E+04  0.90653625048E+03 0.  0.
        -24    2    4    4    0    0 -0.15071621443E+03 -0.41939197497E+03 -0.24126669496E+03  0.51303633134E+03  0.79947815587E+02 0.  0.
         24    2    4    4    0    0 -0.27928910686E+03  0.46086620380E+03 -0.15277178155E+03  0.56571247279E+03  0.79317851816E+02 0.  0.
         11    1    3    3    0    0  0.22986425435E+03 -0.28630261009E+02 -0.21847762100E+02  0.23266841638E+03  0.00000000000E+00 0. -1.
        -11    1    3    3    0    0  0.20014106695E+03 -0.12843967818E+02  0.65448881891E+02  0.21096201158E+03  0.00000000000E+00 0.  1.
          2    1    6    6  502    0 -0.95428516593E+02  0.92047495158E+02 -0.37190802589E+02  0.13770438969E+03  0.00000000000E+00 0. -1.
          1    1    5    5  503    0 -0.18574242414E+02 -0.15843272892E+03 -0.99263815517E+02  0.18788091214E+03  0.00000000000E+00 0. -1.
         -2    1    5    5    0  503 -0.13214197202E+03 -0.26095924605E+03 -0.14200287945E+03  0.32515541920E+03  0.00000000000E+00 0.  1.
         -1    1    6    6    0  502 -0.18386059027E+03  0.36881870864E+03 -0.11558097896E+03  0.42800808309E+03  0.00000000000E+00 0.  1.
<mgrwt>
<rscale>  0 0.14814966E+04</rscale>
<asrwt>0</asrwt>
<pdfrwt beam="1">  1        1 0.14406281E+00 0.14814966E+04</pdfrwt>
<pdfrwt beam="2">  1       -1 0.90149376E-01 0.14814966E+04</pdfrwt>
<totfact> 0.19823572E+01</totfact>
</mgrwt>
</event>
<event>
12    1  0.1549527E-007  0.3001054E+04  0.7818608E-02  0.8243430E-01
          2   -1    0    0  501    0  0.00000000000E+00  0.00000000000E+00  0.30677617012E+04  0.30677617012E+04  0.00000000000E+00 0. -1.
         -2   -1    0    0    0  501 -0.00000000000E+00 -0.00000000000E+00 -0.73394915613E+03  0.73394915613E+03  0.00000000000E+00 0.  1.
         23    2    1    2    0    0 -0.11761789550E+04  0.61656814138E+02  0.19408406711E+04  0.22723551415E+04  0.97656959779E+02 0.  0.
        254    2    1    2    0    0  0.11761789550E+04 -0.61656814138E+02  0.39297187406E+03  0.15293557159E+04  0.89291853774E+03 0.  0.
        -24    2    4    4    0    0  0.74012811078E+03 -0.46374057687E+03  0.19278170269E+03  0.89816905255E+03  0.81840815458E+02 0.  0.
         24    2    4    4    0    0  0.43605084420E+03  0.40208376273E+03  0.20019017137E+03  0.63118666333E+03  0.80677185596E+02 0.  0.
         13    1    3    3    0    0 -0.78953085899E+03  0.54133186388E+02  0.12169023319E+04  0.14515993471E+04  0.00000000000E+00 0. -1.
        -13    1    3    3    0    0 -0.38664809599E+03  0.75236277499E+01  0.72393833917E+03  0.82075579439E+03  0.00000000000E+00 0.  1.
          4    1    6    6  502    0  0.37629659112E+03  0.30605200764E+03  0.17183765941E+03  0.51458248811E+03  0.00000000000E+00 0. -1.
          3    1    5    5  503    0  0.45959476776E+03 -0.33408225248E+03  0.12487683169E+03  0.58174953809E+03  0.00000000000E+00 0. -1.
         -4    1    5    5    0  503  0.28053334302E+03 -0.12965832439E+03  0.67904870998E+02  0.31641951447E+03  0.00000000000E+00 0.  1.
         -3    1    6    6    0  502  0.59754253080E+02  0.96031755086E+02  0.28352511959E+02  0.11660417523E+03  0.00000000000E+00 0.  1.
<mgrwt>
<rscale>  0 0.30010539E+04</rscale>
<asrwt>0</asrwt>
<pdfrwt beam="1">  1        2 0.47196333E+00 0.30010539E+04</pdfrwt>
<pdfrwt beam="2">  1       -2 0.11291526E+00 0.30010539E+04</pdfrwt>
<totfact> 0.83212784E-01</totfact>
</mgrwt>
</event>
<event>
12    1  0.1549527E-007  0.1667482E+04  0.7818608E-02  0.8780131E-01
          2   -1    0    0  501    0  0.00000000000E+00  0.00000000000E+00  0.21817928566E+04  0.21817928566E+04  0.00000000000E+00 0. -1.
         -2   -1    0    0    0  501 -0.00000000000E+00 -0.00000000000E+00 -0.31860222156E+03  0.31860222156E+03  0.00000000000E+00 0.  1.
         23    2    1    2    0    0  0.98769489980E+02  0.53692107989E+03  0.33250781603E+03  0.64565279593E+03  0.90919893252E+02 0.  0.
        254    2    1    2    0    0 -0.98769489980E+02 -0.53692107989E+03  0.15306828190E+04  0.18547422822E+04  0.89389002839E+03 0.  0.
        -24    2    4    4    0    0  0.62743926105E+02 -0.18260488013E+03 -0.58567525768E+02  0.21643022986E+03  0.78297808484E+02 0.  0.
         24    2    4    4    0    0 -0.16151341608E+03 -0.35431619976E+03  0.15892503447E+04  0.16383120523E+04  0.81994936113E+02 0.  0.
         11    1    3    3    0    0  0.97842902788E+02  0.48180970770E+03  0.26504597877E+03  0.55853665853E+03  0.00000000000E+00 0.  1.
        -11    1    3    3    0    0  0.92658719209E+00  0.55111372186E+02  0.67461837263E+02  0.87116137397E+02  0.00000000000E+00 0. -1.
          4    1    6    6  502    0 -0.12406626211E+03 -0.31957460587E+03  0.12921002320E+04  0.13368034169E+04  0.00000000000E+00 0. -1.
          1    1    5    5  503    0  0.53313918216E+02 -0.11666984585E+03 -0.73960315480E+02  0.14806875116E+03  0.00000000000E+00 0. -1.
         -2    1    5    5    0  503  0.94300078890E+01 -0.65935034281E+02  0.15392789712E+02  0.68361478697E+02  0.00000000000E+00 0.  1.
         -3    1    6    6    0  502 -0.37447153973E+02 -0.34741593895E+02  0.29715011278E+03  0.30150863539E+03  0.00000000000E+00 0.  1.
<mgrwt>
<rscale>  0 0.16674820E+04</rscale>
<asrwt>0</asrwt>
<pdfrwt beam="1">  1        2 0.33566043E+00 0.16674820E+04</pdfrwt>
<pdfrwt beam="2">  1       -2 0.49015728E-01 0.16674820E+04</pdfrwt>
<totfact> 0.19887034E+01</totfact>
</mgrwt>
</event>
<event>
12    1  0.1549527E-007  0.1674398E+04  0.7818608E-02  0.8776102E-01
         -1   -1    0    0    0  501 -0.00000000000E+00  0.00000000000E+00  0.27422001007E+03  0.27422001007E+03  0.00000000000E+00 0.  1.
          1   -1    0    0  501    0  0.00000000000E+00 -0.00000000000E+00 -0.25559855682E+04  0.25559855682E+04  0.00000000000E+00 0. -1.
         23    2    1    2    0    0  0.29975287861E+03 -0.75331828346E+02  0.38327057654E+02  0.32418004903E+03  0.89983710992E+02 0.  0.
        254    2    1    2    0    0 -0.29975287861E+03  0.75331828346E+02 -0.23200926157E+04  0.25060255292E+04  0.89543706356E+03 0.  0.
        -24    2    4    4    0    0 -0.54161924217E+03 -0.11847064260E+03 -0.98421837753E+03  0.11324422633E+04  0.79705510270E+02 0.  0.
         24    2    4    4    0    0  0.24186636356E+03  0.19380247094E+03 -0.13358742382E+04  0.13735832659E+04  0.78181023980E+02 0.  0.
         13    1    3    3    0    0  0.23233724389E+03 -0.21267917939E+02  0.44611778919E+02  0.23753553429E+03  0.00000000000E+00 0.  1.
        -13    1    3    3    0    0  0.67415634717E+02 -0.54063910407E+02 -0.62847212649E+01  0.86644514738E+02  0.00000000000E+00 0. -1.
          4    1    6    6  502    0  0.14590327128E+03  0.16321421305E+03 -0.91411704751E+03  0.93996628687E+03  0.00000000000E+00 0. -1.
          3    1    5    5  503    0 -0.49221116489E+03 -0.83582094630E+02 -0.86432557594E+03  0.99815655016E+03  0.00000000000E+00 0. -1.
         -4    1    5    5    0  503 -0.49408077281E+02 -0.34888547967E+02 -0.11989280158E+03  0.13428571313E+03  0.00000000000E+00 0.  1.
         -3    1    6    6    0  502  0.95963092282E+02  0.30588257889E+02 -0.42175719070E+03  0.43361697903E+03  0.00000000000E+00 0.  1.
<mgrwt>
<rscale>  0 0.16743983E+04</rscale>
<asrwt>0</asrwt>
<pdfrwt beam="1">  1        1 0.39322854E+00 0.16743983E+04</pdfrwt>
<pdfrwt beam="2">  1       -1 0.42187695E-01 0.16743983E+04</pdfrwt>
<totfact> 0.65342887E+00</totfact>
</mgrwt>
</event>
<event>
12    1  0.1549527E-007  0.1681260E+04  0.7818608E-02  0.8772125E-01
         -1   -1    0    0    0  501 -0.00000000000E+00  0.00000000000E+00  0.74282330398E+03  0.74282330398E+03  0.00000000000E+00 0.  1.
          1   -1    0    0  501    0  0.00000000000E+00 -0.00000000000E+00 -0.95131478737E+03  0.95131478737E+03  0.00000000000E+00 0. -1.
         23    2    1    2    0    0  0.13743320650E+03 -0.27409215522E+01  0.50780276257E+03  0.53393327609E+03  0.91245266978E+02 0.  0.
        254    2    1    2    0    0 -0.13743320650E+03  0.27409215522E+01 -0.71629424596E+03  0.11602048153E+04  0.90227621473E+03 0.  0.
        -24    2    4    4    0    0 -0.14410423176E+03 -0.22060246790E+03 -0.84608108936E+03  0.88978404943E+03  0.80193306383E+02 0.  0.
         24    2    4    4    0    0  0.66710252629E+01  0.22334338945E+03  0.12978684340E+03  0.27042076583E+03  0.79724486097E+02 0.  0.
         13    1    3    3    0    0  0.40816741529E+02 -0.41359059667E+02  0.13711896703E+03  0.14892343444E+03  0.00000000000E+00 0. -1.
        -13    1    3    3    0    0  0.96616464966E+02  0.38618138115E+02  0.37068379553E+03  0.38500984165E+03  0.00000000000E+00 0.  1.
          4    1    6    6  502    0  0.39912158932E+02  0.16667641385E+03  0.98149295753E+02  0.19750263700E+03  0.00000000000E+00 0. -1.
          3    1    5    5  503    0 -0.15314318746E+03 -0.19838823992E+03 -0.75050467831E+03  0.79124459036E+03  0.00000000000E+00 0. -1.
         -4    1    5    5    0  503  0.90389556972E+01 -0.22214227976E+02 -0.95576411054E+02  0.98539459074E+02  0.00000000000E+00 0.  1.
         -3    1    6    6    0  502 -0.33241133669E+02  0.56666975598E+02  0.31637547649E+02  0.72918128831E+02  0.00000000000E+00 0.  1.
<mgrwt>
<rscale>  0 0.16812600E+04</rscale>
<asrwt>0</asrwt>
<pdfrwt beam="1">  1        1 0.14635612E+00 0.16812600E+04</pdfrwt>
<pdfrwt beam="2">  1       -1 0.11428051E+00 0.16812600E+04</pdfrwt>
<totfact> 0.10983825E+01</totfact>
</mgrwt>
</event>
<event>
12    1  0.1549527E-007  0.2004347E+04  0.7818608E-02  0.8604591E-01
          1   -1    0    0  501    0  0.00000000000E+00  0.00000000000E+00  0.46241600866E+03  0.46241600866E+03  0.00000000000E+00 0. -1.
         -1   -1    0    0    0  501 -0.00000000000E+00 -0.00000000000E+00 -0.21719657891E+04  0.21719657891E+04  0.00000000000E+00 0.  1.
         23    2    1    2    0    0  0.25646655486E+03  0.28235389211E+03  0.23315643498E+03  0.45642576005E+03  0.91998571268E+02 0.  0.
        254    2    1    2    0    0 -0.25646655486E+03 -0.28235389211E+03 -0.19427062154E+04  0.21779560377E+04  0.90768179919E+03 0.  0.
        -24    2    4    4    0    0 -0.37658381391E+03 -0.44817187159E+03 -0.18457275050E+04  0.19380015005E+04  0.80413916325E+02 0.  0.
         24    2    4    4    0    0  0.12011725905E+03  0.16581797947E+03 -0.96978710425E+02  0.23995453718E+03  0.79054104262E+02 0.  0.
         13    1    3    3    0    0  0.34088225124E+02  0.27067273139E+02  0.65455505915E+02  0.78607045625E+02  0.00000000000E+00 0. -1.
        -13    1    3    3    0    0  0.22237832974E+03  0.25528661898E+03  0.16770092906E+03  0.37781871443E+03  0.00000000000E+00 0.  1.
          4    1    6    6  502    0  0.98608158495E+02  0.72550576661E+02 -0.41181637708E+02  0.12916300701E+03  0.00000000000E+00 0. -1.
          3    1    5    5  503    0 -0.10327609973E+03 -0.11045736600E+03 -0.59709445282E+03  0.61594526385E+03  0.00000000000E+00 0. -1.
         -4    1    5    5    0  503 -0.27330771418E+03 -0.33771450559E+03 -0.12486330522E+04  0.13220562367E+04  0.00000000000E+00 0.  1.
         -3    1    6    6    0  502  0.21509100553E+02  0.93267402813E+02 -0.55797072717E+02  0.11079153017E+03  0.00000000000E+00 0.  1.
<mgrwt>
<rscale>  0 0.20043470E+04</rscale>
<asrwt>0</asrwt>
<pdfrwt beam="1">  1        1 0.71140924E-01 0.20043470E+04</pdfrwt>
<pdfrwt beam="2">  1       -1 0.33414859E+00 0.20043470E+04</pdfrwt>
<totfact> 0.90584424E-01</totfact>
</mgrwt>
</event>
<event>
12    1  0.1549527E-007  0.1680930E+04  0.7818608E-02  0.8772316E-01
         -2   -1    0    0    0  501 -0.00000000000E+00  0.00000000000E+00  0.22538753294E+03  0.22538753294E+03  0.00000000000E+00 0.  1.
          2   -1    0    0  501    0  0.00000000000E+00 -0.00000000000E+00 -0.31340753632E+04  0.31340753632E+04  0.00000000000E+00 0. -1.
         23    2    1    2    0    0 -0.10184539428E+03 -0.29471970503E+02  0.12690085667E+03  0.18855233066E+03  0.90592894820E+02 0.  0.
        254    2    1    2    0    0  0.10184539428E+03  0.29471970503E+02 -0.30355886869E+04  0.31709105655E+04  0.91029339043E+03 0.  0.
        -24    2    4    4    0    0 -0.26001499544E+03  0.19382140390E+03 -0.23526450655E+04  0.23762306708E+04  0.79742474257E+02 0.  0.
         24    2    4    4    0    0  0.36186038971E+03 -0.16434943340E+03 -0.68294362140E+03  0.79467989464E+03  0.84560434223E+02 0.  0.
         11    1    3    3    0    0 -0.41121440820E+02 -0.26301708059E+02  0.10992364462E+01  0.48825823728E+02  0.00000000000E+00 0. -1.
        -11    1    3    3    0    0 -0.60723953455E+02 -0.31702624445E+01  0.12580162023E+03  0.13972650693E+03  0.00000000000E+00 0.  1.
          4    1    6    6  502    0  0.30405499955E+02  0.51134733705E+01 -0.29698261553E+02  0.42809213689E+02  0.00000000000E+00 0. -1.
          3    1    5    5  503    0 -0.51876606355E+02  0.40950528518E+02 -0.75066620233E+03  0.75357008658E+03  0.00000000000E+00 0. -1.
         -4    1    5    5    0  503 -0.20813838908E+03  0.15287087538E+03 -0.16019788632E+04  0.16226605843E+04  0.00000000000E+00 0.  1.
         -3    1    6    6    0  502  0.33145488976E+03 -0.16946290677E+03 -0.65324535985E+03  0.75187068095E+03  0.00000000000E+00 0.  1.
<mgrwt>
<rscale>  0 0.16809301E+04</rscale>
<asrwt>0</asrwt>
<pdfrwt beam="1">  1        2 0.48216544E+00 0.16809301E+04</pdfrwt>
<pdfrwt beam="2">  1       -2 0.34675005E-01 0.16809301E+04</pdfrwt>
<totfact> 0.10701530E+01</totfact>
</mgrwt>
</event>
<event>
12    1  0.1549527E-007  0.2015029E+04  0.7818608E-02  0.8599626E-01
          2   -1    0    0  501    0  0.00000000000E+00  0.00000000000E+00  0.17221331344E+04  0.17221331344E+04  0.00000000000E+00 0. -1.
         -2   -1    0    0    0  501 -0.00000000000E+00 -0.00000000000E+00 -0.58943516122E+03  0.58943516122E+03  0.00000000000E+00 0.  1.
         23    2    1    2    0    0 -0.35388453352E+03  0.11503345544E+03  0.12719701782E+04  0.13282736592E+04  0.89083223403E+02 0.  0.
        254    2    1    2    0    0  0.35388453352E+03 -0.11503345544E+03 -0.13927220493E+03  0.98329463646E+03  0.89944685006E+03 0.  0.
        -24    2    4    4    0    0  0.63049564312E+02 -0.44708425314E+03  0.10810695160E+03  0.47105583074E+03  0.79667469703E+02 0.  0.
         24    2    4    4    0    0  0.29083496921E+03  0.33205079769E+03 -0.24737915652E+03  0.51223880572E+03  0.79683344807E+02 0.  0.
         11    1    3    3    0    0 -0.30384057193E+03  0.75893655374E+02  0.95633148454E+03  0.10063045505E+04  0.00000000000E+00 0. -1.
        -11    1    3    3    0    0 -0.50043961589E+02  0.39139800067E+02  0.31563869361E+03  0.32196910868E+03  0.00000000000E+00 0.  1.
          4    1    6    6  502    0  0.16190920552E+03  0.15168922938E+03 -0.16177923347E+03  0.27458465639E+03  0.00000000000E+00 0. -1.
          3    1    5    5  503    0  0.45571291147E+02 -0.27898131273E+03  0.10639381836E+03  0.30203801088E+03  0.00000000000E+00 0. -1.
         -4    1    5    5    0  503  0.17478273165E+02 -0.16810294041E+03  0.17131332376E+01  0.16901781987E+03  0.00000000000E+00 0.  1.
         -3    1    6    6    0  502  0.12892576369E+03  0.18036156831E+03 -0.85599923050E+02  0.23765414933E+03  0.00000000000E+00 0.  1.
<mgrwt>
<rscale>  0 0.20150294E+04</rscale>
<asrwt>0</asrwt>
<pdfrwt beam="1">  1        2 0.26494356E+00 0.20150294E+04</pdfrwt>
<pdfrwt beam="2">  1       -2 0.90682333E-01 0.20150294E+04</pdfrwt>
<totfact> 0.91863182E+00</totfact>
</mgrwt>
</event>
<event>
12    1  0.1549527E-007  0.1836657E+04  0.7818608E-02  0.8687045E-01
         -2   -1    0    0    0  501 -0.00000000000E+00  0.00000000000E+00  0.45343252716E+03  0.45343252716E+03  0.00000000000E+00 0.  1.
          2   -1    0    0  501    0  0.00000000000E+00 -0.00000000000E+00 -0.18598727449E+04  0.18598727449E+04  0.00000000000E+00 0. -1.
         23    2    1    2    0    0 -0.38022717499E+03 -0.15595189230E+03 -0.12447223070E+04  0.13137233236E+04  0.87416542893E+02 0.  0.
        254    2    1    2    0    0  0.38022717499E+03  0.15595189230E+03 -0.16171791071E+03  0.99958194849E+03  0.89672609630E+03 0.  0.
        -24    2    4    4    0    0  0.61870686854E+03  0.30610389008E+03 -0.10580612121E+03  0.70222643085E+03  0.73683405129E+02 0.  0.
         24    2    4    4    0    0 -0.23847969355E+03 -0.15015199778E+03 -0.55911789503E+02  0.29735551764E+03  0.76654999799E+02 0.  0.
         11    1    3    3    0    0 -0.34554419027E+03 -0.11339844146E+03 -0.10393129385E+04  0.11011046173E+04  0.00000000000E+00 0. -1.
        -11    1    3    3    0    0 -0.34682984725E+02 -0.42553450837E+02 -0.20540936850E+03  0.21261870632E+03  0.00000000000E+00 0.  1.
          4    1    6    6  502    0 -0.19140282778E+03 -0.14963460061E+03 -0.59524477226E+02  0.25013740139E+03  0.00000000000E+00 0. -1.
          1    1    5    5  503    0  0.59024290525E+03  0.28471832014E+03 -0.84539188046E+02  0.66075569111E+03  0.00000000000E+00 0. -1.
         -2    1    5    5    0  503  0.28463963292E+02  0.21385569934E+02 -0.21266933166E+02  0.41470739732E+02  0.00000000000E+00 0.  1.
         -1    1    6    6    0  502 -0.47076865763E+02 -0.51739716880E+00  0.36126877233E+01  0.47218116253E+02  0.00000000000E+00 0.  1.
<mgrwt>
<rscale>  0 0.18366565E+04</rscale>
<asrwt>0</asrwt>
<pdfrwt beam="1">  1        2 0.28613428E+00 0.18366565E+04</pdfrwt>
<pdfrwt beam="2">  1       -2 0.69758849E-01 0.18366565E+04</pdfrwt>
<totfact> 0.14090872E+01</totfact>
</mgrwt>
</event>
<event>
12    1  0.1549527E-007  0.1413906E+04  0.7818608E-02  0.8943814E-01
         -2   -1    0    0    0  501 -0.00000000000E+00  0.00000000000E+00  0.21313725407E+03  0.21313725407E+03  0.00000000000E+00 0. -1.
          2   -1    0    0  501    0  0.00000000000E+00 -0.00000000000E+00 -0.23448856050E+04  0.23448856050E+04  0.00000000000E+00 0.  1.
         23    2    1    2    0    0 -0.74484933684E+02 -0.24746412715E+03 -0.65814588549E+02  0.29033441397E+03  0.11478681239E+03 0.  0.
        254    2    1    2    0    0  0.74484933684E+02  0.24746412715E+03 -0.20659337624E+04  0.22676884451E+04  0.89863344802E+03 0.  0.
        -24    2    4    4    0    0 -0.11844424090E+02 -0.33088324492E+03 -0.67113390384E+03  0.75316857029E+03  0.84959791917E+02 0.  0.
         24    2    4    4    0    0  0.86329357774E+02  0.57834737207E+03 -0.13947998585E+04  0.15145198748E+04  0.79783237515E+02 0.  0.
         13    1    3    3    0    0 -0.75059077503E+02 -0.93516990026E+02  0.68283676687E+01  0.12010794788E+03  0.00000000000E+00 0. -1.
        -13    1    3    3    0    0  0.57414381896E+00 -0.15394713712E+03 -0.72642956218E+02  0.17022646609E+03  0.00000000000E+00 0.  1.
          2    1    6    6  502    0  0.59457859953E+02  0.50577613285E+03 -0.12610307148E+04  0.13599791165E+04  0.00000000000E+00 0. -1.
          1    1    5    5  503    0  0.27365437402E+02 -0.12808398216E+03 -0.20428322228E+03  0.24266439491E+03  0.00000000000E+00 0. -1.
         -2    1    5    5    0  503 -0.39209861492E+02 -0.20279926276E+03 -0.46685068155E+03  0.51050417538E+03  0.00000000000E+00 0.  1.
         -1    1    6    6    0  502  0.26871497822E+02  0.72571239222E+02 -0.13376914378E+03  0.15454075833E+03  0.00000000000E+00 0.  1.
<mgrwt>
<rscale>  0 0.14139059E+04</rscale>
<asrwt>0</asrwt>
<pdfrwt beam="1">  1        2 0.36075161E+00 0.14139059E+04</pdfrwt>
<pdfrwt beam="2">  1       -2 0.32790348E-01 0.14139059E+04</pdfrwt>
<totfact> 0.36139828E+01</totfact>
</mgrwt>
</event>
<event>
12    1  0.1549527E-007  0.2853427E+04  0.7818608E-02  0.8286871E-01
         -1   -1    0    0    0  501 -0.00000000000E+00  0.00000000000E+00  0.12265740507E+04  0.12265740507E+04  0.00000000000E+00 0.  1.
          1   -1    0    0  501    0  0.00000000000E+00 -0.00000000000E+00 -0.16595096430E+04  0.16595096430E+04  0.00000000000E+00 0. -1.
         23    2    1    2    0    0  0.56426466387E+02  0.99869011934E+03  0.62093180157E+03  0.11806260992E+04  0.88066925768E+02 0.  0.
        254    2    1    2    0    0 -0.56426466387E+02 -0.99869011934E+03 -0.10538673939E+04  0.17054575946E+04  0.89296316968E+03 0.  0.
        -24    2    4    4    0    0  0.21654051508E+03  0.46814873813E+02 -0.72425276572E+02  0.24359824387E+03  0.70804354707E+02 0.  0.
         24    2    4    4    0    0 -0.27296698147E+03 -0.10455049931E+04 -0.98144211729E+03  0.14618593507E+04  0.78819210382E+02 0.  0.
         11    1    3    3    0    0 -0.20588133559E+02  0.32675950356E+03  0.21854154683E+03  0.39364457586E+03  0.00000000000E+00 0. -1.
        -11    1    3    3    0    0  0.77014599946E+02  0.67193061578E+03  0.40239025473E+03  0.78698152337E+03  0.00000000000E+00 0.  1.
          4    1    6    6  502    0 -0.12338697867E+02 -0.15417329346E+02 -0.98460751882E+01  0.22065418778E+02  0.00000000000E+00 0. -1.
          3    1    5    5  503    0 -0.17879240089E+01  0.10791867698E+02 -0.64184592423E+01  0.12682968884E+02  0.00000000000E+00 0. -1.
         -4    1    5    5    0  503  0.21832843909E+03  0.36023006115E+02 -0.66006817329E+02  0.23091527498E+03  0.00000000000E+00 0.  1.
         -3    1    6    6    0  502 -0.26062828360E+03 -0.10300876638E+04 -0.97159604210E+03  0.14397939319E+04  0.00000000000E+00 0.  1.
<mgrwt>
<rscale>  0 0.28534270E+04</rscale>
<asrwt>0</asrwt>
<pdfrwt beam="1">  1        1 0.25530917E+00 0.28534270E+04</pdfrwt>
<pdfrwt beam="2">  1       -1 0.18870370E+00 0.28534270E+04</pdfrwt>
<totfact> 0.78996226E-01</totfact>
</mgrwt>
</event>
<event>
12    1  0.1549527E-007  0.1824597E+04  0.7818608E-02  0.8693327E-01
         -1   -1    0    0    0  501 -0.00000000000E+00  0.00000000000E+00  0.31894921390E+03  0.31894921390E+03  0.00000000000E+00 0.  1.
          1   -1    0    0  501    0  0.00000000000E+00 -0.00000000000E+00 -0.26094705023E+04  0.26094705023E+04  0.00000000000E+00 0. -1.
         23    2    1    2    0    0  0.39018007482E+03  0.10718772334E+03  0.25256965114E+02  0.41574729979E+03  0.92077164215E+02 0.  0.
        254    2    1    2    0    0 -0.39018007482E+03 -0.10718772334E+03 -0.23157782535E+04  0.25126724164E+04  0.88710994469E+03 0.  0.
        -24    2    4    4    0    0 -0.58140366975E+03 -0.22436043758E+03 -0.20977629100E+04  0.21898427500E+04  0.80213527241E+02 0.  0.
         24    2    4    4    0    0  0.19122359493E+03  0.11717271424E+03 -0.21801534353E+03  0.32282966644E+03  0.79952456503E+02 0.  0.
         11    1    3    3    0    0  0.26496857601E+03  0.33993496235E+02  0.39373966656E+02  0.27002631966E+03  0.00000000000E+00 0.  1.
        -11    1    3    3    0    0  0.12521149881E+03  0.73194227106E+02 -0.14117001542E+02  0.14572098012E+03  0.00000000000E+00 0. -1.
          2    1    6    6  502    0  0.29980751022E+02  0.25035416857E+02 -0.36816310949E+01  0.39232281817E+02  0.00000000000E+00 0. -1.
          3    1    5    5  503    0 -0.21521896996E+03 -0.45863714798E+02 -0.68044771963E+03  0.71514458994E+03  0.00000000000E+00 0. -1.
         -4    1    5    5    0  503 -0.36618469979E+03 -0.17849672279E+03 -0.14173151904E+04  0.14746981601E+04  0.00000000000E+00 0.  1.
         -1    1    6    6    0  502  0.16124284391E+03  0.92137297387E+02 -0.21433371243E+03  0.28359738463E+03  0.00000000000E+00 0.  1.
<mgrwt>
<rscale>  0 0.18245970E+04</rscale>
<asrwt>0</asrwt>
<pdfrwt beam="1">  1        1 0.40145700E+00 0.18245970E+04</pdfrwt>
<pdfrwt beam="2">  1       -1 0.49069110E-01 0.18245970E+04</pdfrwt>
<totfact> 0.44573201E+00</totfact>
</mgrwt>
</event>
<event>
12    1  0.1549527E-007  0.2056510E+04  0.7818608E-02  0.8580647E-01
          1   -1    0    0  501    0  0.00000000000E+00  0.00000000000E+00  0.21593286469E+04  0.21593286469E+04  0.00000000000E+00 0. -1.
         -1   -1    0    0    0  501 -0.00000000000E+00 -0.00000000000E+00 -0.48964661354E+03  0.48964661354E+03  0.00000000000E+00 0.  1.
         23    2    1    2    0    0 -0.68594559798E+03  0.22779685203E+03  0.15781729965E+03  0.74547056031E+03  0.91691259310E+02 0.  0.
        254    2    1    2    0    0  0.68594559798E+03 -0.22779685203E+03  0.15118647337E+04  0.19035047001E+04  0.90287452129E+03 0.  0.
        -24    2    4    4    0    0  0.15352017395E+02 -0.41315488216E+03  0.34905199258E+03  0.54590990326E+03  0.72440926768E+02 0.  0.
         24    2    4    4    0    0  0.67059358058E+03  0.18535803013E+03  0.11628127411E+04  0.13575947968E+04  0.82926545145E+02 0.  0.
         13    1    3    3    0    0 -0.46203718640E+03  0.17331969640E+03  0.14645798990E+03  0.51475044593E+03  0.00000000000E+00 0.  1.
        -13    1    3    3    0    0 -0.22390841157E+03  0.54477155635E+02  0.11359309747E+02  0.23072011438E+03  0.00000000000E+00 0. -1.
          4    1    6    6  502    0  0.58261662270E+03  0.13095901706E+03  0.99802637721E+03  0.11630344117E+04  0.00000000000E+00 0. -1.
          1    1    5    5  503    0  0.37583068840E+02 -0.15952294834E+03  0.11641888295E+03  0.20103087927E+03  0.00000000000E+00 0. -1.
         -2    1    5    5    0  503 -0.22231051444E+02 -0.25363193381E+03  0.23263310962E+03  0.34487902399E+03  0.00000000000E+00 0.  1.
         -3    1    6    6    0  502  0.87976957885E+02  0.54399013066E+02  0.16478636389E+03  0.19456038514E+03  0.00000000000E+00 0.  1.
<mgrwt>
<rscale>  0 0.20565096E+04</rscale>
<asrwt>0</asrwt>
<pdfrwt beam="1">  1        1 0.33220440E+00 0.20565096E+04</pdfrwt>
<pdfrwt beam="2">  1       -1 0.75330249E-01 0.20565096E+04</pdfrwt>
<totfact> 0.37974637E+00</totfact>
</mgrwt>
</event>
<event>
12    1  0.1549527E-007  0.2699363E+04  0.7818608E-02  0.8335212E-01
          1   -1    0    0  501    0  0.00000000000E+00  0.00000000000E+00  0.19308047506E+04  0.19308047506E+04  0.00000000000E+00 0. -1.
         -1   -1    0    0    0  501 -0.00000000000E+00 -0.00000000000E+00 -0.94346171521E+03  0.94346171521E+03  0.00000000000E+00 0.  1.
         23    2    1    2    0    0 -0.26455528311E+03 -0.27539725239E+03  0.16541268579E+04  0.17000987271E+04  0.91470624574E+02 0.  0.
        254    2    1    2    0    0  0.26455528311E+03  0.27539725239E+03 -0.66678382258E+03  0.11741677387E+04  0.88782659800E+03 0.  0.
        -24    2    4    4    0    0  0.26236387279E+03 -0.28825903088E+03 -0.28684177516E+03  0.49051083837E+03  0.79966292556E+02 0.  0.
         24    2    4    4    0    0  0.21914103186E+01  0.56365628328E+03 -0.37994204742E+03  0.68365690034E+03  0.72921807651E+02 0.  0.
         13    1    3    3    0    0 -0.26965390377E+03 -0.26600584822E+03  0.15581382264E+04  0.16035170943E+04  0.00000000000E+00 0. -1.
        -13    1    3    3    0    0  0.50986206564E+01 -0.93914041745E+01  0.95988631531E+02  0.96581632768E+02  0.00000000000E+00 0.  1.
          2    1    6    6  502    0 -0.65221830210E+01  0.13464951642E+03 -0.55832953648E+02  0.14591213060E+03  0.00000000000E+00 0. -1.
          3    1    5    5  503    0  0.19368407979E+03 -0.21967281899E+03 -0.25510615911E+03  0.38839261397E+03  0.00000000000E+00 0. -1.
         -4    1    5    5    0  503  0.68679793003E+02 -0.68586211890E+02 -0.31735616052E+02  0.10211822440E+03  0.00000000000E+00 0.  1.
         -1    1    6    6    0  502  0.87135933396E+01  0.42900676685E+03 -0.32410909377E+03  0.53774476974E+03  0.00000000000E+00 0.  1.
<mgrwt>
<rscale>  0 0.26993632E+04</rscale>
<asrwt>0</asrwt>
<pdfrwt beam="1">  1        1 0.29704688E+00 0.26993632E+04</pdfrwt>
<pdfrwt beam="2">  1       -1 0.14514796E+00 0.26993632E+04</pdfrwt>
<totfact> 0.11046737E+00</totfact>
</mgrwt>
</event>
<event>
12    1  0.1549527E-007  0.1305572E+04  0.7818608E-02  0.9025158E-01
          2   -1    0    0  501    0  0.00000000000E+00  0.00000000000E+00  0.50587179039E+03  0.50587179039E+03  0.00000000000E+00 0. -1.
         -2   -1    0    0    0  501 -0.00000000000E+00 -0.00000000000E+00 -0.84236714962E+03  0.84236714962E+03  0.00000000000E+00 0.  1.
         23    2    1    2    0    0 -0.20740545466E+03 -0.84119367541E+02 -0.33662030339E+03  0.41468244746E+03  0.92494394200E+02 0.  0.
        254    2    1    2    0    0  0.20740545466E+03  0.84119367541E+02  0.12494417003E+00  0.93355649255E+03  0.90633030323E+03 0.  0.
        -24    2    4    4    0    0  0.38161711667E+03 -0.70408881160E+02 -0.33442196325E+03  0.51823676203E+03  0.78372557262E+02 0.  0.
         24    2    4    4    0    0 -0.17421166201E+03  0.15452824870E+03  0.33454690742E+03  0.41531973052E+03  0.79625137166E+02 0.  0.
         13    1    3    3    0    0 -0.60526225097E+02 -0.87684327970E+00 -0.37501807554E+02  0.71207993572E+02  0.00000000000E+00 0. -1.
        -13    1    3    3    0    0 -0.14687922956E+03 -0.83242524261E+02 -0.29911849584E+03  0.34347445389E+03  0.00000000000E+00 0.  1.
          4    1    6    6  502    0 -0.15732960437E+03  0.14811473308E+03  0.33330367672E+03  0.39721772303E+03  0.00000000000E+00 0. -1.
          1    1    5    5  503    0  0.37016383285E+03 -0.77913735178E+02 -0.30548350040E+03  0.48622215323E+03  0.00000000000E+00 0. -1.
         -2    1    5    5    0  503  0.11453283822E+02  0.75048540178E+01 -0.28938462852E+02  0.32014608796E+02  0.00000000000E+00 0.  1.
         -3    1    6    6    0  502 -0.16882057643E+02  0.64135156159E+01  0.12432306954E+01  0.18102007496E+02  0.00000000000E+00 0.  1.
<mgrwt>
<rscale>  0 0.13055723E+04</rscale>
<asrwt>0</asrwt>
<pdfrwt beam="1">  1        2 0.77826430E-01 0.13055723E+04</pdfrwt>
<pdfrwt beam="2">  1       -2 0.12959494E+00 0.13055723E+04</pdfrwt>
<totfact> 0.26041425E+01</totfact>
</mgrwt>
</event>
<event>
12    1  0.1549527E-007  0.1220396E+04  0.7818608E-02  0.9095189E-01
         -1   -1    0    0    0  501 -0.00000000000E+00  0.00000000000E+00  0.80942787733E+03  0.80942787733E+03  0.00000000000E+00 0.  1.
          1   -1    0    0  501    0  0.00000000000E+00 -0.00000000000E+00 -0.46000624298E+03  0.46000624298E+03  0.00000000000E+00 0. -1.
         23    2    1    2    0    0 -0.18188292051E+03  0.18999555704E+03  0.19675985188E+02  0.27756703709E+03  0.86467376624E+02 0.  0.
        254    2    1    2    0    0  0.18188292051E+03 -0.18999555704E+03  0.32974564916E+03  0.99186708322E+03  0.89771287680E+03 0.  0.
        -24    2    4    4    0    0  0.29832832634E+03 -0.31036429720E+03  0.55133999968E+03  0.70431452807E+03  0.82203235510E+02 0.  0.
         24    2    4    4    0    0 -0.11644540583E+03  0.12036874016E+03 -0.22159435052E+03  0.28755255515E+03  0.74392537575E+02 0.  0.
         11    1    3    3    0    0 -0.27108696934E+02  0.12640095490E+02 -0.23760468637E+02  0.38199650958E+02  0.00000000000E+00 0. -1.
        -11    1    3    3    0    0 -0.15477422357E+03  0.17735546155E+03  0.43436453825E+02  0.23936738613E+03  0.00000000000E+00 0.  1.
          4    1    6    6  502    0 -0.12549469631E+03  0.98953269891E+02 -0.19766286532E+03  0.25418748347E+03  0.00000000000E+00 0. -1.
          1    1    5    5  503    0  0.28984716551E+03 -0.31538706710E+03  0.54072296004E+03  0.68982729793E+03  0.00000000000E+00 0. -1.
         -2    1    5    5    0  503  0.84811608338E+01  0.50227698999E+01  0.10617039631E+02  0.14487230138E+02  0.00000000000E+00 0.  1.
         -3    1    6    6    0  502  0.90492904767E+01  0.21415470270E+02 -0.23931485195E+02  0.33365071686E+02  0.00000000000E+00 0.  1.
<mgrwt>
<rscale>  0 0.12203965E+04</rscale>
<asrwt>0</asrwt>
<pdfrwt beam="1">  1        1 0.70770191E-01 0.12203965E+04</pdfrwt>
<pdfrwt beam="2">  1       -1 0.12452737E+00 0.12203965E+04</pdfrwt>
<totfact> 0.27755243E+01</totfact>
</mgrwt>
</event>
<event>
12    1  0.1549527E-007  0.1952109E+04  0.7818608E-02  0.8629344E-01
          1   -1    0    0  501    0  0.00000000000E+00  0.00000000000E+00  0.25972786007E+04  0.25972786007E+04  0.00000000000E+00 0. -1.
         -1   -1    0    0    0  501 -0.00000000000E+00 -0.00000000000E+00 -0.36680031405E+03  0.36680031405E+03  0.00000000000E+00 0.  1.
         23    2    1    2    0    0 -0.19425524715E+03  0.38313187457E+03 -0.79845877011E+02  0.44650714417E+03  0.92022450350E+02 0.  0.
        254    2    1    2    0    0  0.19425524715E+03 -0.38313187457E+03  0.23103241637E+04  0.25175717706E+04  0.90335194941E+03 0.  0.
        -24    2    4    4    0    0  0.48073943248E+03 -0.48084359804E+03  0.16606443602E+04  0.17963480308E+04  0.82495993097E+02 0.  0.
         24    2    4    4    0    0 -0.28648418533E+03  0.97711723473E+02  0.64967980352E+03  0.72122373987E+03  0.80368317777E+02 0.  0.
         11    1    3    3    0    0 -0.59219475733E+02  0.53627883970E+02  0.62802901435E+01  0.80139492696E+02  0.00000000000E+00 0. -1.
        -11    1    3    3    0    0 -0.13503577142E+03  0.32950399060E+03 -0.86126167154E+02  0.36636765148E+03  0.00000000000E+00 0.  1.
          2    1    6    6  502    0 -0.23434919848E+03  0.85173316507E+02  0.59252634338E+03  0.64285418896E+03  0.00000000000E+00 0. -1.
          1    1    5    5  503    0  0.38352855714E+03 -0.42291288547E+03  0.14177433568E+04  0.15283800864E+04  0.00000000000E+00 0. -1.
         -2    1    5    5    0  503  0.97210875342E+02 -0.57930712570E+02  0.24290100340E+03  0.26796794434E+03  0.00000000000E+00 0.  1.
         -1    1    6    6    0  502 -0.52134986846E+02  0.12538406966E+02  0.57153460144E+02  0.78369550905E+02  0.00000000000E+00 0.  1.
<mgrwt>
<rscale>  0 0.19521092E+04</rscale>
<asrwt>0</asrwt>
<pdfrwt beam="1">  1        1 0.39958131E+00 0.19521092E+04</pdfrwt>
<pdfrwt beam="2">  1       -1 0.56430819E-01 0.19521092E+04</pdfrwt>
<totfact> 0.34334616E+00</totfact>
</mgrwt>
</event>
<event>
12    1  0.1549527E-007  0.2013162E+04  0.7818608E-02  0.8600491E-01
         -2   -1    0    0    0  501 -0.00000000000E+00  0.00000000000E+00  0.54104060458E+03  0.54104060458E+03  0.00000000000E+00 0.  1.
          2   -1    0    0  501    0  0.00000000000E+00 -0.00000000000E+00 -0.18726982017E+04  0.18726982017E+04  0.00000000000E+00 0. -1.
         23    2    1    2    0    0 -0.67473193891E+03 -0.27102500693E+03 -0.12838398733E+03  0.74331398632E+03  0.85530639476E+02 0.  0.
        254    2    1    2    0    0  0.67473193891E+03  0.27102500693E+03 -0.12032736098E+04  0.16704248200E+04  0.90207203448E+03 0.  0.
        -24    2    4    4    0    0  0.59196098076E+03 -0.21154129395E+03 -0.48472810675E+03  0.79718497417E+03  0.73314553657E+02 0.  0.
         24    2    4    4    0    0  0.82770958150E+02  0.48256630089E+03 -0.71854550305E+03  0.87323984581E+03  0.80739842058E+02 0.  0.
         13    1    3    3    0    0 -0.46364956857E+03 -0.22792159478E+03 -0.95019873340E+02  0.52530748342E+03  0.00000000000E+00 0.  1.
        -13    1    3    3    0    0 -0.21108237034E+03 -0.43103412158E+02 -0.33364113991E+02  0.21800650290E+03  0.00000000000E+00 0. -1.
          2    1    6    6  502    0  0.90252362635E+01  0.26352710664E+03 -0.34979696356E+03  0.43804783590E+03  0.00000000000E+00 0. -1.
          1    1    5    5  503    0  0.85517541563E+02 -0.41552403610E+01 -0.66714379501E+02  0.10854180932E+03  0.00000000000E+00 0. -1.
         -2    1    5    5    0  503  0.50644343920E+03 -0.20738605359E+03 -0.41801372725E+03  0.68864316486E+03  0.00000000000E+00 0.  1.
         -1    1    6    6    0  502  0.73745721886E+02  0.21903919425E+03 -0.36874853948E+03  0.43519200990E+03  0.00000000000E+00 0.  1.
<mgrwt>
<rscale>  0 0.20131625E+04</rscale>
<asrwt>0</asrwt>
<pdfrwt beam="1">  1        2 0.28810742E+00 0.20131625E+04</pdfrwt>
<pdfrwt beam="2">  1       -2 0.83237014E-01 0.20131625E+04</pdfrwt>
<totfact> 0.92214634E+00</totfact>
</mgrwt>
</event>
<event>
12    1  0.1549527E-007  0.2366944E+04  0.7818608E-02  0.8451984E-01
          1   -1    0    0  501    0  0.00000000000E+00  0.00000000000E+00  0.11647407671E+04  0.11647407671E+04  0.00000000000E+00 0. -1.
         -1   -1    0    0    0  501 -0.00000000000E+00 -0.00000000000E+00 -0.12025039773E+04  0.12025039773E+04  0.00000000000E+00 0.  1.
         23    2    1    2    0    0  0.28285223669E+03 -0.93728716640E+03 -0.25791212548E+03  0.10167820474E+04  0.93885287939E+02 0.  0.
        254    2    1    2    0    0 -0.28285223669E+03  0.93728716640E+03  0.22014891530E+03  0.13504626970E+04  0.90375402133E+03 0.  0.
        -24    2    4    4    0    0 -0.23119322872E+03  0.70145653863E+03 -0.27699022530E+03  0.79293104089E+03  0.80774167333E+02 0.  0.
         24    2    4    4    0    0 -0.51659007974E+02  0.23583062777E+03  0.49713914059E+03  0.55753165614E+03  0.73549197046E+02 0.  0.
         11    1    3    3    0    0  0.11907449994E+02 -0.58393983331E+02  0.61594749197E+01  0.59913135337E+02  0.00000000000E+00 0. -1.
        -11    1    3    3    0    0  0.27094478670E+03 -0.87889318307E+03 -0.26407160040E+03  0.95686891203E+03  0.00000000000E+00 0.  1.
          4    1    6    6  502    0  0.46297285479E+01  0.48832575108E+00  0.29881184246E-01  0.46555065623E+01  0.00000000000E+00 0. -1.
          1    1    5    5  503    0 -0.15930534777E+03  0.37681538669E+03 -0.12884386269E+03  0.42891580808E+03  0.00000000000E+00 0. -1.
         -2    1    5    5    0  503 -0.71887880950E+02  0.32464115194E+03 -0.14814636261E+03  0.36401523281E+03  0.00000000000E+00 0.  1.
         -3    1    6    6    0  502 -0.56288736522E+02  0.23534230201E+03  0.49710925941E+03  0.55287614957E+03  0.00000000000E+00 0.  1.
<mgrwt>
<rscale>  0 0.23669435E+04</rscale>
<asrwt>0</asrwt>
<pdfrwt beam="1">  1        1 0.17919089E+00 0.23669435E+04</pdfrwt>
<pdfrwt beam="2">  1       -1 0.18500061E+00 0.23669435E+04</pdfrwt>
<totfact> 0.19539871E+00</totfact>
</mgrwt>
</event>
<event>
12    1  0.1549527E-007  0.1269491E+04  0.7818608E-02  0.9054115E-01
         -1   -1    0    0    0  501 -0.00000000000E+00  0.00000000000E+00  0.55568865134E+03  0.55568865134E+03  0.00000000000E+00 0.  1.
          1   -1    0    0  501    0  0.00000000000E+00 -0.00000000000E+00 -0.72505011209E+03  0.72505011209E+03  0.00000000000E+00 0. -1.
         23    2    1    2    0    0 -0.15478370053E+03  0.11955197289E+03 -0.26751051446E+03  0.34357980127E+03  0.90744345943E+02 0.  0.
        254    2    1    2    0    0  0.15478370053E+03 -0.11955197289E+03  0.98149053711E+02  0.93715896217E+03  0.91125354072E+03 0.  0.
        -24    2    4    4    0    0  0.32637270975E+03 -0.19923586619E+03 -0.29735984816E+03  0.49154890964E+03  0.83566591551E+02 0.  0.
         24    2    4    4    0    0 -0.17158900922E+03  0.79683893304E+02  0.39550890187E+03  0.44561005253E+03  0.79678833607E+02 0.  0.
         11    1    3    3    0    0 -0.13388346426E+03  0.13155960104E+03 -0.21255593526E+03  0.28357139532E+03  0.00000000000E+00 0. -1.
        -11    1    3    3    0    0 -0.20900236269E+02 -0.12007628146E+02 -0.54954579198E+02  0.60008405949E+02  0.00000000000E+00 0.  1.
          2    1    6    6  502    0 -0.14805551497E+03  0.88878249280E+02  0.37576562698E+03  0.41354514279E+03  0.00000000000E+00 0. -1.
          1    1    5    5  503    0  0.13608351850E+03 -0.12039496591E+03 -0.10574977856E+03  0.21023008227E+03  0.00000000000E+00 0. -1.
         -2    1    5    5    0  503  0.19028919125E+03 -0.78840900285E+02 -0.19161006959E+03  0.28131882737E+03  0.00000000000E+00 0.  1.
         -1    1    6    6    0  502 -0.23533494250E+02 -0.91943559756E+01  0.19743274891E+02  0.32064909743E+02  0.00000000000E+00 0.  1.
<mgrwt>
<rscale>  0 0.12694914E+04</rscale>
<asrwt>0</asrwt>
<pdfrwt beam="1">  1        1 0.11154617E+00 0.12694914E+04</pdfrwt>
<pdfrwt beam="2">  1       -1 0.85490563E-01 0.12694914E+04</pdfrwt>
<totfact> 0.34387064E+01</totfact>
</mgrwt>
</event>
<event>
12    1  0.1549527E-007  0.1310272E+04  0.7818608E-02  0.9021459E-01
         -1   -1    0    0    0  501 -0.00000000000E+00  0.00000000000E+00  0.55044324640E+03  0.55044324640E+03  0.00000000000E+00 0.  1.
          1   -1    0    0  501    0  0.00000000000E+00 -0.00000000000E+00 -0.77974081561E+03  0.77974081561E+03  0.00000000000E+00 0. -1.
         23    2    1    2    0    0 -0.28323994246E+03 -0.15586426653E+03  0.35214609959E+02  0.33836177816E+03  0.93434948407E+02 0.  0.
        254    2    1    2    0    0  0.28323994246E+03  0.15586426653E+03 -0.26451217917E+03  0.99182228385E+03  0.89957001686E+03 0.  0.
        -24    2    4    4    0    0 -0.18679301405E+03  0.36541630498E+03 -0.21065446105E+03  0.46823186592E+03  0.80281207394E+02 0.  0.
         24    2    4    4    0    0  0.47003295651E+03 -0.20955203845E+03 -0.53857718117E+02  0.52359041793E+03  0.80020215696E+02 0.  0.
         11    1    3    3    0    0 -0.16689685471E+03 -0.70321374455E+02  0.62131331413E+02  0.19146790374E+03  0.00000000000E+00 0. -1.
        -11    1    3    3    0    0 -0.11634308775E+03 -0.85542892073E+02 -0.26916721454E+02  0.14689387443E+03  0.00000000000E+00 0.  1.
          4    1    6    6  502    0  0.45266978209E+03 -0.18547465529E+03 -0.61209712017E+02  0.49300852753E+03  0.00000000000E+00 0. -1.
          3    1    5    5  503    0 -0.14935242832E+03  0.33409412129E+03 -0.16514840199E+03  0.40149598305E+03  0.00000000000E+00 0. -1.
         -4    1    5    5    0  503 -0.37440585736E+02  0.31322183685E+02 -0.45506059064E+02  0.66735882871E+02  0.00000000000E+00 0.  1.
         -3    1    6    6    0  502  0.17363174419E+02 -0.24077383165E+02  0.73519939006E+01  0.30581890398E+02  0.00000000000E+00 0.  1.
<mgrwt>
<rscale>  0 0.13102718E+04</rscale>
<asrwt>0</asrwt>
<pdfrwt beam="1">  1        1 0.11996012E+00 0.13102718E+04</pdfrwt>
<pdfrwt beam="2">  1       -1 0.84683577E-01 0.13102718E+04</pdfrwt>
<totfact> 0.31228451E+01</totfact>
</mgrwt>
</event>
<event>
12    1  0.1549527E-007  0.1565149E+04  0.7818608E-02  0.8842249E-01
          1   -1    0    0  501    0  0.00000000000E+00  0.00000000000E+00  0.13517097020E+04  0.13517097020E+04  0.00000000000E+00 0. -1.
         -1   -1    0    0    0  501 -0.00000000000E+00 -0.00000000000E+00 -0.45307263583E+03  0.45307263583E+03  0.00000000000E+00 0.  1.
         23    2    1    2    0    0  0.87978796327E+02  0.31139965697E+03 -0.85876618899E+02  0.35379965246E+03  0.11440885212E+03 0.  0.
        254    2    1    2    0    0 -0.87978796327E+02 -0.31139965697E+03  0.98451368508E+03  0.14509826854E+04  0.10155656267E+04 0.  0.
        -24    2    4    4    0    0 -0.38488755781E+02 -0.31526801673E+03 -0.11544035476E+03  0.34702602070E+03  0.78900423582E+02 0.  0.
         24    2    4    4    0    0 -0.49490040545E+02  0.38683597527E+01  0.10999540398E+04  0.11039566647E+04  0.79732047484E+02 0.  0.
         11    1    3    3    0    0  0.40276559268E+02  0.12323258840E+03  0.22333484897E+02  0.13155704701E+03  0.00000000000E+00 0. -1.
        -11    1    3    3    0    0  0.47702237058E+02  0.18816706857E+03 -0.10821010380E+03  0.22224260545E+03  0.00000000000E+00 0.  1.
          2    1    6    6  502    0  0.10677381214E+02 -0.21207218559E+02  0.47961734337E+03  0.48020469453E+03  0.00000000000E+00 0. -1.
          3    1    5    5  503    0 -0.44463785014E+02 -0.31758742918E+03 -0.11467158555E+03  0.34057066210E+03  0.00000000000E+00 0. -1.
         -4    1    5    5    0  503  0.59750292325E+01  0.23194124569E+01 -0.76876921082E+00  0.64553585937E+01  0.00000000000E+00 0.  1.
         -1    1    6    6    0  502 -0.60167421759E+02  0.25075578311E+02  0.62033669647E+03  0.62375197014E+03  0.00000000000E+00 0.  1.
<mgrwt>
<rscale>  0 0.15651488E+04</rscale>
<asrwt>0</asrwt>
<pdfrwt beam="1">  1        1 0.20795534E+00 0.15651488E+04</pdfrwt>
<pdfrwt beam="2">  1       -1 0.69703483E-01 0.15651488E+04</pdfrwt>
<totfact> 0.16643318E+01</totfact>
</mgrwt>
</event>
<event>
12    1  0.1549527E-007  0.1258227E+04  0.7818608E-02  0.9063364E-01
          1   -1    0    0  501    0  0.00000000000E+00  0.00000000000E+00  0.86951759895E+03  0.86951759895E+03  0.00000000000E+00 0. -1.
         -1   -1    0    0    0  501 -0.00000000000E+00 -0.00000000000E+00 -0.45517603867E+03  0.45517603867E+03  0.00000000000E+00 0.  1.
         23    2    1    2    0    0 -0.75745791642E+02 -0.18743024541E+03 -0.12329191756E+03  0.25359009414E+03  0.90771785635E+02 0.  0.
        254    2    1    2    0    0  0.75745791642E+02  0.18743024541E+03  0.53763347784E+03  0.10711035435E+04  0.90407163572E+03 0.  0.
        -24    2    4    4    0    0 -0.21202253641E+03  0.41413859958E+03  0.79220435984E+02  0.47888434587E+03  0.81178837334E+02 0.  0.
         24    2    4    4    0    0  0.28776832805E+03 -0.22670835417E+03  0.45841304185E+03  0.59221919761E+03  0.79835910447E+02 0.  0.
         11    1    3    3    0    0  0.16805897576E+02 -0.11808762379E+02 -0.24120290657E+02  0.31680806234E+02  0.00000000000E+00 0. -1.
        -11    1    3    3    0    0 -0.92551689217E+02 -0.17562148303E+03 -0.99171626898E+02  0.22190928791E+03  0.00000000000E+00 0.  1.
          2    1    6    6  502    0  0.23771487762E+03 -0.17873304106E+03  0.41446121805E+03  0.51012936033E+03  0.00000000000E+00 0. -1.
          1    1    5    5  503    0 -0.18966418282E+03  0.33172122863E+03  0.37819591465E+02  0.38398150641E+03  0.00000000000E+00 0. -1.
         -2    1    5    5    0  503 -0.22358353591E+02  0.82417370950E+02  0.41400844519E+02  0.94902839455E+02  0.00000000000E+00 0.  1.
         -1    1    6    6    0  502  0.50053450429E+02 -0.47975313112E+02  0.43951823802E+02  0.82089837274E+02  0.00000000000E+00 0.  1.
<mgrwt>
<rscale>  0 0.12582267E+04</rscale>
<asrwt>0</asrwt>
<pdfrwt beam="1">  1        1 0.13377194E+00 0.12582267E+04</pdfrwt>
<pdfrwt beam="2">  1       -1 0.70027083E-01 0.12582267E+04</pdfrwt>
<totfact> 0.39195369E+01</totfact>
</mgrwt>
</event>
<event>
12    1  0.1549527E-007  0.2849307E+04  0.7818608E-02  0.8288122E-01
         -2   -1    0    0    0  501 -0.00000000000E+00  0.00000000000E+00  0.85452690711E+03  0.85452690711E+03  0.00000000000E+00 0.  1.
          2   -1    0    0  501    0  0.00000000000E+00 -0.00000000000E+00 -0.23751601090E+04  0.23751601090E+04  0.00000000000E+00 0. -1.
         23    2    1    2    0    0  0.23997167934E+03  0.31897741648E+03  0.72007064056E+03  0.82822073914E+03  0.90082552324E+02 0.  0.
        254    2    1    2    0    0 -0.23997167934E+03 -0.31897741648E+03 -0.22407038424E+04  0.24014662769E+04  0.76612895179E+03 0.  0.
        -24    2    4    4    0    0 -0.37901134446E+03 -0.49252839389E+03 -0.15624043050E+04  0.16834056596E+04  0.80706781007E+02 0.  0.
         24    2    4    4    0    0  0.13903966512E+03  0.17355097741E+03 -0.67829953737E+03  0.71806061730E+03  0.77902615325E+02 0.  0.
         11    1    3    3    0    0  0.48528722404E+02  0.13016049020E+03  0.21360970955E+03  0.25480560849E+03  0.00000000000E+00 0.  1.
        -11    1    3    3    0    0  0.19144295694E+03  0.18881692628E+03  0.50646093101E+03  0.57341513064E+03  0.00000000000E+00 0. -1.
          4    1    6    6  502    0  0.11073284780E+03  0.15169135534E+03 -0.46018753238E+03  0.49703580939E+03  0.00000000000E+00 0. -1.
          1    1    5    5  503    0 -0.37053045953E+03 -0.44976098173E+03 -0.14382732399E+04  0.15518400932E+04  0.00000000000E+00 0. -1.
         -2    1    5    5    0  503 -0.84808849324E+01 -0.42767412160E+02 -0.12413106509E+03  0.13156556644E+03  0.00000000000E+00 0.  1.
         -3    1    6    6    0  502  0.28306817323E+02  0.21859622070E+02 -0.21811200500E+03  0.22102480790E+03  0.00000000000E+00 0.  1.
<mgrwt>
<rscale>  0 0.28493074E+04</rscale>
<asrwt>0</asrwt>
<pdfrwt beam="1">  1        2 0.36540924E+00 0.28493074E+04</pdfrwt>
<pdfrwt beam="2">  1       -2 0.13146568E+00 0.28493074E+04</pdfrwt>
<totfact> 0.15025602E+00</totfact>
</mgrwt>
</event>
<event>
12    1  0.1549527E-007  0.1334960E+04  0.7818608E-02  0.9002292E-01
         -2   -1    0    0    0  501 -0.00000000000E+00  0.00000000000E+00  0.28474772054E+03  0.28474772054E+03  0.00000000000E+00 0.  1.
          2   -1    0    0  501    0  0.00000000000E+00 -0.00000000000E+00 -0.15646470729E+04  0.15646470729E+04  0.00000000000E+00 0. -1.
         23    2    1    2    0    0 -0.20767067237E+03  0.16609830707E+03 -0.51684356708E+02  0.28669006623E+03  0.93830515119E+02 0.  0.
        254    2    1    2    0    0  0.20767067237E+03 -0.16609830707E+03 -0.12282149956E+04  0.15627047272E+04  0.92888009621E+03 0.  0.
        -24    2    4    4    0    0 -0.23821733213E+03 -0.20261857431E+03 -0.87081290463E+02  0.33432607217E+03  0.79931141639E+02 0.  0.
         24    2    4    4    0    0  0.44588800450E+03  0.36520267235E+02 -0.11411337052E+04  0.12283786550E+04  0.81105761698E+02 0.  0.
         13    1    3    3    0    0 -0.11533672347E+03  0.50100931601E+02  0.99238431920E+01  0.12613939033E+03  0.00000000000E+00 0.  1.
        -13    1    3    3    0    0 -0.92333948899E+02  0.11599737547E+03 -0.61608199900E+02  0.16055067590E+03  0.00000000000E+00 0. -1.
          2    1    6    6  502    0  0.19710541931E+03  0.38945393270E+02 -0.60113758465E+03  0.63382464898E+03  0.00000000000E+00 0. -1.
          3    1    5    5  503    0 -0.21227468905E+03 -0.13916891385E+03 -0.61605831327E+02  0.26119687718E+03  0.00000000000E+00 0. -1.
         -4    1    5    5    0  503 -0.25942643075E+02 -0.63449660457E+02 -0.25475459137E+02  0.73129194991E+02  0.00000000000E+00 0.  1.
         -1    1    6    6    0  502  0.24878258519E+03 -0.24251260349E+01 -0.53999612051E+03  0.59455400604E+03  0.00000000000E+00 0.  1.
<mgrwt>
<rscale>  0 0.13349602E+04</rscale>
<asrwt>0</asrwt>
<pdfrwt beam="1">  1        2 0.24071493E+00 0.13349602E+04</pdfrwt>
<pdfrwt beam="2">  1       -2 0.43807342E-01 0.13349602E+04</pdfrwt>
<totfact> 0.56382847E+01</totfact>
</mgrwt>
</event>
<event>
12    1  0.1549527E-007  0.1627316E+04  0.7818608E-02  0.8803941E-01
         -1   -1    0    0    0  501 -0.00000000000E+00  0.00000000000E+00  0.32407645323E+03  0.32407645323E+03  0.00000000000E+00 0.  1.
          1   -1    0    0  501    0  0.00000000000E+00 -0.00000000000E+00 -0.20428482821E+04  0.20428482821E+04  0.00000000000E+00 0. -1.
         23    2    1    2    0    0 -0.12594487168E+03 -0.56041616039E+03 -0.41277901298E+03  0.71299164695E+03  0.89678266829E+02 0.  0.
        254    2    1    2    0    0  0.12594487168E+03  0.56041616039E+03 -0.13059928159E+04  0.16539330884E+04  0.83662957284E+03 0.  0.
        -24    2    4    4    0    0  0.55381803263E+02 -0.20579061063E+03 -0.42489938549E+03  0.48180825028E+03  0.78630672733E+02 0.  0.
         24    2    4    4    0    0  0.70563068413E+02  0.76620677102E+03 -0.88109343041E+03  0.11721248381E+04  0.74155515033E+02 0.  0.
         13    1    3    3    0    0 -0.48939799106E+01 -0.15146031074E+03 -0.14284234108E+03  0.20825011686E+03  0.00000000000E+00 0. -1.
        -13    1    3    3    0    0 -0.12105089176E+03 -0.40895584965E+03 -0.26993667190E+03  0.50474153009E+03  0.00000000000E+00 0.  1.
          4    1    6    6  502    0  0.33055865803E+02  0.91884480582E+02 -0.11122758360E+03  0.14801021380E+03  0.00000000000E+00 0. -1.
          1    1    5    5  503    0  0.51360952783E+01 -0.30464714142E+02 -0.14120525663E+03  0.14454550419E+03  0.00000000000E+00 0. -1.
         -2    1    5    5    0  503  0.50245707984E+02 -0.17532589649E+03 -0.28369412886E+03  0.33726274609E+03  0.00000000000E+00 0.  1.
         -3    1    6    6    0  502  0.37507202609E+02  0.67432229044E+03 -0.76986584681E+03  0.10241146243E+04  0.00000000000E+00 0.  1.
<mgrwt>
<rscale>  0 0.16273156E+04</rscale>
<asrwt>0</asrwt>
<pdfrwt beam="1">  1        1 0.31428435E+00 0.16273156E+04</pdfrwt>
<pdfrwt beam="2">  1       -1 0.49857917E-01 0.16273156E+04</pdfrwt>
<totfact> 0.10772767E+01</totfact>
</mgrwt>
</event>
<event>
12    1  0.1549527E-007  0.1519804E+04  0.7818608E-02  0.8871389E-01
         -2   -1    0    0    0  501 -0.00000000000E+00  0.00000000000E+00  0.52565217108E+03  0.52565217108E+03  0.00000000000E+00 0. -1.
          2   -1    0    0  501    0  0.00000000000E+00 -0.00000000000E+00 -0.10985420983E+04  0.10985420983E+04  0.00000000000E+00 0.  1.
         23    2    1    2    0    0  0.25096200731E+03  0.18674647999E+03  0.20908212005E+03  0.38753426095E+03  0.92797055884E+02 0.  0.
        254    2    1    2    0    0 -0.25096200731E+03 -0.18674647999E+03 -0.78197204731E+03  0.12366600085E+04  0.90553382978E+03 0.  0.
        -24    2    4    4    0    0 -0.53198956892E+03  0.19646025775E+02 -0.24537837450E+03  0.59173831224E+03  0.80900035465E+02 0.  0.
         24    2    4    4    0    0  0.28102756160E+03 -0.20639250577E+03 -0.53659367281E+03  0.64492169624E+03  0.80105354083E+02 0.  0.
         13    1    3    3    0    0  0.23842359941E+03  0.14679654960E+03  0.15803784559E+03  0.32151360838E+03  0.00000000000E+00 0. -1.
        -13    1    3    3    0    0  0.12538407897E+02  0.39949930391E+02  0.51044274461E+02  0.66020652572E+02  0.00000000000E+00 0.  1.
          4    1    6    6  502    0  0.90177557698E+02 -0.23572155129E+02 -0.12918989782E+03  0.15930369772E+03  0.00000000000E+00 0. -1.
          1    1    5    5  503    0 -0.65135059501E+02  0.25934075993E+02 -0.17811049307E+02  0.72335231743E+02  0.00000000000E+00 0. -1.
         -2    1    5    5    0  503 -0.46685450941E+03 -0.62880502178E+01 -0.22756732519E+03  0.51940308050E+03  0.00000000000E+00 0.  1.
         -3    1    6    6    0  502  0.19085000391E+03 -0.18282035064E+03 -0.40740377500E+03  0.48561799851E+03  0.00000000000E+00 0.  1.
<mgrwt>
<rscale>  0 0.15198040E+04</rscale>
<asrwt>0</asrwt>
<pdfrwt beam="1">  1        2 0.16900648E+00 0.15198040E+04</pdfrwt>
<pdfrwt beam="2">  1       -2 0.80869565E-01 0.15198040E+04</pdfrwt>
<totfact> 0.28418718E+01</totfact>
</mgrwt>
</event>
<event>
12    1  0.2072441E-007  0.1293120E+04  0.7818608E-02  0.9035039E-01
         -2   -1    0    0    0  501 -0.00000000000E+00  0.00000000000E+00  0.13706804206E+03  0.13706804206E+03  0.00000000000E+00 0.  1.
          2   -1    0    0  501    0  0.00000000000E+00 -0.00000000000E+00 -0.30498711222E+04  0.30498711222E+04  0.00000000000E+00 0. -1.
         23    2    1    2    0    0 -0.22915711945E+03  0.14119216150E+03 -0.12333715233E+04  0.12657157563E+04  0.91557902754E+02 0.  0.
        254    2    1    2    0    0  0.22915711945E+03 -0.14119216150E+03 -0.16794315569E+04  0.19212234079E+04  0.89339846490E+03 0.  0.
        -24    2    4    4    0    0 -0.12545973396E+03 -0.41968155625E+03 -0.59073948654E+03  0.73980717358E+03  0.80428599484E+02 0.  0.
         24    2    4    4    0    0  0.35461685342E+03  0.27848939474E+03 -0.10886920703E+04  0.11814162344E+04  0.84761070542E+02 0.  0.
         11    1    3    3    0    0 -0.22057261616E+03  0.11977619340E+03 -0.11938761051E+04  0.12199749054E+04  0.00000000000E+00 0. -1.
        -11    1    3    3    0    0 -0.85845032964E+01  0.21415968103E+02 -0.39495418145E+02  0.45740850901E+02  0.00000000000E+00 0.  1.
          2    1    6    6  502    0  0.63011240196E+00  0.21132692463E+01  0.12790012994E+01  0.25492730082E+01  0.00000000000E+00 0. -1.
          3    1    5    5  503    0 -0.16978773806E+02 -0.10368895560E+02 -0.14064597714E+02  0.24364023969E+02  0.00000000000E+00 0. -1.
         -4    1    5    5    0  503 -0.10848096016E+03 -0.40931266069E+03 -0.57667488883E+03  0.71544314961E+03  0.00000000000E+00 0.  1.
         -1    1    6    6    0  502  0.35398674102E+03  0.27637612550E+03 -0.10899710716E+04  0.11788669613E+04  0.00000000000E+00 0.  1.
<mgrwt>
<rscale>  0 0.12931200E+04</rscale>
<asrwt>0</asrwt>
<pdfrwt beam="1">  1        2 0.46921096E+00 0.12931200E+04</pdfrwt>
<pdfrwt beam="2">  1       -2 0.21087390E-01 0.12931200E+04</pdfrwt>
<totfact> 0.31305277E+01</totfact>
</mgrwt>
</event>
<event>
12    1  0.1549527E-007  0.1256466E+04  0.7818608E-02  0.9064819E-01
         -2   -1    0    0    0  501 -0.00000000000E+00  0.00000000000E+00  0.17684661163E+03  0.17684661163E+03  0.00000000000E+00 0.  1.
          2   -1    0    0  501    0  0.00000000000E+00 -0.00000000000E+00 -0.22317449681E+04  0.22317449681E+04  0.00000000000E+00 0. -1.
         23    2    1    2    0    0 -0.52794086625E+02  0.33368963456E+02  0.52448818745E+02  0.12040959360E+03  0.88582663865E+02 0.  0.
        254    2    1    2    0    0  0.52794086625E+02 -0.33368963456E+02 -0.21073471752E+04  0.22881819861E+04  0.88936155836E+03 0.  0.
        -24    2    4    4    0    0  0.45736634972E+03 -0.32840493989E+00 -0.91355066081E+03  0.10247461667E+04  0.79660595642E+02 0.  0.
         24    2    4    4    0    0 -0.40457226309E+03 -0.33040558516E+02 -0.11937965144E+04  0.12634358195E+04  0.79684111245E+02 0.  0.
         11    1    3    3    0    0  0.21066566871E+02  0.11784100691E+02 -0.46586337159E+01  0.24583899954E+02  0.00000000000E+00 0. -1.
        -11    1    3    3    0    0 -0.73860653496E+02  0.21584862765E+02  0.57107452461E+02  0.95825693642E+02  0.00000000000E+00 0.  1.
          2    1    6    6  502    0 -0.29479827337E+03 -0.51466289021E+02 -0.93482689803E+03  0.98155801161E+03  0.00000000000E+00 0. -1.
          1    1    5    5  503    0  0.42208748150E+03  0.79020559374E+01 -0.87682061478E+03  0.97315706596E+03  0.00000000000E+00 0. -1.
         -2    1    5    5    0  503  0.35278868213E+02 -0.82304608773E+01 -0.36730046036E+02  0.51589100695E+02  0.00000000000E+00 0.  1.
         -1    1    6    6    0  502 -0.10977398972E+03  0.18425730504E+02 -0.25896961635E+03  0.28187780785E+03  0.00000000000E+00 0.  1.
<mgrwt>
<rscale>  0 0.12564657E+04</rscale>
<asrwt>0</asrwt>
<pdfrwt beam="1">  1        2 0.34334537E+00 0.12564657E+04</pdfrwt>
<pdfrwt beam="2">  1       -2 0.27207172E-01 0.12564657E+04</pdfrwt>
<totfact> 0.60037857E+01</totfact>
</mgrwt>
</event>
<event>
12    1  0.1549527E-007  0.1732341E+04  0.7818608E-02  0.8743131E-01
         -3   -1    0    0    0  501 -0.00000000000E+00  0.00000000000E+00  0.19481802479E+04  0.19481802479E+04  0.00000000000E+00 0.  1.
          3   -1    0    0  501    0  0.00000000000E+00 -0.00000000000E+00 -0.38510350521E+03  0.38510350521E+03  0.00000000000E+00 0. -1.
         23    2    1    2    0    0  0.50689553117E+03  0.26201583203E+02  0.78991453028E+02  0.52138350998E+03  0.89283326235E+02 0.  0.
        254    2    1    2    0    0 -0.50689553117E+03 -0.26201583203E+02  0.14840852897E+04  0.18119002432E+04  0.90710734845E+03 0.  0.
        -24    2    4    4    0    0 -0.73842919981E+03 -0.10184064101E+03  0.12845768618E+04  0.14873511740E+04  0.80166087807E+02 0.  0.
         24    2    4    4    0    0  0.23153366863E+03  0.75639057804E+02  0.19950842783E+03  0.32454906912E+03  0.78736133454E+02 0.  0.
         11    1    3    3    0    0  0.22423316042E+03 -0.24327245785E+02  0.61126333328E+02  0.23368515945E+03  0.00000000000E+00 0. -1.
        -11    1    3    3    0    0  0.28266237075E+03  0.50528828988E+02  0.17865119700E+02  0.28769835053E+03  0.00000000000E+00 0.  1.
          2    1    6    6  502    0  0.45022941795E+02  0.43252469583E+02  0.76714769426E+02  0.98909035285E+02  0.00000000000E+00 0. -1.
          1    1    5    5  503    0 -0.15374666338E+03 -0.40779141047E+02  0.32889837724E+03  0.36534246591E+03  0.00000000000E+00 0. -1.
         -4    1    5    5    0  503 -0.58468253642E+03 -0.61061499959E+02  0.95567848460E+03  0.11220087081E+04  0.00000000000E+00 0.  1.
         -1    1    6    6    0  502  0.18651072684E+03  0.32386588221E+02  0.12279365841E+03  0.22564003383E+03  0.00000000000E+00 0.  1.
<mgrwt>
<rscale>  0 0.17323407E+04</rscale>
<asrwt>0</asrwt>
<pdfrwt beam="1">  1        3 0.59246694E-01 0.17323407E+04</pdfrwt>
<pdfrwt beam="2">  1       -3 0.29972003E+00 0.17323407E+04</pdfrwt>
<totfact> 0.26485028E-01</totfact>
</mgrwt>
</event>
<event>
12    1  0.1549527E-007  0.1585802E+04  0.7818608E-02  0.8829318E-01
         -1   -1    0    0    0  501 -0.00000000000E+00  0.00000000000E+00  0.11040864033E+04  0.11040864033E+04  0.00000000000E+00 0.  1.
          1   -1    0    0  501    0  0.00000000000E+00 -0.00000000000E+00 -0.56942317167E+03  0.56942317167E+03  0.00000000000E+00 0. -1.
         23    2    1    2    0    0 -0.17747191936E+03  0.13134552932E+03  0.69255422483E+03  0.73214777766E+03  0.87527617114E+02 0.  0.
        254    2    1    2    0    0  0.17747191936E+03 -0.13134552932E+03 -0.15789099319E+03  0.94136179733E+03  0.90137924177E+03 0.  0.
        -24    2    4    4    0    0  0.28134314676E+03 -0.24743592606E+03  0.27678285404E+03  0.47271458758E+03  0.80447680416E+02 0.  0.
         24    2    4    4    0    0 -0.10387122739E+03  0.11609039674E+03 -0.43467384723E+03  0.46864720975E+03  0.80141385317E+02 0.  0.
         11    1    3    3    0    0 -0.42831852979E+02  0.27399707560E+02  0.68383006513E+02  0.85214712250E+02  0.00000000000E+00 0. -1.
        -11    1    3    3    0    0 -0.13464006638E+03  0.10394582176E+03  0.62417121832E+03  0.64693306541E+03  0.00000000000E+00 0.  1.
          2    1    6    6  502    0  0.11410387066E+02  0.13248944874E+02 -0.78311347688E+02  0.80239632664E+02  0.00000000000E+00 0. -1.
          1    1    5    5  503    0  0.26804231025E+02 -0.40554108940E+02  0.69095412241E+02  0.84482415600E+02  0.00000000000E+00 0. -1.
         -2    1    5    5    0  503  0.25453891573E+03 -0.20688181712E+03  0.20768744180E+03  0.38823217198E+03  0.00000000000E+00 0.  1.
         -1    1    6    6    0  502 -0.11528161446E+03  0.10284145187E+03 -0.35636249954E+03  0.38840757708E+03  0.00000000000E+00 0.  1.
<mgrwt>
<rscale>  0 0.15858025E+04</rscale>
<asrwt>0</asrwt>
<pdfrwt beam="1">  1        1 0.87603565E-01 0.15858025E+04</pdfrwt>
<pdfrwt beam="2">  1       -1 0.16985945E+00 0.15858025E+04</pdfrwt>
<totfact> 0.87481180E+00</totfact>
</mgrwt>
</event>
<event>
12    1  0.1549527E-007  0.1486630E+04  0.7818608E-02  0.8893393E-01
          2   -1    0    0  501    0  0.00000000000E+00  0.00000000000E+00  0.26000977355E+04  0.26000977355E+04  0.00000000000E+00 0. -1.
         -2   -1    0    0    0  501 -0.00000000000E+00 -0.00000000000E+00 -0.21249868859E+03  0.21249868859E+03  0.00000000000E+00 0.  1.
         23    2    1    2    0    0 -0.37039996365E+03 -0.32369392309E+03  0.71739541240E+03  0.87486228590E+03  0.93562560008E+02 0.  0.
        254    2    1    2    0    0  0.37039996365E+03  0.32369392309E+03  0.16702036346E+04  0.19377341382E+04  0.85044665952E+03 0.  0.
        -24    2    4    4    0    0  0.46227282689E+03  0.47053312598E+03  0.76559205118E+03  0.10133001448E+04  0.74487620334E+02 0.  0.
         24    2    4    4    0    0 -0.91872863243E+02 -0.14683920290E+03  0.90461158338E+03  0.92443399340E+03  0.79080445440E+02 0.  0.
         11    1    3    3    0    0 -0.25587631891E+03 -0.18552625943E+03  0.51607709009E+03  0.60516794895E+03  0.00000000000E+00 0. -1.
        -11    1    3    3    0    0 -0.11452364474E+03 -0.13816766365E+03  0.20131832231E+03  0.26969433694E+03  0.00000000000E+00 0.  1.
          4    1    6    6  502    0  0.82192160598E+01  0.16996879492E+01  0.17348516261E+02  0.19272142284E+02  0.00000000000E+00 0. -1.
          3    1    5    5  503    0  0.58437126231E+02  0.83726888563E+02  0.88280862237E+02  0.13497629506E+03  0.00000000000E+00 0. -1.
         -4    1    5    5    0  503  0.40383570066E+03  0.38680623742E+03  0.67731118894E+03  0.87832384979E+03  0.00000000000E+00 0.  1.
         -3    1    6    6    0  502 -0.10009207930E+03 -0.14853889084E+03  0.88726306712E+03  0.90516185111E+03  0.00000000000E+00 0.  1.
<mgrwt>
<rscale>  0 0.14866302E+04</rscale>
<asrwt>0</asrwt>
<pdfrwt beam="1">  1        2 0.40001501E+00 0.14866302E+04</pdfrwt>
<pdfrwt beam="2">  1       -2 0.32692108E-01 0.14866302E+04</pdfrwt>
<totfact> 0.25767484E+01</totfact>
</mgrwt>
</event>
<event>
12    1  0.1549527E-007  0.1312831E+04  0.7818608E-02  0.9019452E-01
          2   -1    0    0  501    0  0.00000000000E+00  0.00000000000E+00  0.87042750816E+03  0.87042750816E+03  0.00000000000E+00 0. -1.
         -2   -1    0    0    0  501 -0.00000000000E+00 -0.00000000000E+00 -0.49502234487E+03  0.49502234487E+03  0.00000000000E+00 0.  1.
         23    2    1    2    0    0 -0.12484325157E+03  0.10956808845E+03 -0.20287797963E+03  0.27758183916E+03  0.91110917804E+02 0.  0.
        254    2    1    2    0    0  0.12484325157E+03 -0.10956808845E+03  0.57828314292E+03  0.10878680139E+04  0.90634122644E+03 0.  0.
        -24    2    4    4    0    0  0.56586919364E+02  0.31375408657E+03 -0.40150443849E+02  0.33060607190E+03  0.77747092267E+02 0.  0.
         24    2    4    4    0    0  0.68256332208E+02 -0.42332217502E+03  0.61843358677E+03  0.75726194196E+03  0.84409458939E+02 0.  0.
         11    1    3    3    0    0 -0.68265934785E+01 -0.19860388007E+01  0.84634219596E+01  0.11053336144E+02  0.00000000000E+00 0. -1.
        -11    1    3    3    0    0 -0.11801665809E+03  0.11155412725E+03 -0.21134140159E+03  0.26652850302E+03  0.00000000000E+00 0.  1.
          2    1    6    6  502    0  0.13829057916E+02 -0.24945191561E+03  0.41292166600E+03  0.48261972949E+03  0.00000000000E+00 0. -1.
          3    1    5    5  503    0  0.12277255151E+02  0.91526551646E+02 -0.47578594199E+02  0.10388244932E+03  0.00000000000E+00 0. -1.
         -4    1    5    5    0  503  0.44309664213E+02  0.22222753492E+03  0.74281503502E+01  0.22672362258E+03  0.00000000000E+00 0.  1.
         -1    1    6    6    0  502  0.54427274292E+02 -0.17387025941E+03  0.20551192076E+03  0.27464221247E+03  0.00000000000E+00 0.  1.
<mgrwt>
<rscale>  0 0.13128306E+04</rscale>
<asrwt>0</asrwt>
<pdfrwt beam="1">  1        2 0.13391192E+00 0.13128306E+04</pdfrwt>
<pdfrwt beam="2">  1       -2 0.76157284E-01 0.13128306E+04</pdfrwt>
<totfact> 0.46446716E+01</totfact>
</mgrwt>
</event>
<event>
12    1  0.1549527E-007  0.2231907E+04  0.7818608E-02  0.8505264E-01
          1   -1    0    0  501    0  0.00000000000E+00  0.00000000000E+00  0.13629728416E+04  0.13629728416E+04  0.00000000000E+00 0. -1.
         -1   -1    0    0    0  501 -0.00000000000E+00 -0.00000000000E+00 -0.91370315360E+03  0.91370315360E+03  0.00000000000E+00 0.  1.
         23    2    1    2    0    0  0.45063783413E+03 -0.45871323118E+03  0.87860784346E+03  0.10925521189E+04  0.90697872072E+02 0.  0.
        254    2    1    2    0    0 -0.45063783413E+03  0.45871323118E+03 -0.42933815542E+03  0.11841238763E+04  0.89684213590E+03 0.  0.
        -24    2    4    4    0    0  0.17282522962E+03  0.38399899052E+03 -0.33495469666E+03  0.54413499525E+03  0.81021352311E+02 0.  0.
         24    2    4    4    0    0 -0.62346306375E+03  0.74714240663E+02 -0.94383458758E+02  0.63998888106E+03  0.79931977113E+02 0.  0.
         13    1    3    3    0    0  0.12524542353E+03 -0.12443565999E+03  0.31325074623E+03  0.35957847490E+03  0.00000000000E+00 0. -1.
        -13    1    3    3    0    0  0.32539241060E+03 -0.33427757119E+03  0.56535709722E+03  0.73297364404E+03  0.00000000000E+00 0.  1.
          2    1    6    6  502    0 -0.10911348124E+03  0.23331519517E+02  0.12071130903E+02  0.11223111775E+03  0.00000000000E+00 0. -1.
          1    1    5    5  503    0  0.47401904624E+02  0.76546209138E+02 -0.11409297391E+03  0.14533915299E+03  0.00000000000E+00 0. -1.
         -2    1    5    5    0  503  0.12542332500E+03  0.30745278138E+03 -0.22086172275E+03  0.39879584226E+03  0.00000000000E+00 0.  1.
         -1    1    6    6    0  502 -0.51434958251E+03  0.51382721146E+02 -0.10645458966E+03  0.52775776330E+03  0.00000000000E+00 0.  1.
<mgrwt>
<rscale>  0 0.22319073E+04</rscale>
<asrwt>0</asrwt>
<pdfrwt beam="1">  1        1 0.20968813E+00 0.22319073E+04</pdfrwt>
<pdfrwt beam="2">  1       -1 0.14056972E+00 0.22319073E+04</pdfrwt>
<totfact> 0.30766579E+00</totfact>
</mgrwt>
</event>
<event>
12    1  0.1549527E-007  0.1159493E+04  0.7818608E-02  0.9149071E-01
          2   -1    0    0  501    0  0.00000000000E+00  0.00000000000E+00  0.24440961704E+03  0.24440961704E+03  0.00000000000E+00 0.  1.
         -2   -1    0    0    0  501 -0.00000000000E+00 -0.00000000000E+00 -0.13751739575E+04  0.13751739575E+04  0.00000000000E+00 0. -1.
         23    2    1    2    0    0  0.98769960088E+02 -0.12698475090E+03 -0.22367524385E+02  0.18656777291E+03  0.91796491024E+02 0.  0.
        254    2    1    2    0    0 -0.98769960088E+02  0.12698475090E+03 -0.11083968161E+04  0.14330158017E+04  0.89392961349E+03 0.  0.
        -24    2    4    4    0    0  0.11811928359E+03  0.47158457455E+03 -0.63409926587E+03  0.80312172251E+03  0.81107620304E+02 0.  0.
         24    2    4    4    0    0 -0.21688924368E+03 -0.34459982364E+03 -0.47429755024E+03  0.62989407916E+03  0.77578362428E+02 0.  0.
         11    1    3    3    0    0  0.84279540816E+02 -0.13685023680E+03 -0.35585730118E+02  0.16461279568E+03  0.00000000000E+00 0.  1.
        -11    1    3    3    0    0  0.14490419272E+02  0.98654858962E+01  0.13218205732E+02  0.21954977236E+02  0.00000000000E+00 0. -1.
          2    1    6    6  502    0 -0.11582874988E+03 -0.24340970185E+03 -0.28037496891E+03  0.38894049088E+03  0.00000000000E+00 0. -1.
          3    1    5    5  503    0  0.25868681595E+02  0.25463642788E+03 -0.35773254120E+03  0.43986528634E+03  0.00000000000E+00 0. -1.
         -4    1    5    5    0  503  0.92250601992E+02  0.21694814667E+03 -0.27636672467E+03  0.36325643617E+03  0.00000000000E+00 0.  1.
         -1    1    6    6    0  502 -0.10106049380E+03 -0.10119012179E+03 -0.19392258134E+03  0.24095358829E+03  0.00000000000E+00 0.  1.
<mgrwt>
<rscale>  0 0.11594925E+04</rscale>
<asrwt>0</asrwt>
<pdfrwt beam="1">  1        2 0.37601479E-01 0.11594925E+04</pdfrwt>
<pdfrwt beam="2">  1       -2 0.21156523E+00 0.11594925E+04</pdfrwt>
<totfact> 0.15283057E+01</totfact>
</mgrwt>
</event>
<event>
12    1  0.1549527E-007  0.1298469E+04  0.7818608E-02  0.9030780E-01
         -2   -1    0    0    0  501 -0.00000000000E+00  0.00000000000E+00  0.67156473442E+03  0.67156473442E+03  0.00000000000E+00 0.  1.
          2   -1    0    0  501    0  0.00000000000E+00 -0.00000000000E+00 -0.62764678727E+03  0.62764678727E+03  0.00000000000E+00 0. -1.
         23    2    1    2    0    0 -0.21213093268E+03 -0.15827706193E+03  0.20880084958E+03  0.34942454405E+03  0.91916028366E+02 0.  0.
        254    2    1    2    0    0  0.21213093268E+03  0.15827706193E+03 -0.16488290243E+03  0.94978697765E+03  0.89713865732E+03 0.  0.
        -24    2    4    4    0    0  0.29451933540E+02  0.35612762126E+03 -0.42916582682E+03  0.56406299948E+03  0.79306124983E+02 0.  0.
         24    2    4    4    0    0  0.18267899914E+03 -0.19785055934E+03  0.26428292439E+03  0.38572397816E+03  0.80131533416E+02 0.  0.
         11    1    3    3    0    0 -0.19525319289E+02 -0.60877919798E+02  0.55854913512E+02  0.84894820665E+02  0.00000000000E+00 0. -1.
        -11    1    3    3    0    0 -0.19260561339E+03 -0.97399142128E+02  0.15294593607E+03  0.26452972339E+03  0.00000000000E+00 0.  1.
          2    1    6    6  502    0  0.18529453537E+03 -0.19019109594E+03  0.26759403611E+03  0.37697915855E+03  0.00000000000E+00 0. -1.
          3    1    5    5  503    0  0.45509002775E+02  0.32718445043E+03 -0.40719279658E+03  0.52433453780E+03  0.00000000000E+00 0. -1.
         -4    1    5    5    0  503 -0.16057069234E+02  0.28943170833E+02 -0.21973030240E+02  0.39728461690E+02  0.00000000000E+00 0.  1.
         -1    1    6    6    0  502 -0.26155362356E+01 -0.76594633933E+01 -0.33111117205E+01  0.87448196150E+01  0.00000000000E+00 0.  1.
<mgrwt>
<rscale>  0 0.12984690E+04</rscale>
<asrwt>0</asrwt>
<pdfrwt beam="1">  1        2 0.96561045E-01 0.12984690E+04</pdfrwt>
<pdfrwt beam="2">  1       -2 0.10331765E+00 0.12984690E+04</pdfrwt>
<totfact> 0.35170780E+01</totfact>
</mgrwt>
</event>
<event>
12    1  0.2081113E-007  0.2697327E+04  0.7818608E-02  0.8335873E-01
         -1   -1    0    0    0  501 -0.00000000000E+00  0.00000000000E+00  0.10146669231E+04  0.10146669231E+04  0.00000000000E+00 0. -1.
          1   -1    0    0  501    0  0.00000000000E+00 -0.00000000000E+00 -0.17926016083E+04  0.17926016083E+04  0.00000000000E+00 0.  1.
         23    2    1    2    0    0 -0.23705707370E+02 -0.17103969715E+03 -0.15252943671E+04  0.15377066065E+04  0.90565791708E+02 0.  0.
        254    2    1    2    0    0  0.23705707370E+02  0.17103969715E+03  0.74735968189E+03  0.12695619249E+04  0.10116444279E+04 0.  0.
        -24    2    4    4    0    0  0.22503032373E+03 -0.19072962044E+03  0.78891114212E+03  0.84599371498E+03  0.79423805671E+02 0.  0.
         24    2    4    4    0    0 -0.20132461636E+03  0.36176931759E+03 -0.41551460236E+02  0.42356820991E+03  0.79214041061E+02 0.  0.
         11    1    3    3    0    0 -0.15361127977E+02 -0.11167363168E+03 -0.12892366936E+04  0.12941554066E+04  0.00000000000E+00 0. -1.
        -11    1    3    3    0    0 -0.83445793935E+01 -0.59366065474E+02 -0.23605767353E+03  0.24355119989E+03  0.00000000000E+00 0.  1.
          4    1    6    6  502    0 -0.11700317255E+03  0.26902732578E+03 -0.66048473992E+01  0.29344346715E+03  0.00000000000E+00 0. -1.
          3    1    5    5  503    0  0.22586706008E+03 -0.19566110561E+03  0.78383959363E+03  0.83887049395E+03  0.00000000000E+00 0. -1.
         -4    1    5    5    0  503 -0.83673634895E+00  0.49314851707E+01  0.50715484896E+01  0.71232210263E+01  0.00000000000E+00 0.  1.
         -3    1    6    6    0  502 -0.84321443813E+02  0.92741991806E+02 -0.34946612837E+02  0.13012474276E+03  0.00000000000E+00 0.  1.
<mgrwt>
<rscale>  0 0.26973272E+04</rscale>
<asrwt>0</asrwt>
<pdfrwt beam="1">  1        1 0.27578486E+00 0.26973272E+04</pdfrwt>
<pdfrwt beam="2">  1       -1 0.15610260E+00 0.26973272E+04</pdfrwt>
<totfact> 0.11264748E+00</totfact>
</mgrwt>
</event>
<event>
12    1  0.1549527E-007  0.2432463E+04  0.7818608E-02  0.8427449E-01
         -3   -1    0    0    0  501 -0.00000000000E+00  0.00000000000E+00  0.12315189469E+04  0.12315189469E+04  0.00000000000E+00 0.  1.
          3   -1    0    0  501    0  0.00000000000E+00 -0.00000000000E+00 -0.12011334999E+04  0.12011334999E+04  0.00000000000E+00 0. -1.
         23    2    1    2    0    0  0.22761068755E+03 -0.66440275506E+03  0.79338886372E+03  0.10634852252E+04  0.91089456782E+02 0.  0.
        254    2    1    2    0    0 -0.22761068755E+03  0.66440275506E+03 -0.76300341669E+03  0.13691672216E+04  0.89398379229E+03 0.  0.
        -24    2    4    4    0    0 -0.30985283072E+03  0.48652012082E+03 -0.93206200121E+03  0.10990481666E+04  0.80353554658E+02 0.  0.
         24    2    4    4    0    0  0.82242143163E+02  0.17788263424E+03  0.16905858452E+03  0.27011905503E+03  0.77314275616E+02 0.  0.
         13    1    3    3    0    0  0.16807580147E+03 -0.49485463540E+03  0.64699452079E+03  0.83170457204E+03  0.00000000000E+00 0.  1.
        -13    1    3    3    0    0  0.59534886083E+02 -0.16954811966E+03  0.14639434293E+03  0.23178065317E+03  0.00000000000E+00 0. -1.
          2    1    6    6  502    0  0.37506099538E+02  0.10671576551E+03  0.48326073707E+02  0.12300557512E+03  0.00000000000E+00 0. -1.
          1    1    5    5  503    0 -0.10935684212E+03  0.11680500376E+03 -0.29669209400E+03  0.33708830663E+03  0.00000000000E+00 0. -1.
         -2    1    5    5    0  503 -0.20049598860E+03  0.36971511707E+03 -0.63536990721E+03  0.76195985998E+03  0.00000000000E+00 0.  1.
         -1    1    6    6    0  502  0.44736043625E+02  0.71166868732E+02  0.12073251081E+03  0.14711347991E+03  0.00000000000E+00 0.  1.
<mgrwt>
<rscale>  0 0.24324627E+04</rscale>
<asrwt>0</asrwt>
<pdfrwt beam="1">  1        3 0.18478977E+00 0.24324627E+04</pdfrwt>
<pdfrwt beam="2">  1       -3 0.18946445E+00 0.24324627E+04</pdfrwt>
<totfact> 0.73805195E-02</totfact>
</mgrwt>
</event>
<event>
12    1  0.1549527E-007  0.1242033E+04  0.7818608E-02  0.9076840E-01
         -2   -1    0    0    0  501 -0.00000000000E+00  0.00000000000E+00  0.81618483980E+02  0.81618483980E+02  0.00000000000E+00 0. -1.
          2   -1    0    0  501    0  0.00000000000E+00 -0.00000000000E+00 -0.47251721495E+04  0.47251721495E+04  0.00000000000E+00 0.  1.
         23    2    1    2    0    0 -0.20158197594E+03 -0.12986465522E+03 -0.49182683048E+03  0.55456240672E+03  0.90253587528E+02 0.  0.
        254    2    1    2    0    0  0.20158197594E+03  0.12986465522E+03 -0.41517268350E+04  0.42522282267E+04  0.88719166926E+03 0.  0.
        -24    2    4    4    0    0  0.11960564293E+03  0.17281149056E+02 -0.40686974487E+04  0.40712603505E+04  0.79106035869E+02 0.  0.
         24    2    4    4    0    0  0.81976333006E+02  0.11258350617E+03 -0.83029386344E+02  0.18096787623E+03  0.80376166837E+02 0.  0.
         13    1    3    3    0    0 -0.80311467100E+01 -0.26826693098E+02 -0.11706354923E+03  0.12036629652E+03  0.00000000000E+00 0.  1.
        -13    1    3    3    0    0 -0.19355082923E+03 -0.10303796213E+03 -0.37476328126E+03  0.43419611020E+03  0.00000000000E+00 0. -1.
          4    1    6    6  502    0  0.18489187200E+01  0.14242382999E+00 -0.34601106006E+02  0.34650762211E+02  0.00000000000E+00 0. -1.
          3    1    5    5  503    0  0.76851344871E+02  0.39081157854E+02 -0.18090806727E+04  0.18111339946E+04  0.00000000000E+00 0. -1.
         -4    1    5    5    0  503  0.42754298059E+02 -0.21800008799E+02 -0.22596167760E+04  0.22601263559E+04  0.00000000000E+00 0.  1.
         -3    1    6    6    0  502  0.80127414286E+02  0.11244108234E+03 -0.48428280339E+02  0.14631711402E+03  0.00000000000E+00 0.  1.
<mgrwt>
<rscale>  0 0.12420328E+04</rscale>
<asrwt>0</asrwt>
<pdfrwt beam="1">  1        2 0.72694975E+00 0.12420328E+04</pdfrwt>
<pdfrwt beam="2">  1       -2 0.12556687E-01 0.12420328E+04</pdfrwt>
<totfact> 0.35733288E+00</totfact>
</mgrwt>
</event>
<event>
12    1  0.1549527E-007  0.1492052E+04  0.7818608E-02  0.8889755E-01
          2   -1    0    0  501    0  0.00000000000E+00  0.00000000000E+00  0.25456375896E+04  0.25456375896E+04  0.00000000000E+00 0. -1.
         -2   -1    0    0    0  501 -0.00000000000E+00 -0.00000000000E+00 -0.21863091322E+03  0.21863091322E+03  0.00000000000E+00 0.  1.
         23    2    1    2    0    0  0.22724692083E+03  0.89839020560E+02  0.14726838991E+04  0.14953948370E+04  0.87724792879E+02 0.  0.
        254    2    1    2    0    0 -0.22724692083E+03 -0.89839020560E+02  0.85432277731E+03  0.12688736658E+04  0.90579288989E+03 0.  0.
        -24    2    4    4    0    0 -0.32943768517E+03 -0.42863943673E+03  0.65751353867E+03  0.85596747570E+03  0.89973945088E+02 0.  0.
         24    2    4    4    0    0  0.10219076434E+03  0.33880041617E+03  0.19680923865E+03  0.41290619014E+03  0.80802048990E+02 0.  0.
         11    1    3    3    0    0  0.11471476136E+03  0.91911097648E+02  0.81499052525E+03  0.82814049689E+03  0.00000000000E+00 0. -1.
        -11    1    3    3    0    0  0.11253215947E+03 -0.20720770875E+01  0.65769337381E+03  0.66725434010E+03  0.00000000000E+00 0.  1.
          2    1    6    6  502    0  0.87335770344E+02  0.21029453252E+03  0.16035899000E+03  0.27850733000E+03  0.00000000000E+00 0. -1.
          3    1    5    5  503    0 -0.99433444544E+02 -0.68720451657E+02  0.14953366786E+03  0.19227539675E+03  0.00000000000E+00 0. -1.
         -4    1    5    5    0  503 -0.23000424063E+03 -0.35991898507E+03  0.50797987081E+03  0.66369207896E+03  0.00000000000E+00 0.  1.
         -1    1    6    6    0  502  0.14854994001E+02  0.12850588365E+03  0.36450248644E+02  0.13439886013E+03  0.00000000000E+00 0.  1.
<mgrwt>
<rscale>  0 0.14920524E+04</rscale>
<asrwt>0</asrwt>
<pdfrwt beam="1">  1        2 0.39163653E+00 0.14920524E+04</pdfrwt>
<pdfrwt beam="2">  1       -2 0.33635527E-01 0.14920524E+04</pdfrwt>
<totfact> 0.26249661E+01</totfact>
</mgrwt>
</event>
<event>
12    1  0.1549527E-007  0.1282014E+04  0.7818608E-02  0.9043951E-01
          1   -1    0    0  501    0  0.00000000000E+00  0.00000000000E+00  0.12205730219E+04  0.12205730219E+04  0.00000000000E+00 0. -1.
         -1   -1    0    0    0  501 -0.00000000000E+00 -0.00000000000E+00 -0.33663715431E+03  0.33663715431E+03  0.00000000000E+00 0.  1.
         23    2    1    2    0    0  0.44735717737E+02 -0.29491218517E+03  0.36701107751E+03  0.48059557730E+03  0.85442942977E+02 0.  0.
        254    2    1    2    0    0 -0.44735717737E+02  0.29491218517E+03  0.51692479009E+03  0.10766145989E+04  0.89605428107E+03 0.  0.
        -24    2    4    4    0    0 -0.25939014308E+03  0.42957490076E+03  0.61098884005E+03  0.79477427159E+03  0.80876068313E+02 0.  0.
         24    2    4    4    0    0  0.21465442535E+03 -0.13466271560E+03 -0.94064049958E+02  0.28184032734E+03  0.79845822228E+02 0.  0.
         11    1    3    3    0    0  0.13703538853E+02 -0.48916720987E+02  0.12137550483E+03  0.13157752750E+03  0.00000000000E+00 0.  1.
        -11    1    3    3    0    0  0.31032178884E+02 -0.24599546418E+03  0.24563557268E+03  0.34901804980E+03  0.00000000000E+00 0. -1.
          4    1    6    6  502    0  0.12276826508E+03 -0.10926478604E+03 -0.87728251934E+02  0.18629838047E+03  0.00000000000E+00 0. -1.
          1    1    5    5  503    0 -0.16918074458E+03  0.34470452746E+03  0.47604346148E+03  0.61160503007E+03  0.00000000000E+00 0. -1.
         -2    1    5    5    0  503 -0.90209398505E+02  0.84870373305E+02  0.13494537857E+03  0.18316924153E+03  0.00000000000E+00 0.  1.
         -3    1    6    6    0  502  0.91886160267E+02 -0.25397929554E+02 -0.63357980231E+01  0.95541946865E+02  0.00000000000E+00 0.  1.
<mgrwt>
<rscale>  0 0.12820144E+04</rscale>
<asrwt>0</asrwt>
<pdfrwt beam="1">  1        1 0.18778046E+00 0.12820144E+04</pdfrwt>
<pdfrwt beam="2">  1       -1 0.51790332E-01 0.12820144E+04</pdfrwt>
<totfact> 0.38101491E+01</totfact>
</mgrwt>
</event>
<event>
12    1  0.1549527E-007  0.1330615E+04  0.7818608E-02  0.9005633E-01
         -2   -1    0    0    0  501 -0.00000000000E+00  0.00000000000E+00  0.78048161999E+03  0.78048161999E+03  0.00000000000E+00 0.  1.
          2   -1    0    0  501    0  0.00000000000E+00 -0.00000000000E+00 -0.56712964692E+03  0.56712964692E+03  0.00000000000E+00 0. -1.
         23    2    1    2    0    0  0.75979509752E+02  0.70435091725E+02 -0.27984311263E+03  0.31636490908E+03  0.10507425926E+03 0.  0.
        254    2    1    2    0    0 -0.75979509752E+02 -0.70435091725E+02  0.49319508571E+03  0.10312463578E+04  0.89971866154E+03 0.  0.
        -24    2    4    4    0    0 -0.47748836997E+03  0.22602763318E+02  0.25638764583E+03  0.54839906633E+03  0.80628051288E+02 0.  0.
         24    2    4    4    0    0  0.40150886021E+03 -0.93037855044E+02  0.23680743988E+03  0.48284729150E+03  0.84843008122E+02 0.  0.
         13    1    3    3    0    0  0.40844615461E+02 -0.22547635151E+02 -0.69353874383E+02  0.83586113410E+02  0.00000000000E+00 0. -1.
        -13    1    3    3    0    0  0.35134894291E+02  0.92982726876E+02 -0.21048923825E+03  0.23277879567E+03  0.00000000000E+00 0.  1.
          4    1    6    6  502    0  0.30095792950E+03 -0.10625821334E+03  0.18613675030E+03  0.36947716173E+03  0.00000000000E+00 0. -1.
          1    1    5    5  503    0 -0.33770060872E+03  0.15943609459E+02  0.22147977311E+03  0.40416480513E+03  0.00000000000E+00 0. -1.
         -2    1    5    5    0  503 -0.13978776125E+03  0.66591538589E+01  0.34907872717E+02  0.14423426120E+03  0.00000000000E+00 0.  1.
         -3    1    6    6    0  502  0.10055093072E+03  0.13220358297E+02  0.50670689581E+02  0.11337012977E+03  0.00000000000E+00 0.  1.
<mgrwt>
<rscale>  0 0.13306153E+04</rscale>
<asrwt>0</asrwt>
<pdfrwt beam="1">  1        2 0.87250714E-01 0.13306153E+04</pdfrwt>
<pdfrwt beam="2">  1       -2 0.12007410E+00 0.13306153E+04</pdfrwt>
<totfact> 0.27517667E+01</totfact>
</mgrwt>
</event>
<event>
12    1  0.1549527E-007  0.3051119E+04  0.7818608E-02  0.8229282E-01
          1   -1    0    0  501    0  0.00000000000E+00  0.00000000000E+00  0.12943974392E+04  0.12943974392E+04  0.00000000000E+00 0. -1.
         -1   -1    0    0    0  501 -0.00000000000E+00 -0.00000000000E+00 -0.17980042775E+04  0.17980042775E+04  0.00000000000E+00 0.  1.
         23    2    1    2    0    0 -0.12037882513E+04  0.32889626331E+02 -0.92730502310E+03  0.15225432636E+04  0.89752450583E+02 0.  0.
        254    2    1    2    0    0  0.12037882513E+04 -0.32889626331E+02  0.42369818484E+03  0.15698584531E+04  0.91364518804E+03 0.  0.
        -24    2    4    4    0    0  0.54588281365E+01  0.24396297560E+03 -0.22219408714E+02  0.25920815926E+03  0.84542506673E+02 0.  0.
         24    2    4    4    0    0  0.11983294231E+04 -0.27685260194E+03  0.44591759356E+03  0.13106502939E+04  0.79504232867E+02 0.  0.
         13    1    3    3    0    0 -0.42218334754E+03 -0.30664815888E+02 -0.33432675502E+03  0.53940104653E+03  0.00000000000E+00 0. -1.
        -13    1    3    3    0    0 -0.78160490372E+03  0.63554442218E+02 -0.59297826808E+03  0.98314221710E+03  0.00000000000E+00 0.  1.
          2    1    6    6  502    0  0.34888324751E+03 -0.10417700486E+03  0.16200561363E+03  0.39851999646E+03  0.00000000000E+00 0. -1.
          3    1    5    5  503    0 -0.31703777548E+02  0.44948654211E+02 -0.13129122011E+02  0.56549844129E+02  0.00000000000E+00 0. -1.
         -4    1    5    5    0  503  0.37162605684E+02  0.19901432139E+03 -0.90902867033E+01  0.20265831513E+03  0.00000000000E+00 0.  1.
         -1    1    6    6    0  502  0.84944617561E+03 -0.17267559707E+03  0.28391197992E+03  0.91213029739E+03  0.00000000000E+00 0.  1.
<mgrwt>
<rscale>  0 0.30511192E+04</rscale>
<asrwt>0</asrwt>
<pdfrwt beam="1">  1        1 0.19913807E+00 0.30511192E+04</pdfrwt>
<pdfrwt beam="2">  1       -1 0.27661604E+00 0.30511192E+04</pdfrwt>
<totfact> 0.36209638E-01</totfact>
</mgrwt>
</event>
<event>
12    1  0.1549527E-007  0.1852731E+04  0.7818608E-02  0.8678749E-01
          1   -1    0    0  501    0  0.00000000000E+00  0.00000000000E+00  0.15761631782E+04  0.15761631782E+04  0.00000000000E+00 0. -1.
         -1   -1    0    0    0  501 -0.00000000000E+00 -0.00000000000E+00 -0.54445715948E+03  0.54445715948E+03  0.00000000000E+00 0.  1.
         23    2    1    2    0    0 -0.60694139549E+03 -0.20006573950E+02  0.78120826616E+03  0.99371138389E+03  0.91639722784E+02 0.  0.
        254    2    1    2    0    0  0.60694139549E+03  0.20006573950E+02  0.25049775254E+03  0.11269089538E+04  0.91563996501E+03 0.  0.
        -24    2    4    4    0    0  0.22368233032E+03 -0.86159608640E+02  0.56169530208E+03  0.61587217641E+03  0.79621995960E+02 0.  0.
         24    2    4    4    0    0  0.38325906517E+03  0.10616618259E+03 -0.31119754954E+03  0.51103677737E+03  0.78459566819E+02 0.  0.
         13    1    3    3    0    0 -0.48953380215E+02 -0.15931136713E+02  0.10545408300E+03  0.11734904419E+03  0.00000000000E+00 0. -1.
        -13    1    3    3    0    0 -0.55798801527E+03 -0.40754372370E+01  0.67575418316E+03  0.87636233969E+03  0.00000000000E+00 0.  1.
          2    1    6    6  502    0  0.19478234636E+03  0.33090792273E+02 -0.19632965849E+03  0.27853275892E+03  0.00000000000E+00 0. -1.
          3    1    5    5  503    0  0.19667118235E+03 -0.45334099591E+02  0.42041087884E+03  0.46634755451E+03  0.00000000000E+00 0. -1.
         -4    1    5    5    0  503  0.27011147969E+02 -0.40825509049E+02  0.14128442324E+03  0.14952462190E+03  0.00000000000E+00 0.  1.
         -1    1    6    6    0  502  0.18847671881E+03  0.73075390317E+02 -0.11486789105E+03  0.23250401845E+03  0.00000000000E+00 0.  1.
<mgrwt>
<rscale>  0 0.18527313E+04</rscale>
<asrwt>0</asrwt>
<pdfrwt beam="1">  1        1 0.24248664E+00 0.18527313E+04</pdfrwt>
<pdfrwt beam="2">  1       -1 0.83762640E-01 0.18527313E+04</pdfrwt>
<totfact> 0.76928221E+00</totfact>
</mgrwt>
</event>
<event>
12    1  0.1549527E-007  0.1756418E+04  0.7818608E-02  0.8729825E-01
         -2   -1    0    0    0  501 -0.00000000000E+00  0.00000000000E+00  0.17230169646E+03  0.17230169646E+03  0.00000000000E+00 0.  1.
          2   -1    0    0  501    0  0.00000000000E+00 -0.00000000000E+00 -0.44761661662E+04  0.44761661662E+04  0.00000000000E+00 0. -1.
         23    2    1    2    0    0  0.21328031634E+03  0.38602548553E+02  0.94542746165E+01  0.23620546590E+03  0.93407648085E+02 0.  0.
        254    2    1    2    0    0 -0.21328031634E+03 -0.38602548553E+02 -0.43133187443E+04  0.44122623967E+04  0.90352765161E+03 0.  0.
        -24    2    4    4    0    0  0.32503667667E+03  0.13051466858E+03 -0.16616062739E+04  0.16999626807E+04  0.79087207834E+02 0.  0.
         24    2    4    4    0    0 -0.53831699302E+03 -0.16911721713E+03 -0.26517124704E+04  0.27122997160E+04  0.81270569963E+02 0.  0.
         13    1    3    3    0    0  0.24955863925E+02 -0.17005434677E+02 -0.21968617698E+02  0.37344345172E+02  0.00000000000E+00 0. -1.
        -13    1    3    3    0    0  0.18832445242E+03  0.55607983231E+02  0.31422892314E+02  0.19886112073E+03  0.00000000000E+00 0.  1.
          2    1    6    6  502    0 -0.51189537982E+03 -0.15296863317E+03 -0.25693472224E+04  0.26243058953E+04  0.00000000000E+00 0. -1.
          1    1    5    5  503    0  0.27641047785E+03  0.10244478101E+03 -0.12358771185E+04  0.12705471016E+04  0.00000000000E+00 0. -1.
         -2    1    5    5    0  503  0.48626198820E+02  0.28069887567E+02 -0.42572915542E+03  0.42941557910E+03  0.00000000000E+00 0.  1.
         -1    1    6    6    0  502 -0.26421613199E+02 -0.16148583958E+02 -0.82365247964E+02  0.87993820693E+02  0.00000000000E+00 0.  1.
<mgrwt>
<rscale>  0 0.17564180E+04</rscale>
<asrwt>0</asrwt>
<pdfrwt beam="1">  1        2 0.68864091E+00 0.17564180E+04</pdfrwt>
<pdfrwt beam="2">  1       -2 0.26507955E-01 0.17564180E+04</pdfrwt>
<totfact> 0.16239676E+00</totfact>
</mgrwt>
</event>
<event>
12    1  0.1549527E-007  0.1819834E+04  0.7818608E-02  0.8695823E-01
          2   -1    0    0  501    0  0.00000000000E+00  0.00000000000E+00  0.35239298697E+03  0.35239298697E+03  0.00000000000E+00 0. -1.
         -2   -1    0    0    0  501 -0.00000000000E+00 -0.00000000000E+00 -0.23495037340E+04  0.23495037340E+04  0.00000000000E+00 0.  1.
         23    2    1    2    0    0 -0.65261983628E+03 -0.12469088387E+03 -0.51095343967E+03  0.84307783736E+03  0.90809443979E+02 0.  0.
        254    2    1    2    0    0  0.65261983628E+03  0.12469088387E+03 -0.14861573074E+04  0.18588188836E+04  0.89726452768E+03 0.  0.
        -24    2    4    4    0    0  0.64244446470E+03 -0.75740000344E+02 -0.43123405684E+03  0.78179025254E+03  0.82229856558E+02 0.  0.
         24    2    4    4    0    0  0.10175371583E+02  0.20043088421E+03 -0.10549232505E+04  0.10770286311E+04  0.82773970165E+02 0.  0.
         13    1    3    3    0    0 -0.42903361881E+03 -0.11184164620E+03 -0.37797869827E+03  0.58262019896E+03  0.00000000000E+00 0. -1.
        -13    1    3    3    0    0 -0.22358621747E+03 -0.12849237674E+02 -0.13297474140E+03  0.26045763840E+03  0.00000000000E+00 0.  1.
          4    1    6    6  502    0  0.72241498918E+01  0.33905688458E+02 -0.69902971888E+02  0.78026979502E+02  0.00000000000E+00 0. -1.
          1    1    5    5  503    0  0.18833779959E+03 -0.16062727739E+01 -0.88783541234E+02  0.20822157444E+03  0.00000000000E+00 0. -1.
         -2    1    5    5    0  503  0.45410666511E+03 -0.74133727570E+02 -0.34245051561E+03  0.57356867810E+03  0.00000000000E+00 0.  1.
         -3    1    6    6    0  502  0.29512216908E+01  0.16652519575E+03 -0.98502027864E+03  0.99900165158E+03  0.00000000000E+00 0.  1.
<mgrwt>
<rscale>  0 0.18198337E+04</rscale>
<asrwt>0</asrwt>
<pdfrwt beam="1">  1        2 0.54214306E-01 0.18198337E+04</pdfrwt>
<pdfrwt beam="2">  1       -2 0.36146211E+00 0.18198337E+04</pdfrwt>
<totfact> 0.11422218E+00</totfact>
</mgrwt>
</event>
<event>
12    1  0.1549527E-007  0.1741984E+04  0.7818608E-02  0.8737775E-01
          1   -1    0    0  501    0  0.00000000000E+00  0.00000000000E+00  0.19545699277E+04  0.19545699277E+04  0.00000000000E+00 0. -1.
         -1   -1    0    0    0  501 -0.00000000000E+00 -0.00000000000E+00 -0.38812985544E+03  0.38812985544E+03  0.00000000000E+00 0.  1.
         23    2    1    2    0    0 -0.35802732127E+03  0.34486481717E+03  0.11069235082E+04  0.12168459540E+04  0.91209197869E+02 0.  0.
        254    2    1    2    0    0  0.35802732127E+03 -0.34486481717E+03  0.45951656402E+03  0.11258538291E+04  0.89959772513E+03 0.  0.
        -24    2    4    4    0    0  0.18336150287E+02  0.18670277985E+03 -0.14332428909E+03  0.25001908705E+03  0.82301577348E+02 0.  0.
         24    2    4    4    0    0  0.33969117098E+03 -0.53156759702E+03  0.60284085311E+03  0.87583474208E+03  0.75598937805E+02 0.  0.
         13    1    3    3    0    0 -0.17971407680E+03  0.17670887242E+03  0.45132710255E+03  0.51693261504E+03  0.00000000000E+00 0. -1.
        -13    1    3    3    0    0 -0.17831324447E+03  0.16815594476E+03  0.65559640568E+03  0.69991333896E+03  0.00000000000E+00 0.  1.
          2    1    6    6  502    0  0.17136041805E+03 -0.20043753080E+03  0.23985976334E+03  0.35647202232E+03  0.00000000000E+00 0. -1.
          1    1    5    5  503    0 -0.22086334140E+02  0.13262172785E+03 -0.74956607054E+02  0.15393122424E+03  0.00000000000E+00 0. -1.
         -2    1    5    5    0  503  0.40422484427E+02  0.54081052001E+02 -0.68367682040E+02  0.96087862815E+02  0.00000000000E+00 0.  1.
         -1    1    6    6    0  502  0.16833075293E+03 -0.33113006623E+03  0.36298108977E+03  0.51936271976E+03  0.00000000000E+00 0.  1.
<mgrwt>
<rscale>  0 0.17419839E+04</rscale>
<asrwt>0</asrwt>
<pdfrwt beam="1">  1        1 0.30070306E+00 0.17419839E+04</pdfrwt>
<pdfrwt beam="2">  1       -1 0.59712287E-01 0.17419839E+04</pdfrwt>
<totfact> 0.86276589E+00</totfact>
</mgrwt>
</event>
<event>
12    1  0.1549527E-007  0.1493873E+04  0.7818608E-02  0.8888537E-01
         -1   -1    0    0    0  501 -0.00000000000E+00  0.00000000000E+00  0.39499586274E+03  0.39499586274E+03  0.00000000000E+00 0.  1.
          1   -1    0    0  501    0  0.00000000000E+00 -0.00000000000E+00 -0.14124562211E+04  0.14124562211E+04  0.00000000000E+00 0. -1.
         23    2    1    2    0    0 -0.13875110867E+03  0.31396715092E+03  0.30686672897E+02  0.36131047890E+03  0.10851888432E+03 0.  0.
        254    2    1    2    0    0  0.13875110867E+03 -0.31396715092E+03 -0.10481470312E+04  0.14461416049E+04  0.93535346278E+03 0.  0.
        -24    2    4    4    0    0 -0.13172368509E+03 -0.24920901247E+03 -0.11118009892E+04  0.11499541812E+04  0.82685658632E+02 0.  0.
         24    2    4    4    0    0  0.27047479377E+03 -0.64758138450E+02  0.63653957949E+02  0.29618742374E+03  0.79529447742E+02 0.  0.
         13    1    3    3    0    0 -0.79947995044E+02  0.16917407310E+03  0.70643629981E+02  0.20000517838E+03  0.00000000000E+00 0.  1.
        -13    1    3    3    0    0 -0.58803113631E+02  0.14479307782E+03 -0.39956957084E+02  0.16130530052E+03  0.00000000000E+00 0. -1.
          4    1    6    6  502    0  0.14989305496E+03 -0.73507277079E+02  0.51342830467E+02  0.17466348774E+03  0.00000000000E+00 0. -1.
          3    1    5    5  503    0 -0.12127992699E+03 -0.23735199319E+03 -0.92927250660E+03  0.96674307905E+03  0.00000000000E+00 0. -1.
         -4    1    5    5    0  503 -0.10443758102E+02 -0.11857019283E+02 -0.18252848256E+03  0.18321110211E+03  0.00000000000E+00 0.  1.
         -3    1    6    6    0  502  0.12058173880E+03  0.87491386294E+01  0.12311127482E+02  0.12152393599E+03  0.00000000000E+00 0.  1.
<mgrwt>
<rscale>  0 0.14938733E+04</rscale>
<asrwt>0</asrwt>
<pdfrwt beam="1">  1        1 0.21730095E+00 0.14938733E+04</pdfrwt>
<pdfrwt beam="2">  1       -1 0.60768595E-01 0.14938733E+04</pdfrwt>
<totfact> 0.20011666E+01</totfact>
</mgrwt>
</event>
<event>
12    1  0.1549527E-007  0.1054813E+04  0.7818608E-02  0.9250389E-01
          1   -1    0    0  501    0  0.00000000000E+00  0.00000000000E+00  0.48900375630E+03  0.48900375630E+03  0.00000000000E+00 0. -1.
         -1   -1    0    0    0  501 -0.00000000000E+00 -0.00000000000E+00 -0.56882458566E+03  0.56882458566E+03  0.00000000000E+00 0.  1.
         23    2    1    2    0    0 -0.34972743256E+02  0.20270095105E+02 -0.11762938138E+03  0.15363031977E+03  0.90175574637E+02 0.  0.
        254    2    1    2    0    0  0.34972743256E+02 -0.20270095105E+02  0.37808552018E+02  0.90419802220E+03  0.90250241397E+03 0.  0.
        -24    2    4    4    0    0  0.39288831466E+03  0.17034315613E+03  0.17409832028E+03  0.46910531855E+03  0.79822027875E+02 0.  0.
         24    2    4    4    0    0 -0.35791557141E+03 -0.19061325123E+03 -0.13628976826E+03  0.43509270364E+03  0.79333423167E+02 0.  0.
         11    1    3    3    0    0  0.13779786911E+02  0.85953109614E+01  0.81919736926E+01  0.18189841418E+02  0.00000000000E+00 0. -1.
        -11    1    3    3    0    0 -0.48752530167E+02  0.11674784144E+02 -0.12582135507E+03  0.13544047835E+03  0.00000000000E+00 0.  1.
          4    1    6    6  502    0 -0.19094945506E+02 -0.36006378761E+02 -0.14409026117E+02  0.43228419922E+02  0.00000000000E+00 0. -1.
          3    1    5    5  503    0  0.28780705192E+03  0.91808260791E+02  0.14326265159E+03  0.33434389964E+03  0.00000000000E+00 0. -1.
         -4    1    5    5    0  503  0.10508126274E+03  0.78534895334E+02  0.30835668691E+02  0.13476141892E+03  0.00000000000E+00 0.  1.
         -3    1    6    6    0  502 -0.33882062590E+03 -0.15460687247E+03 -0.12188074215E+03  0.39186428372E+03  0.00000000000E+00 0.  1.
<mgrwt>
<rscale>  0 0.10548125E+04</rscale>
<asrwt>0</asrwt>
<pdfrwt beam="1">  1        1 0.75231347E-01 0.10548125E+04</pdfrwt>
<pdfrwt beam="2">  1       -1 0.87511475E-01 0.10548125E+04</pdfrwt>
<totfact> 0.58719575E+01</totfact>
</mgrwt>
</event>
<event>
12    1  0.1549527E-007  0.1627744E+04  0.7818608E-02  0.8803683E-01
         -1   -1    0    0    0  501 -0.00000000000E+00  0.00000000000E+00  0.75850417619E+03  0.75850417619E+03  0.00000000000E+00 0.  1.
          1   -1    0    0  501    0  0.00000000000E+00 -0.00000000000E+00 -0.87328136640E+03  0.87328136640E+03  0.00000000000E+00 0. -1.
         23    2    1    2    0    0 -0.10807732583E+03  0.29410532119E+03  0.41482878952E+03  0.52816924481E+03  0.93280106316E+02 0.  0.
        254    2    1    2    0    0  0.10807732583E+03 -0.29410532119E+03 -0.52960597973E+03  0.11036162978E+04  0.91613743000E+03 0.  0.
        -24    2    4    4    0    0  0.27578992201E+03 -0.29820815223E+02  0.16861419721E+03  0.33427361427E+03  0.79741705477E+02 0.  0.
         24    2    4    4    0    0 -0.16771259618E+03 -0.26428450597E+03 -0.69822017694E+03  0.76934268351E+03  0.80018336446E+02 0.  0.
         11    1    3    3    0    0 -0.10706125564E+03  0.29065218551E+03  0.36714650377E+03  0.48035128878E+03  0.00000000000E+00 0.  1.
        -11    1    3    3    0    0 -0.10160701957E+01  0.34531356817E+01  0.47682285744E+02  0.47817956025E+02  0.00000000000E+00 0. -1.
          2    1    6    6  502    0 -0.91617474290E+02 -0.16181327248E+03 -0.50129628601E+03  0.53467304319E+03  0.00000000000E+00 0. -1.
          1    1    5    5  503    0  0.26134142122E+03 -0.36363856228E+02  0.17559247901E+03  0.31694540093E+03  0.00000000000E+00 0. -1.
         -4    1    5    5    0  503  0.14448500791E+02  0.65430410051E+01 -0.69782817995E+01  0.17328213340E+02  0.00000000000E+00 0.  1.
         -1    1    6    6    0  502 -0.76095121889E+02 -0.10247123349E+03 -0.19692389094E+03  0.23466964033E+03  0.00000000000E+00 0.  1.
<mgrwt>
<rscale>  0 0.16277439E+04</rscale>
<asrwt>0</asrwt>
<pdfrwt beam="1">  1        1 0.13435098E+00 0.16277439E+04</pdfrwt>
<pdfrwt beam="2">  1       -1 0.11669295E+00 0.16277439E+04</pdfrwt>
<totfact> 0.12149672E+01</totfact>
</mgrwt>
</event>
<event>
12    1  0.1549527E-007  0.1492478E+04  0.7818608E-02  0.8889470E-01
          2   -1    0    0  501    0  0.00000000000E+00  0.00000000000E+00  0.14501365253E+04  0.14501365253E+04  0.00000000000E+00 0. -1.
         -2   -1    0    0    0  501 -0.00000000000E+00 -0.00000000000E+00 -0.38401412946E+03  0.38401412946E+03  0.00000000000E+00 0.  1.
         23    2    1    2    0    0 -0.44107759657E+03  0.62321600962E+02  0.55073969208E+03  0.71421025561E+03  0.91370961708E+02 0.  0.
        254    2    1    2    0    0  0.44107759657E+03 -0.62321600962E+02  0.51538270379E+03  0.11199403992E+04  0.88893967075E+03 0.  0.
        -24    2    4    4    0    0 -0.18836730129E+03 -0.23625702464E+03  0.54458315288E+02  0.31669498413E+03  0.77655540557E+02 0.  0.
         24    2    4    4    0    0  0.62944489786E+03  0.17393542368E+03  0.46092438850E+03  0.80324541506E+03  0.79356750520E+02 0.  0.
         11    1    3    3    0    0 -0.38140867603E+03  0.62440338093E+02  0.51754629499E+03  0.64592998183E+03  0.00000000000E+00 0. -1.
        -11    1    3    3    0    0 -0.59668920538E+02 -0.11873713109E+00  0.33193397093E+02  0.68280273779E+02  0.00000000000E+00 0.  1.
          2    1    6    6  502    0  0.49265211735E+03  0.13447566849E+03  0.39864723141E+03  0.64784985086E+03  0.00000000000E+00 0. -1.
          1    1    5    5  503    0 -0.14284958046E+03 -0.22105135713E+03  0.54147251804E+02  0.26870360996E+03  0.00000000000E+00 0. -1.
         -2    1    5    5    0  503 -0.45517720830E+02 -0.15205667509E+02  0.31106348430E+00  0.47991374168E+02  0.00000000000E+00 0.  1.
         -1    1    6    6    0  502  0.13679278051E+03  0.39459755181E+02  0.62277157086E+02  0.15539556420E+03  0.00000000000E+00 0.  1.
<mgrwt>
<rscale>  0 0.14924784E+04</rscale>
<asrwt>0</asrwt>
<pdfrwt beam="1">  1        2 0.22309792E+00 0.14924784E+04</pdfrwt>
<pdfrwt beam="2">  1       -2 0.59079098E-01 0.14924784E+04</pdfrwt>
<totfact> 0.35043412E+01</totfact>
</mgrwt>
</event>
<event>
12    1  0.2302750E-007  0.1690744E+04  0.7818608E-02  0.8766661E-01
          1   -1    0    0  501    0  0.00000000000E+00  0.00000000000E+00  0.20320231491E+04  0.20320231491E+04  0.00000000000E+00 0. -1.
         -1   -1    0    0    0  501 -0.00000000000E+00 -0.00000000000E+00 -0.35169553425E+03  0.35169553425E+03  0.00000000000E+00 0.  1.
         23    2    1    2    0    0 -0.41405593449E+03 -0.38820931495E+03  0.30635577507E+03  0.65573336719E+03  0.11825226771E+03 0.  0.
        254    2    1    2    0    0  0.41405593449E+03  0.38820931495E+03  0.13739718398E+04  0.17279853162E+04  0.88090058879E+03 0.  0.
        -24    2    4    4    0    0  0.26934490789E+03 -0.23686924172E+03  0.29861698525E+03  0.47338094187E+03  0.79143509915E+02 0.  0.
         24    2    4    4    0    0  0.14471102660E+03  0.62507855666E+03  0.10753548546E+04  0.12546043743E+04  0.77327806617E+02 0.  0.
         13    1    3    3    0    0 -0.16156712812E+03 -0.13822602519E+03  0.52366667866E+02  0.21898090975E+03  0.00000000000E+00 0. -1.
        -13    1    3    3    0    0 -0.25248880637E+03 -0.24998328976E+03  0.25398910721E+03  0.43675245744E+03  0.00000000000E+00 0.  1.
          2    1    6    6  502    0  0.13503349565E+03  0.58077940949E+03  0.95353212588E+03  0.11246165046E+04  0.00000000000E+00 0. -1.
          3    1    5    5  503    0  0.26349578136E+03 -0.20899831872E+03  0.25850458727E+03  0.42418739451E+03  0.00000000000E+00 0. -1.
         -4    1    5    5    0  503  0.58491265384E+01 -0.27870922992E+02  0.40112397978E+02  0.49193547354E+02  0.00000000000E+00 0.  1.
         -1    1    6    6    0  502  0.96775309524E+01  0.44299147171E+02  0.12182272868E+03  0.12998786970E+03  0.00000000000E+00 0.  1.
<mgrwt>
<rscale>  0 0.16907436E+04</rscale>
<asrwt>0</asrwt>
<pdfrwt beam="1">  1        1 0.31261894E+00 0.16907436E+04</pdfrwt>
<pdfrwt beam="2">  1       -1 0.54107006E-01 0.16907436E+04</pdfrwt>
<totfact> 0.93130912E+00</totfact>
</mgrwt>
</event>
<event>
12    1  0.1549527E-007  0.1436683E+04  0.7818608E-02  0.8927685E-01
          2   -1    0    0  501    0  0.00000000000E+00  0.00000000000E+00  0.15658343788E+04  0.15658343788E+04  0.00000000000E+00 0. -1.
         -2   -1    0    0    0  501 -0.00000000000E+00 -0.00000000000E+00 -0.32954621162E+03  0.32954621162E+03  0.00000000000E+00 0.  1.
         23    2    1    2    0    0  0.98913835625E+02 -0.40779114358E+03  0.25763076596E+03  0.50042554169E+03  0.89300322173E+02 0.  0.
        254    2    1    2    0    0 -0.98913835625E+02  0.40779114358E+03  0.97865740118E+03  0.13949550487E+04  0.90113912097E+03 0.  0.
        -24    2    4    4    0    0 -0.11891724084E+03 -0.21265741114E+03  0.30159875425E+02  0.25851792760E+03  0.80977874300E+02 0.  0.
         24    2    4    4    0    0  0.20003405212E+02  0.62044855472E+03  0.94849752576E+03  0.11364371211E+04  0.80530916787E+02 0.  0.
         11    1    3    3    0    0  0.60867496319E+02 -0.29760316596E+03  0.22893748172E+03  0.38037464037E+03  0.00000000000E+00 0. -1.
        -11    1    3    3    0    0  0.38046339306E+02 -0.11018797762E+03  0.28693284239E+02  0.12005090132E+03  0.00000000000E+00 0.  1.
          4    1    6    6  502    0 -0.21848931637E+02  0.27896902133E+03  0.37934536262E+03  0.47138518732E+03  0.00000000000E+00 0. -1.
          1    1    5    5  503    0 -0.12519419957E+01  0.31995317273E+00  0.14647343262E+02  0.14704230460E+02  0.00000000000E+00 0. -1.
         -2    1    5    5    0  503 -0.11766529884E+03 -0.21297736431E+03  0.15512532163E+02  0.24381369714E+03  0.00000000000E+00 0.  1.
         -3    1    6    6    0  502  0.41852336849E+02  0.34147953339E+03  0.56915216313E+03  0.66505193378E+03  0.00000000000E+00 0.  1.
<mgrwt>
<rscale>  0 0.14366834E+04</rscale>
<asrwt>0</asrwt>
<pdfrwt beam="1">  1        2 0.24089759E+00 0.14366834E+04</pdfrwt>
<pdfrwt beam="2">  1       -2 0.50699418E-01 0.14366834E+04</pdfrwt>
<totfact> 0.41605829E+01</totfact>
</mgrwt>
</event>
<event>
12    1  0.1549527E-007  0.1682920E+04  0.7818608E-02  0.8771166E-01
         -2   -1    0    0    0  501 -0.00000000000E+00  0.00000000000E+00  0.20637591555E+03  0.20637591555E+03  0.00000000000E+00 0.  1.
          2   -1    0    0  501    0  0.00000000000E+00 -0.00000000000E+00 -0.34308980785E+04  0.34308980785E+04  0.00000000000E+00 0. -1.
         23    2    1    2    0    0  0.10468570547E+03 -0.97365779317E+02 -0.24183324571E+04  0.24243282246E+04  0.92716102193E+02 0.  0.
        254    2    1    2    0    0 -0.10468570547E+03  0.97365779317E+02 -0.80618970584E+03  0.12129457695E+04  0.89490580840E+03 0.  0.
        -24    2    4    4    0    0  0.33055877462E+03  0.33308102470E+02 -0.66522450641E+02  0.34832869055E+03  0.80802890148E+02 0.  0.
         24    2    4    4    0    0 -0.43524448009E+03  0.64057676847E+02 -0.73966725520E+03  0.86461707890E+03  0.83149872485E+02 0.  0.
         11    1    3    3    0    0  0.10965032554E+03 -0.11080589888E+03 -0.22438007015E+04  0.22492093564E+04  0.00000000000E+00 0. -1.
        -11    1    3    3    0    0 -0.49646200734E+01  0.13440119563E+02 -0.17453175565E+03  0.17511886819E+03  0.00000000000E+00 0.  1.
          4    1    6    6  502    0 -0.38995365268E+03  0.79223664563E+02 -0.68344314255E+03  0.79084433953E+03  0.00000000000E+00 0. -1.
          1    1    5    5  503    0  0.11451308338E+03 -0.20465410894E+02 -0.13008110096E+01  0.11633473865E+03  0.00000000000E+00 0. -1.
         -2    1    5    5    0  503  0.21604569124E+03  0.53773513364E+02 -0.65221639631E+02  0.23199395190E+03  0.00000000000E+00 0.  1.
         -3    1    6    6    0  502 -0.45290827407E+02 -0.15165987716E+02 -0.56224112654E+02  0.73772739372E+02  0.00000000000E+00 0.  1.
<mgrwt>
<rscale>  0 0.16829198E+04</rscale>
<asrwt>0</asrwt>
<pdfrwt beam="1">  1        2 0.52783045E+00 0.16829198E+04</pdfrwt>
<pdfrwt beam="2">  1       -2 0.31750142E-01 0.16829198E+04</pdfrwt>
<totfact> 0.80515334E+00</totfact>
</mgrwt>
</event>
<event>
12    1  0.1549527E-007  0.1302121E+04  0.7818608E-02  0.9027885E-01
         -1   -1    0    0    0  501 -0.00000000000E+00  0.00000000000E+00  0.46135637207E+03  0.46135637207E+03  0.00000000000E+00 0.  1.
          1   -1    0    0  501    0  0.00000000000E+00 -0.00000000000E+00 -0.91876834048E+03  0.91876834048E+03  0.00000000000E+00 0. -1.
         23    2    1    2    0    0 -0.30511861268E+03 -0.59843342175E+02  0.29540281501E+01  0.32370411621E+03  0.89983527201E+02 0.  0.
        254    2    1    2    0    0  0.30511861268E+03  0.59843342175E+02 -0.46036599656E+03  0.10564205963E+04  0.89855942050E+03 0.  0.
        -24    2    4    4    0    0  0.11804443033E+03  0.45234533737E+03 -0.38069311992E+03  0.60786825420E+03  0.77625840658E+02 0.  0.
         24    2    4    4    0    0  0.18707418235E+03 -0.39250199519E+03 -0.79672876636E+02  0.44855234213E+03  0.76137181648E+02 0.  0.
         11    1    3    3    0    0 -0.81858007367E+02 -0.62742457053E+01  0.39686008154E+02  0.91187053754E+02  0.00000000000E+00 0. -1.
        -11    1    3    3    0    0 -0.22326060531E+03 -0.53569096470E+02 -0.36731980004E+02  0.23251706246E+03  0.00000000000E+00 0.  1.
          2    1    6    6  502    0  0.11259887961E+03 -0.29056083468E+03 -0.82215824823E+02  0.32227868095E+03  0.00000000000E+00 0. -1.
          1    1    5    5  503    0  0.10777710571E+03  0.43210637696E+03 -0.33646730428E+03  0.55815954025E+03  0.00000000000E+00 0. -1.
         -2    1    5    5    0  503  0.10267324616E+02  0.20238960413E+02 -0.44225815646E+02  0.49708713954E+02  0.00000000000E+00 0.  1.
         -1    1    6    6    0  502  0.74475302735E+02 -0.10194116051E+03  0.25429481871E+01  0.12627366119E+03  0.00000000000E+00 0.  1.
<mgrwt>
<rscale>  0 0.13021208E+04</rscale>
<asrwt>0</asrwt>
<pdfrwt beam="1">  1        1 0.14134898E+00 0.13021208E+04</pdfrwt>
<pdfrwt beam="2">  1       -1 0.70977903E-01 0.13021208E+04</pdfrwt>
<totfact> 0.34606500E+01</totfact>
</mgrwt>
</event>
<event>
12    1  0.1549527E-007  0.1692037E+04  0.7818608E-02  0.8765919E-01
          2   -1    0    0  501    0  0.00000000000E+00  0.00000000000E+00  0.97440205680E+03  0.97440205680E+03  0.00000000000E+00 0. -1.
         -2   -1    0    0    0  501 -0.00000000000E+00 -0.00000000000E+00 -0.73455036020E+03  0.73455036020E+03  0.00000000000E+00 0.  1.
         23    2    1    2    0    0  0.43224480881E+03  0.26389112995E+03 -0.24048349990E+03  0.56808262923E+03  0.91713994066E+02 0.  0.
        254    2    1    2    0    0 -0.43224480881E+03 -0.26389112995E+03  0.48033519649E+03  0.11408697878E+04  0.90243441227E+03 0.  0.
        -24    2    4    4    0    0 -0.67823681814E+03 -0.30165751555E+03  0.23721271729E+03  0.78442796556E+03  0.89749215811E+02 0.  0.
         24    2    4    4    0    0  0.24599200934E+03  0.37766385595E+02  0.24312247920E+03  0.35644182220E+03  0.77484606114E+02 0.  0.
         13    1    3    3    0    0  0.11047113579E+03  0.75763170322E+02 -0.21178976011E+02  0.13561887348E+03  0.00000000000E+00 0. -1.
        -13    1    3    3    0    0  0.32177367301E+03  0.18812795963E+03 -0.21930452389E+03  0.43246375575E+03  0.00000000000E+00 0.  1.
          2    1    6    6  502    0  0.23631260765E+03  0.27708661864E+02  0.19905555857E+03  0.31021691423E+03  0.00000000000E+00 0. -1.
          3    1    5    5  503    0 -0.42483779339E+03 -0.22069165255E+03  0.11889650417E+03  0.49328321976E+03  0.00000000000E+00 0. -1.
         -4    1    5    5    0  503 -0.25339902476E+03 -0.80965862994E+02  0.11831621313E+03  0.29114474580E+03  0.00000000000E+00 0.  1.
         -1    1    6    6    0  502  0.96794016940E+01  0.10057723731E+02  0.44066920630E+02  0.46224907979E+02  0.00000000000E+00 0.  1.
<mgrwt>
<rscale>  0 0.16920371E+04</rscale>
<asrwt>0</asrwt>
<pdfrwt beam="1">  1        2 0.14990801E+00 0.16920371E+04</pdfrwt>
<pdfrwt beam="2">  1       -2 0.11300775E+00 0.16920371E+04</pdfrwt>
<totfact> 0.15333226E+01</totfact>
</mgrwt>
</event>
<event>
12    1  0.1549527E-007  0.2379686E+04  0.7818608E-02  0.8447148E-01
         -2   -1    0    0    0  501 -0.00000000000E+00  0.00000000000E+00  0.12884237662E+04  0.12884237662E+04  0.00000000000E+00 0.  1.
          2   -1    0    0  501    0  0.00000000000E+00 -0.00000000000E+00 -0.10988051089E+04  0.10988051089E+04  0.00000000000E+00 0. -1.
         23    2    1    2    0    0  0.93674685480E+02  0.20318600642E+03  0.10758912224E+04  0.11027001529E+04  0.91357565573E+02 0.  0.
        254    2    1    2    0    0 -0.93674685480E+02 -0.20318600642E+03 -0.88627256507E+03  0.12845287222E+04  0.90248295195E+03 0.  0.
        -24    2    4    4    0    0  0.20364977140E+03  0.10075017828E+03  0.56507025719E+02  0.24711910679E+03  0.79063146718E+02 0.  0.
         24    2    4    4    0    0 -0.29732445688E+03 -0.30393618470E+03 -0.94277959079E+03  0.10374096154E+04  0.81279248508E+02 0.  0.
         11    1    3    3    0    0  0.11129121839E+03  0.18176482878E+03  0.97814828348E+03  0.10010985230E+04  0.00000000000E+00 0.  1.
        -11    1    3    3    0    0 -0.17616532910E+02  0.21421177640E+02  0.97742938941E+02  0.10160162989E+03  0.00000000000E+00 0. -1.
          4    1    6    6  502    0 -0.20246789607E+03 -0.24877141114E+03 -0.65228879607E+03  0.72688454201E+03  0.00000000000E+00 0. -1.
          3    1    5    5  503    0  0.10962435151E+03  0.96492262854E+02  0.27316472007E+02  0.14857471143E+03  0.00000000000E+00 0. -1.
         -4    1    5    5    0  503  0.94025419893E+02  0.42579154236E+01  0.29190553712E+02  0.98544395355E+02  0.00000000000E+00 0.  1.
         -3    1    6    6    0  502 -0.94856560816E+02 -0.55164773561E+02 -0.29049079472E+03  0.31052507337E+03  0.00000000000E+00 0.  1.
<mgrwt>
<rscale>  0 0.23796862E+04</rscale>
<asrwt>0</asrwt>
<pdfrwt beam="1">  1        2 0.16904694E+00 0.23796862E+04</pdfrwt>
<pdfrwt beam="2">  1       -2 0.19821904E+00 0.23796862E+04</pdfrwt>
<totfact> 0.26856047E+00</totfact>
</mgrwt>
</event>
<event>
12    1  0.1549527E-007  0.1822657E+04  0.7818608E-02  0.8694343E-01
          2   -1    0    0  501    0  0.00000000000E+00  0.00000000000E+00  0.33805999833E+04  0.33805999833E+04  0.00000000000E+00 0. -1.
         -2   -1    0    0    0  501 -0.00000000000E+00 -0.00000000000E+00 -0.24567231954E+03  0.24567231954E+03  0.00000000000E+00 0.  1.
         23    2    1    2    0    0 -0.74467430671E+02 -0.18234039752E+03  0.24900145944E+04  0.24994093816E+04  0.89895260457E+02 0.  0.
        254    2    1    2    0    0  0.74467430671E+02  0.18234039752E+03  0.64491306942E+03  0.11268629213E+04  0.90283650648E+03 0.  0.
        -24    2    4    4    0    0  0.10061199445E+03 -0.26615241917E+03  0.60014269084E+03  0.66900548475E+03  0.80232198012E+02 0.  0.
         24    2    4    4    0    0 -0.26144563780E+02  0.44849281670E+03  0.44770378582E+02  0.45785743653E+03  0.76155764980E+02 0.  0.
         13    1    3    3    0    0 -0.51274452601E+02 -0.27642693273E+02  0.54079658067E+03  0.54392474631E+03  0.00000000000E+00 0. -1.
        -13    1    3    3    0    0 -0.23192978070E+02 -0.15469770425E+03  0.19492180137E+04  0.19554846353E+04  0.00000000000E+00 0.  1.
          4    1    6    6  502    0 -0.23921790821E+02  0.13196913085E+03 -0.17507217680E+02  0.13525755522E+03  0.00000000000E+00 0. -1.
          3    1    5    5  503    0  0.84369606665E+02 -0.15615948990E+03  0.43606387794E+03  0.47080327363E+03  0.00000000000E+00 0. -1.
         -4    1    5    5    0  503  0.16242387786E+02 -0.10999292927E+03  0.16407881290E+03  0.19820221113E+03  0.00000000000E+00 0.  1.
         -3    1    6    6    0  502 -0.22227729587E+01  0.31652368585E+03  0.62277596263E+02  0.32259988131E+03  0.00000000000E+00 0.  1.
<mgrwt>
<rscale>  0 0.18226572E+04</rscale>
<asrwt>0</asrwt>
<pdfrwt beam="1">  1        2 0.52009227E+00 0.18226572E+04</pdfrwt>
<pdfrwt beam="2">  1       -2 0.37795744E-01 0.18226572E+04</pdfrwt>
<totfact> 0.61597116E+00</totfact>
</mgrwt>
</event>
<event>
12    1  0.1549527E-007  0.1360938E+04  0.7818608E-02  0.8982589E-01
          1   -1    0    0  501    0  0.00000000000E+00  0.00000000000E+00  0.32174162501E+03  0.32174162501E+03  0.00000000000E+00 0. -1.
         -1   -1    0    0    0  501 -0.00000000000E+00 -0.00000000000E+00 -0.14391621880E+04  0.14391621880E+04  0.00000000000E+00 0.  1.
         23    2    1    2    0    0  0.84726121243E+02  0.23933325341E+03 -0.68168247969E+03  0.73357587038E+03  0.94782027145E+02 0.  0.
        254    2    1    2    0    0 -0.84726121243E+02 -0.23933325341E+03 -0.43573808333E+03  0.10273279427E+04  0.89502854853E+03 0.  0.
        -24    2    4    4    0    0  0.36729510364E+03 -0.27655285218E+03 -0.17908766304E+03  0.49985949568E+03  0.79999694775E+02 0.  0.
         24    2    4    4    0    0 -0.45202122488E+03  0.37219598769E+02 -0.25665042030E+03  0.52746844698E+03  0.81517102795E+02 0.  0.
         11    1    3    3    0    0  0.10283487186E+02  0.62851318871E+01 -0.34023745671E+01  0.12523144343E+02  0.00000000000E+00 0. -1.
        -11    1    3    3    0    0  0.74442634057E+02  0.23304812152E+03 -0.67828010513E+03  0.72105272603E+03  0.00000000000E+00 0.  1.
          2    1    6    6  502    0 -0.54333287607E+02  0.19592935980E+02 -0.85032648217E+01  0.58380602902E+02  0.00000000000E+00 0. -1.
          3    1    5    5  503    0  0.54119916443E+02 -0.95295064295E+01 -0.25443519665E+02  0.60556994159E+02  0.00000000000E+00 0. -1.
         -4    1    5    5    0  503  0.31317518719E+03 -0.26702334575E+03 -0.15364414337E+03  0.43930250152E+03  0.00000000000E+00 0.  1.
         -1    1    6    6    0  502 -0.39768793727E+03  0.17626662789E+02 -0.24814715547E+03  0.46908784408E+03  0.00000000000E+00 0.  1.
<mgrwt>
<rscale>  0 0.13609385E+04</rscale>
<asrwt>0</asrwt>
<pdfrwt beam="1">  1        1 0.49498712E-01 0.13609385E+04</pdfrwt>
<pdfrwt beam="2">  1       -1 0.22140956E+00 0.13609385E+04</pdfrwt>
<totfact> 0.84279666E+00</totfact>
</mgrwt>
</event>
<event>
12    1  0.1549527E-007  0.1382985E+04  0.7818608E-02  0.8966227E-01
          1   -1    0    0  501    0  0.00000000000E+00  0.00000000000E+00  0.11700171218E+04  0.11700171218E+04  0.00000000000E+00 0. -1.
         -1   -1    0    0    0  501 -0.00000000000E+00 -0.00000000000E+00 -0.40867961971E+03  0.40867961971E+03  0.00000000000E+00 0.  1.
         23    2    1    2    0    0 -0.10617110056E+03 -0.18508740392E+03  0.60101686180E+03  0.64442570567E+03  0.92377336367E+02 0.  0.
        254    2    1    2    0    0  0.10617110056E+03  0.18508740392E+03  0.16032064025E+03  0.93427103581E+03  0.89533793117E+03 0.  0.
        -24    2    4    4    0    0  0.12453698423E+03  0.46813807159E+02 -0.35885257364E+03  0.39096851589E+03  0.79876265760E+02 0.  0.
         24    2    4    4    0    0 -0.18365883667E+02  0.13827359676E+03  0.51917321389E+03  0.54330251992E+03  0.78612396524E+02 0.  0.
         13    1    3    3    0    0 -0.42702172557E+02 -0.85752230704E+01  0.14303853591E+03  0.14952268305E+03  0.00000000000E+00 0.  1.
        -13    1    3    3    0    0 -0.63468928005E+02 -0.17651218085E+03  0.45797832589E+03  0.49490302262E+03  0.00000000000E+00 0. -1.
          4    1    6    6  502    0 -0.43698568612E+02  0.10452596655E+03  0.42959688825E+03  0.44428451355E+03  0.00000000000E+00 0. -1.
          3    1    5    5  503    0  0.12799817436E+03  0.57887534077E+02 -0.30380783086E+03  0.33471435185E+03  0.00000000000E+00 0. -1.
         -4    1    5    5    0  503 -0.34611901307E+01 -0.11073726918E+02 -0.55044742779E+02  0.56254164046E+02  0.00000000000E+00 0.  1.
         -3    1    6    6    0  502  0.25332684945E+02  0.33747630210E+02  0.89576325636E+02  0.99018006372E+02  0.00000000000E+00 0.  1.
<mgrwt>
<rscale>  0 0.13829854E+04</rscale>
<asrwt>0</asrwt>
<pdfrwt beam="1">  1        1 0.18000263E+00 0.13829854E+04</pdfrwt>
<pdfrwt beam="2">  1       -1 0.62873788E-01 0.13829854E+04</pdfrwt>
<totfact> 0.28162246E+01</totfact>
</mgrwt>
</event>
<event>
12    1  0.1549527E-007  0.1425684E+04  0.7818608E-02  0.8935434E-01
          2   -1    0    0  501    0  0.00000000000E+00  0.00000000000E+00  0.17137244625E+04  0.17137244625E+04  0.00000000000E+00 0.  1.
         -2   -1    0    0    0  501 -0.00000000000E+00 -0.00000000000E+00 -0.29651425289E+03  0.29651425289E+03  0.00000000000E+00 0. -1.
         23    2    1    2    0    0  0.59907837754E+02 -0.15537938533E+03  0.97873146693E+03  0.10005827819E+04  0.12457494368E+03 0.  0.
        254    2    1    2    0    0 -0.59907837754E+02  0.15537938533E+03  0.43847874264E+03  0.10096559335E+04  0.89409719488E+03 0.  0.
        -24    2    4    4    0    0 -0.40539205663E+03  0.28396668909E+02 -0.22660858254E+02  0.41435919241E+03  0.77659097672E+02 0.  0.
         24    2    4    4    0    0  0.34548421888E+03  0.12698271642E+03  0.46113960090E+03  0.59529674109E+03  0.79022292237E+02 0.  0.
         11    1    3    3    0    0  0.11371007138E+02 -0.10754090366E+03  0.82959066537E+03  0.83660923843E+03  0.00000000000E+00 0.  1.
        -11    1    3    3    0    0  0.48536830616E+02 -0.47838481672E+02  0.14914080156E+03  0.16397354343E+03  0.00000000000E+00 0. -1.
          2    1    6    6  502    0  0.20668030135E+03  0.39210885233E+02  0.28813208894E+03  0.35675529592E+03  0.00000000000E+00 0. -1.
          1    1    5    5  503    0 -0.39409881067E+03  0.30893058824E+02 -0.76143376653E+01  0.39538112220E+03  0.00000000000E+00 0. -1.
         -2    1    5    5    0  503 -0.11293245962E+02 -0.24963899150E+01 -0.15046520589E+02  0.18978070208E+02  0.00000000000E+00 0.  1.
         -3    1    6    6    0  502  0.13880391753E+03  0.87771831186E+02  0.17300751196E+03  0.23854144517E+03  0.00000000000E+00 0.  1.
<mgrwt>
<rscale>  0 0.14256840E+04</rscale>
<asrwt>0</asrwt>
<pdfrwt beam="1">  1        2 0.26364991E+00 0.14256840E+04</pdfrwt>
<pdfrwt beam="2">  1       -2 0.45617579E-01 0.14256840E+04</pdfrwt>
<totfact> 0.42653951E+01</totfact>
</mgrwt>
</event>
<event>
12    1  0.1549527E-007  0.1313623E+04  0.7818608E-02  0.9018832E-01
         -2   -1    0    0    0  501 -0.00000000000E+00  0.00000000000E+00  0.29817594723E+03  0.29817594723E+03  0.00000000000E+00 0.  1.
          2   -1    0    0  501    0  0.00000000000E+00 -0.00000000000E+00 -0.14468003538E+04  0.14468003538E+04  0.00000000000E+00 0. -1.
         23    2    1    2    0    0 -0.30325181725E+02  0.33954260691E+03 -0.35693991546E+03  0.50189427647E+03  0.91010784820E+02 0.  0.
        254    2    1    2    0    0  0.30325181725E+02 -0.33954260691E+03 -0.79168449110E+03  0.12430820246E+04  0.89570072444E+03 0.  0.
        -24    2    4    4    0    0 -0.37769886232E+03 -0.26916972823E+03 -0.64102756731E+03  0.79550068087E+03  0.82439177686E+02 0.  0.
         24    2    4    4    0    0  0.40802404405E+03 -0.70372878682E+02 -0.15065692380E+03  0.44758134368E+03  0.78712057215E+02 0.  0.
         13    1    3    3    0    0 -0.26424819444E+02  0.73994462564E+02 -0.39281076330E+02  0.87843352226E+02  0.00000000000E+00 0.  1.
        -13    1    3    3    0    0 -0.39003622809E+01  0.26554814435E+03 -0.31765883913E+03  0.41405092425E+03  0.00000000000E+00 0. -1.
          2    1    6    6  502    0  0.13746269051E+01  0.68941038136E+01  0.17354168488E+00  0.70319544394E+01  0.00000000000E+00 0. -1.
          3    1    5    5  503    0 -0.25882100848E+03 -0.21529845702E+03 -0.50548881991E+03  0.60733902154E+03  0.00000000000E+00 0. -1.
         -4    1    5    5    0  503 -0.11887785385E+03 -0.53871271207E+02 -0.13553874740E+03  0.18816165933E+03  0.00000000000E+00 0.  1.
         -3    1    6    6    0  502  0.40664941714E+03 -0.77266982495E+02 -0.15083046548E+03  0.44054938925E+03  0.00000000000E+00 0.  1.
<mgrwt>
<rscale>  0 0.13136226E+04</rscale>
<asrwt>0</asrwt>
<pdfrwt beam="1">  1        2 0.22258467E+00 0.13136226E+04</pdfrwt>
<pdfrwt beam="2">  1       -2 0.45873223E-01 0.13136226E+04</pdfrwt>
<totfact> 0.60020919E+01</totfact>
</mgrwt>
</event>
<event>
12    1  0.1549527E-007  0.1805623E+04  0.7818608E-02  0.8703315E-01
         -2   -1    0    0    0  501 -0.00000000000E+00  0.00000000000E+00  0.10590162728E+04  0.10590162728E+04  0.00000000000E+00 0. -1.
          2   -1    0    0  501    0  0.00000000000E+00 -0.00000000000E+00 -0.76964705398E+03  0.76964705398E+03  0.00000000000E+00 0.  1.
         23    2    1    2    0    0  0.45790805028E+03  0.48929461585E+03  0.27658107941E+02  0.67668404591E+03  0.89706875113E+02 0.  0.
        254    2    1    2    0    0 -0.45790805028E+03 -0.48929461585E+03  0.26171111092E+03  0.11519792809E+04  0.89970803845E+03 0.  0.
        -24    2    4    4    0    0 -0.58435506719E+03  0.16287188628E+02  0.85824102532E+02  0.59628399163E+03  0.80328731091E+02 0.  0.
         24    2    4    4    0    0  0.12644701691E+03 -0.50558180448E+03  0.17588700838E+03  0.55569528927E+03  0.79115141996E+02 0.  0.
         11    1    3    3    0    0  0.45160733453E+03  0.47551377221E+03  0.40187861315E+02  0.65702176247E+03  0.00000000000E+00 0. -1.
        -11    1    3    3    0    0  0.63007157473E+01  0.13780843643E+02 -0.12529753374E+02  0.19662283440E+02  0.00000000000E+00 0.  1.
          2    1    6    6  502    0  0.37291566757E+01 -0.27553759747E+02 -0.81415287891E+01  0.28972414065E+02  0.00000000000E+00 0. -1.
          1    1    5    5  503    0 -0.17971378340E+03  0.25480563796E+02  0.58128706426E+02  0.19059184029E+03  0.00000000000E+00 0. -1.
         -4    1    5    5    0  503 -0.40464128379E+03 -0.91933751677E+01  0.27695396106E+02  0.40569215134E+03  0.00000000000E+00 0.  1.
         -1    1    6    6    0  502  0.12271786024E+03 -0.47802804473E+03  0.18402853717E+03  0.52672287521E+03  0.00000000000E+00 0.  1.
<mgrwt>
<rscale>  0 0.18056232E+04</rscale>
<asrwt>0</asrwt>
<pdfrwt beam="1">  1        2 0.11840724E+00 0.18056232E+04</pdfrwt>
<pdfrwt beam="2">  1       -2 0.16292558E+00 0.18056232E+04</pdfrwt>
<totfact> 0.81967029E+00</totfact>
</mgrwt>
</event>
<event>
12    1  0.1549527E-007  0.2020598E+04  0.7818608E-02  0.8597050E-01
          2   -1    0    0  501    0  0.00000000000E+00  0.00000000000E+00  0.18256517587E+04  0.18256517587E+04  0.00000000000E+00 0. -1.
         -2   -1    0    0    0  501 -0.00000000000E+00 -0.00000000000E+00 -0.55909043510E+03  0.55909043510E+03  0.00000000000E+00 0.  1.
         23    2    1    2    0    0  0.72523136986E+03 -0.33790416088E+03  0.45583696205E+03  0.92551034103E+03  0.92963937166E+02 0.  0.
        254    2    1    2    0    0 -0.72523136986E+03  0.33790416088E+03  0.81072436156E+03  0.14592318528E+04  0.91210955917E+03 0.  0.
        -24    2    4    4    0    0 -0.15864458127E+03  0.11593479030E+03  0.81650186848E+03  0.84432753021E+03  0.87204921146E+02 0.  0.
         24    2    4    4    0    0 -0.56658678859E+03  0.22196937059E+03 -0.57775069141E+01  0.61490432256E+03  0.88221062309E+02 0.  0.
         11    1    3    3    0    0  0.40974166325E+03 -0.16518780518E+03  0.29691937437E+03  0.53229348715E+03  0.00000000000E+00 0.  1.
        -11    1    3    3    0    0  0.31548970661E+03 -0.17271635570E+03  0.15891758768E+03  0.39321685388E+03  0.00000000000E+00 0. -1.
          2    1    6    6  502    0 -0.46782716411E+03  0.17969232277E+03 -0.38435056843E+02  0.50262196524E+03  0.00000000000E+00 0. -1.
          1    1    5    5  503    0 -0.11345785413E+03  0.51623251913E+02  0.62525726133E+03  0.63756120306E+03  0.00000000000E+00 0. -1.
         -2    1    5    5    0  503 -0.45186727145E+02  0.64311538384E+02  0.19124460714E+03  0.20676632715E+03  0.00000000000E+00 0.  1.
         -1    1    6    6    0  502 -0.98759624480E+02  0.42277047814E+02  0.32657549929E+02  0.11228235733E+03  0.00000000000E+00 0.  1.
<mgrwt>
<rscale>  0 0.20205984E+04</rscale>
<asrwt>0</asrwt>
<pdfrwt beam="1">  1        2 0.28086950E+00 0.20205984E+04</pdfrwt>
<pdfrwt beam="2">  1       -2 0.86013914E-01 0.20205984E+04</pdfrwt>
<totfact> 0.90824736E+00</totfact>
</mgrwt>
</event>
<event>
12    1  0.1549527E-007  0.1713588E+04  0.7818608E-02  0.8753652E-01
         -2   -1    0    0    0  501 -0.00000000000E+00  0.00000000000E+00  0.43501469890E+03  0.43501469890E+03  0.00000000000E+00 0.  1.
          2   -1    0    0  501    0  0.00000000000E+00 -0.00000000000E+00 -0.16875203513E+04  0.16875203513E+04  0.00000000000E+00 0. -1.
         23    2    1    2    0    0  0.24303325563E+03 -0.48145597233E+03 -0.91602021398E+02  0.55462620422E+03  0.91401747498E+02 0.  0.
        254    2    1    2    0    0 -0.24303325563E+03  0.48145597233E+03 -0.11609036310E+04  0.15679088460E+04  0.90541476254E+03 0.  0.
        -24    2    4    4    0    0 -0.22623594114E+03 -0.21609098121E+03 -0.20602225448E+03  0.38254076440E+03  0.77551620620E+02 0.  0.
         24    2    4    4    0    0 -0.16797314489E+02  0.69754695354E+03 -0.95488137656E+03  0.11853680816E+04  0.80281650778E+02 0.  0.
         13    1    3    3    0    0  0.18265291321E+03 -0.27371430171E+03 -0.76010354867E+02  0.33772648654E+03  0.00000000000E+00 0. -1.
        -13    1    3    3    0    0  0.60380342422E+02 -0.20774167062E+03 -0.15591666531E+02  0.21689971768E+03  0.00000000000E+00 0.  1.
          4    1    6    6  502    0 -0.11626115581E+02  0.15444915522E+02 -0.17549870010E+02  0.26109575185E+02  0.00000000000E+00 0. -1.
          3    1    5    5  503    0 -0.35378164016E+02 -0.78545616631E+01 -0.67695828947E+01  0.36866460104E+02  0.00000000000E+00 0. -1.
         -4    1    5    5    0  503 -0.19085777712E+03 -0.20823641955E+03 -0.19925267158E+03  0.34567430429E+03  0.00000000000E+00 0.  1.
         -3    1    6    6    0  502 -0.51711989079E+01  0.68210203802E+03 -0.93733150655E+03  0.11592585064E+04  0.00000000000E+00 0.  1.
<mgrwt>
<rscale>  0 0.17135882E+04</rscale>
<asrwt>0</asrwt>
<pdfrwt beam="1">  1        2 0.25961852E+00 0.17135882E+04</pdfrwt>
<pdfrwt beam="2">  1       -2 0.66925337E-01 0.17135882E+04</pdfrwt>
<totfact> 0.19414056E+01</totfact>
</mgrwt>
</event>
<event>
12    1  0.1549527E-007  0.1176773E+04  0.7818608E-02  0.9133433E-01
         -1   -1    0    0    0  501 -0.00000000000E+00  0.00000000000E+00  0.35568367883E+03  0.35568367883E+03  0.00000000000E+00 0.  1.
          1   -1    0    0  501    0  0.00000000000E+00 -0.00000000000E+00 -0.97333332318E+03  0.97333332318E+03  0.00000000000E+00 0. -1.
         23    2    1    2    0    0  0.53813864896E+02  0.18451864975E+03  0.10360170357E+01  0.21406030940E+03  0.94221433699E+02 0.  0.
        254    2    1    2    0    0 -0.53813864896E+02 -0.18451864975E+03 -0.61868566139E+03  0.11149566926E+04  0.90742129941E+03 0.  0.
        -24    2    4    4    0    0  0.39267505324E+03 -0.10000943776E+03 -0.47982179301E+03  0.63340810257E+03  0.82348565727E+02 0.  0.
         24    2    4    4    0    0 -0.44648891814E+03 -0.84509211989E+02 -0.13886386839E+03  0.48154859004E+03  0.78177424476E+02 0.  0.
         11    1    3    3    0    0  0.52813453381E+02  0.45317688175E+02 -0.21949604573E+02  0.72970808276E+02  0.00000000000E+00 0. -1.
        -11    1    3    3    0    0  0.10004115152E+01  0.13920096158E+03  0.22985621608E+02  0.14108950113E+03  0.00000000000E+00 0.  1.
          4    1    6    6  502    0 -0.12215087534E+02 -0.16881737588E+02 -0.12228328241E+02  0.24160576132E+02  0.00000000000E+00 0. -1.
          3    1    5    5  503    0  0.33321126178E+02  0.11627969199E+02 -0.25790367099E+02  0.43710984347E+02  0.00000000000E+00 0. -1.
         -4    1    5    5    0  503  0.35935392706E+03 -0.11163740696E+03 -0.45403142591E+03  0.58969711822E+03  0.00000000000E+00 0.  1.
         -3    1    6    6    0  502 -0.43427383060E+03 -0.67627474402E+02 -0.12663554014E+03  0.45738801391E+03  0.00000000000E+00 0.  1.
<mgrwt>
<rscale>  0 0.11767732E+04</rscale>
<asrwt>0</asrwt>
<pdfrwt beam="1">  1        1 0.14974359E+00 0.11767732E+04</pdfrwt>
<pdfrwt beam="2">  1       -1 0.54720566E-01 0.11767732E+04</pdfrwt>
<totfact> 0.53114063E+01</totfact>
</mgrwt>
</event>
<event>
12    1  0.1549527E-007  0.1236365E+04  0.7818608E-02  0.9081608E-01
         -2   -1    0    0    0  501 -0.00000000000E+00  0.00000000000E+00  0.13930329502E+03  0.13930329502E+03  0.00000000000E+00 0.  1.
          2   -1    0    0  501    0  0.00000000000E+00 -0.00000000000E+00 -0.27432929906E+04  0.27432929906E+04  0.00000000000E+00 0. -1.
         23    2    1    2    0    0  0.23804743149E+03  0.30642489672E+02 -0.91774108014E+03  0.95313884163E+03  0.92840828527E+02 0.  0.
        254    2    1    2    0    0 -0.23804743149E+03 -0.30642489672E+02 -0.16862486155E+04  0.19294574440E+04  0.90651315119E+03 0.  0.
        -24    2    4    4    0    0 -0.23872771130E+03 -0.44690010071E+03 -0.89187044402E+03  0.10291243480E+04  0.83387136862E+02 0.  0.
         24    2    4    4    0    0  0.68027980970E+00  0.41625761104E+03 -0.79437817146E+03  0.90033309601E+03  0.79323029202E+02 0.  0.
         13    1    3    3    0    0  0.11255446128E+03 -0.14760989183E+02 -0.29123541562E+03  0.31257712787E+03  0.00000000000E+00 0.  1.
        -13    1    3    3    0    0  0.12549297021E+03  0.45403478856E+02 -0.62650566452E+03  0.64056171376E+03  0.00000000000E+00 0. -1.
          2    1    6    6  502    0  0.32114159086E+02  0.11769284094E+03 -0.19597860144E+03  0.23084743067E+03  0.00000000000E+00 0. -1.
          1    1    5    5  503    0 -0.17942599594E+03 -0.24935988310E+03 -0.53898869921E+03  0.62038927875E+03  0.00000000000E+00 0. -1.
         -2    1    5    5    0  503 -0.59301715357E+02 -0.19754021761E+03 -0.35288174481E+03  0.40873506926E+03  0.00000000000E+00 0.  1.
         -1    1    6    6    0  502 -0.31433879276E+02  0.29856477009E+03 -0.59839957002E+03  0.66948566535E+03  0.00000000000E+00 0.  1.
<mgrwt>
<rscale>  0 0.12363652E+04</rscale>
<asrwt>0</asrwt>
<pdfrwt beam="1">  1        2 0.42204506E+00 0.12363652E+04</pdfrwt>
<pdfrwt beam="2">  1       -2 0.21431277E-01 0.12363652E+04</pdfrwt>
<totfact> 0.47010559E+01</totfact>
</mgrwt>
</event>
<event>
12    1  0.1549527E-007  0.1137234E+04  0.7818608E-02  0.9169642E-01
         -2   -1    0    0    0  501 -0.00000000000E+00  0.00000000000E+00  0.15223435460E+04  0.15223435460E+04  0.00000000000E+00 0.  1.
          2   -1    0    0  501    0  0.00000000000E+00 -0.00000000000E+00 -0.21238658434E+03  0.21238658434E+03  0.00000000000E+00 0. -1.
         23    2    1    2    0    0 -0.10535865298E+03  0.67195804245E+01  0.49324741393E+03  0.51184056728E+03  0.86845589648E+02 0.  0.
        254    2    1    2    0    0  0.10535865298E+03 -0.67195804245E+01  0.81670954768E+03  0.12228895630E+04  0.90404579505E+03 0.  0.
        -24    2    4    4    0    0  0.25351494612E+03  0.39324948346E+03  0.45125649884E+03  0.65585295351E+03  0.87153225636E+02 0.  0.
         24    2    4    4    0    0 -0.14815629314E+03 -0.39996906388E+03  0.36545304884E+03  0.56703660950E+03  0.77775615384E+02 0.  0.
         11    1    3    3    0    0 -0.10823625382E+03  0.28118436685E+02  0.36363458939E+03  0.38044164825E+03  0.00000000000E+00 0.  1.
        -11    1    3    3    0    0  0.28776008391E+01 -0.21398856260E+02  0.12961282454E+03  0.13139891902E+03  0.00000000000E+00 0. -1.
          2    1    6    6  502    0 -0.64344509507E+02 -0.79309042162E+02  0.86292272066E+02  0.13370301526E+03  0.00000000000E+00 0. -1.
          3    1    5    5  503    0  0.12280169160E+03  0.11515565508E+03  0.17096566016E+03  0.23993819478E+03  0.00000000000E+00 0. -1.
         -4    1    5    5    0  503  0.13071325451E+03  0.27809382838E+03  0.28029083868E+03  0.41591475874E+03  0.00000000000E+00 0.  1.
         -1    1    6    6    0  502 -0.83811783630E+02 -0.32066002172E+03  0.27916077677E+03  0.43333359424E+03  0.00000000000E+00 0.  1.
<mgrwt>
<rscale>  0 0.11372341E+04</rscale>
<asrwt>0</asrwt>
<pdfrwt beam="1">  1        2 0.32674860E-01 0.11372341E+04</pdfrwt>
<pdfrwt beam="2">  1       -2 0.23420669E+00 0.11372341E+04</pdfrwt>
<totfact> 0.12917348E+01</totfact>
</mgrwt>
</event>
<event>
12    1  0.1549527E-007  0.1727307E+04  0.7818608E-02  0.8745941E-01
          1   -1    0    0  501    0  0.00000000000E+00  0.00000000000E+00  0.37189443529E+03  0.37189443529E+03  0.00000000000E+00 0. -1.
         -1   -1    0    0    0  501 -0.00000000000E+00 -0.00000000000E+00 -0.20056707532E+04  0.20056707532E+04  0.00000000000E+00 0.  1.
         23    2    1    2    0    0 -0.20527830859E+03 -0.18639004782E+03 -0.13803599449E+04  0.14109296769E+04  0.91915948923E+02 0.  0.
        254    2    1    2    0    0  0.20527830859E+03  0.18639004782E+03 -0.25341637297E+03  0.96663551159E+03  0.89066487540E+03 0.  0.
        -24    2    4    4    0    0  0.38836545095E+03  0.63263964287E+02 -0.49032005843E+03  0.63317026105E+03  0.75238069598E+02 0.  0.
         24    2    4    4    0    0 -0.18308714236E+03  0.12312608354E+03  0.23690368545E+03  0.33346525054E+03  0.79967387054E+02 0.  0.
         13    1    3    3    0    0  0.92487778117E+01 -0.95306950744E+01 -0.88405565733E+02  0.89397528446E+02  0.00000000000E+00 0. -1.
        -13    1    3    3    0    0 -0.21452708640E+03 -0.17685935275E+03 -0.12919543792E+04  0.13215321485E+04  0.00000000000E+00 0.  1.
          4    1    6    6  502    0 -0.15304912434E+03  0.79175711040E+02  0.21590542614E+03  0.27623899203E+03  0.00000000000E+00 0. -1.
          3    1    5    5  503    0  0.20819638441E+03  0.55733135125E+02 -0.21797799682E+03  0.30653926980E+03  0.00000000000E+00 0. -1.
         -4    1    5    5    0  503  0.18016906654E+03  0.75308291612E+01 -0.27234206161E+03  0.32663099126E+03  0.00000000000E+00 0.  1.
         -3    1    6    6    0  502 -0.30038018022E+02  0.43950372496E+02  0.20998259312E+02  0.57226258512E+02  0.00000000000E+00 0.  1.
<mgrwt>
<rscale>  0 0.17273075E+04</rscale>
<asrwt>0</asrwt>
<pdfrwt beam="1">  1        1 0.57214528E-01 0.17273075E+04</pdfrwt>
<pdfrwt beam="2">  1       -1 0.30856473E+00 0.17273075E+04</pdfrwt>
<totfact> 0.18264565E+00</totfact>
</mgrwt>
</event>
<event>
12    1  0.1549527E-007  0.1228315E+04  0.7818608E-02  0.9088427E-01
          2   -1    0    0  501    0  0.00000000000E+00  0.00000000000E+00  0.22268871744E+04  0.22268871744E+04  0.00000000000E+00 0. -1.
         -2   -1    0    0    0  501 -0.00000000000E+00 -0.00000000000E+00 -0.16937967212E+03  0.16937967212E+03  0.00000000000E+00 0.  1.
         23    2    1    2    0    0  0.13504015934E+03 -0.18151095305E+02  0.92188097731E+03  0.93942729864E+03  0.11871733747E+03 0.  0.
        254    2    1    2    0    0 -0.13504015934E+03  0.18151095305E+02  0.11356265250E+04  0.14568395479E+04  0.90231289315E+03 0.  0.
        -24    2    4    4    0    0 -0.86678050147E+02  0.33663229258E+03  0.10168010636E+03  0.37090855981E+03  0.79999568291E+02 0.  0.
         24    2    4    4    0    0 -0.48362109189E+02 -0.31848119728E+03  0.10339464186E+04  0.10859309880E+04  0.80198177418E+02 0.  0.
         11    1    3    3    0    0  0.11597751476E+03  0.37320965470E+02  0.59979162797E+03  0.61204055044E+03  0.00000000000E+00 0.  1.
        -11    1    3    3    0    0  0.19062644579E+02 -0.55472060776E+02  0.32208934934E+03  0.32738674821E+03  0.00000000000E+00 0. -1.
          4    1    6    6  502    0 -0.61434637291E+02 -0.18687470021E+03  0.68786215096E+03  0.71543742351E+03  0.00000000000E+00 0. -1.
          3    1    5    5  503    0 -0.48403554820E+02  0.21781878574E+03  0.25284500861E+02  0.22456008889E+03  0.00000000000E+00 0. -1.
         -4    1    5    5    0  503 -0.38274495327E+02  0.11881350685E+03  0.76395605502E+02  0.14634847092E+03  0.00000000000E+00 0.  1.
         -3    1    6    6    0  502  0.13072528102E+02 -0.13160649706E+03  0.34608426763E+03  0.37049356453E+03  0.00000000000E+00 0.  1.
<mgrwt>
<rscale>  0 0.12283150E+04</rscale>
<asrwt>0</asrwt>
<pdfrwt beam="1">  1        2 0.34259801E+00 0.12283150E+04</pdfrwt>
<pdfrwt beam="2">  1       -2 0.26058413E-01 0.12283150E+04</pdfrwt>
<totfact> 0.65528226E+01</totfact>
</mgrwt>
</event>
<event>
12    1  0.1549527E-007  0.1243646E+04  0.7818608E-02  0.9075488E-01
          1   -1    0    0  501    0  0.00000000000E+00  0.00000000000E+00  0.15412376643E+04  0.15412376643E+04  0.00000000000E+00 0. -1.
         -1   -1    0    0    0  501 -0.00000000000E+00 -0.00000000000E+00 -0.25087876107E+03  0.25087876107E+03  0.00000000000E+00 0.  1.
         23    2    1    2    0    0  0.15926396456E+03  0.11620102410E+03  0.59995576866E+03  0.63829570410E+03  0.92772803726E+02 0.  0.
        254    2    1    2    0    0 -0.15926396456E+03 -0.11620102410E+03  0.69040313455E+03  0.11538207213E+04  0.90320434022E+03 0.  0.
        -24    2    4    4    0    0 -0.26567609452E+03  0.34593534081E+03  0.33456578128E+03  0.55560462037E+03  0.80667124349E+02 0.  0.
         24    2    4    4    0    0  0.10641212996E+03 -0.46213636491E+03  0.35583735327E+03  0.59821610089E+03  0.79678856750E+02 0.  0.
         11    1    3    3    0    0  0.82664339919E+02  0.85918538375E+02  0.46626753165E+03  0.48126998597E+03  0.00000000000E+00 0. -1.
        -11    1    3    3    0    0  0.76599624639E+02  0.30282485724E+02  0.13368823702E+03  0.15702571813E+03  0.00000000000E+00 0.  1.
          4    1    6    6  502    0 -0.12381479534E+02 -0.64360367151E+02  0.42698475015E+02  0.78222232542E+02  0.00000000000E+00 0. -1.
          3    1    5    5  503    0 -0.88347326602E+02  0.14531859401E+03  0.17443868576E+03  0.24362183599E+03  0.00000000000E+00 0. -1.
         -4    1    5    5    0  503 -0.17732876792E+03  0.20061674680E+03  0.16012709553E+03  0.31198278438E+03  0.00000000000E+00 0.  1.
         -3    1    6    6    0  502  0.11879360950E+03 -0.39777599775E+03  0.31313887826E+03  0.51999386835E+03  0.00000000000E+00 0.  1.
<mgrwt>
<rscale>  0 0.12436459E+04</rscale>
<asrwt>0</asrwt>
<pdfrwt beam="1">  1        1 0.23711348E+00 0.12436459E+04</pdfrwt>
<pdfrwt beam="2">  1       -1 0.38596734E-01 0.12436459E+04</pdfrwt>
<totfact> 0.39287356E+01</totfact>
</mgrwt>
</event>
<event>
12    1  0.1549527E-007  0.1437958E+04  0.7818608E-02  0.8926792E-01
         -1   -1    0    0    0  501 -0.00000000000E+00  0.00000000000E+00  0.15035861497E+03  0.15035861497E+03  0.00000000000E+00 0.  1.
          1   -1    0    0  501    0  0.00000000000E+00 -0.00000000000E+00 -0.34379866972E+04  0.34379866972E+04  0.00000000000E+00 0. -1.
         23    2    1    2    0    0  0.22812499577E+03  0.32064717817E+03 -0.15559757595E+04  0.16073976838E+04  0.88380558553E+02 0.  0.
        254    2    1    2    0    0 -0.22812499577E+03 -0.32064717817E+03 -0.17316523227E+04  0.19809476283E+04  0.87788274445E+03 0.  0.
        -24    2    4    4    0    0 -0.54858438786E+02 -0.59445062887E+02  0.81928342869E+02  0.13875041931E+03  0.77435532452E+02 0.  0.
         24    2    4    4    0    0 -0.17326655698E+03 -0.26120211528E+03 -0.18135806656E+04  0.18421972090E+04  0.79799008021E+02 0.  0.
         11    1    3    3    0    0  0.36884534408E+02  0.10096043835E+03 -0.53486874494E+03  0.54556214431E+03  0.00000000000E+00 0.  1.
        -11    1    3    3    0    0  0.19124046136E+03  0.21968673982E+03 -0.10211070146E+04  0.10618355395E+04  0.00000000000E+00 0. -1.
          2    1    6    6  502    0  0.18851597207E+01 -0.18423916699E+02 -0.21730139564E+03  0.21808918148E+03  0.00000000000E+00 0. -1.
          1    1    5    5  503    0 -0.46660921848E+02 -0.20598252923E+02  0.38410406678E+01  0.51149616270E+02  0.00000000000E+00 0. -1.
         -2    1    5    5    0  503 -0.81975169384E+01 -0.38846809964E+02  0.78087302202E+02  0.87600803041E+02  0.00000000000E+00 0.  1.
         -1    1    6    6    0  502 -0.17515171670E+03 -0.24277819859E+03 -0.15962792699E+04  0.16241080276E+04  0.00000000000E+00 0.  1.
<mgrwt>
<rscale>  0 0.14379582E+04</rscale>
<asrwt>0</asrwt>
<pdfrwt beam="1">  1        1 0.52892100E+00 0.14379582E+04</pdfrwt>
<pdfrwt beam="2">  1       -1 0.23132096E-01 0.14379582E+04</pdfrwt>
<totfact> 0.44015902E+00</totfact>
</mgrwt>
</event>
<event>
12    1  0.1549527E-007  0.2275439E+04  0.7818608E-02  0.8487669E-01
         -1   -1    0    0    0  501 -0.00000000000E+00  0.00000000000E+00  0.57197293529E+03  0.57197293529E+03  0.00000000000E+00 0.  1.
          1   -1    0    0  501    0  0.00000000000E+00 -0.00000000000E+00 -0.22630531251E+04  0.22630531251E+04  0.00000000000E+00 0. -1.
         23    2    1    2    0    0 -0.93732317871E+03  0.18681305152E+03 -0.68264994077E+03  0.11779555817E+04  0.89969734998E+02 0.  0.
        254    2    1    2    0    0  0.93732317871E+03 -0.18681305152E+03 -0.10084302491E+04  0.16570704788E+04  0.90303773272E+03 0.  0.
        -24    2    4    4    0    0  0.14980016140E+03 -0.36064514380E+03 -0.67017588403E+03  0.77898302055E+03  0.71929289412E+02 0.  0.
         24    2    4    4    0    0  0.78752301731E+03  0.17383209228E+03 -0.33825436505E+03  0.87808745820E+03  0.78812877559E+02 0.  0.
         11    1    3    3    0    0 -0.30777294020E+03  0.26154336354E+02 -0.19085487835E+03  0.36308926811E+03  0.00000000000E+00 0. -1.
        -11    1    3    3    0    0 -0.62955023852E+03  0.16065871517E+03 -0.49179506242E+03  0.81486631358E+03  0.00000000000E+00 0.  1.
          2    1    6    6  502    0  0.41685912894E+03  0.76442063315E+02 -0.21689607062E+03  0.47608699612E+03  0.00000000000E+00 0. -1.
          1    1    5    5  503    0  0.85265188768E+02 -0.22208704276E+03 -0.47344873065E+03  0.52985517600E+03  0.00000000000E+00 0. -1.
         -2    1    5    5    0  503  0.64534972634E+02 -0.13855810104E+03 -0.19672715338E+03  0.24912784456E+03  0.00000000000E+00 0.  1.
         -1    1    6    6    0  502  0.37066388837E+03  0.97390028960E+02 -0.12135829443E+03  0.40200046208E+03  0.00000000000E+00 0.  1.
<mgrwt>
<rscale>  0 0.22754385E+04</rscale>
<asrwt>0</asrwt>
<pdfrwt beam="1">  1        1 0.34816202E+00 0.22754385E+04</pdfrwt>
<pdfrwt beam="2">  1       -1 0.87995836E-01 0.22754385E+04</pdfrwt>
<totfact> 0.22679006E+00</totfact>
</mgrwt>
</event>
<event>
12    1  0.1549527E-007  0.1735260E+04  0.7818608E-02  0.8741506E-01
          2   -1    0    0  501    0  0.00000000000E+00  0.00000000000E+00  0.10746742763E+04  0.10746742763E+04  0.00000000000E+00 0. -1.
         -2   -1    0    0    0  501 -0.00000000000E+00 -0.00000000000E+00 -0.70047446791E+03  0.70047446791E+03  0.00000000000E+00 0.  1.
         23    2    1    2    0    0  0.33690265173E+02 -0.55745826105E+03 -0.17379129664E+03  0.59199653762E+03  0.91442544769E+02 0.  0.
        254    2    1    2    0    0 -0.33690265173E+02  0.55745826105E+03  0.54799110500E+03  0.11831522066E+04  0.88750219490E+03 0.  0.
        -24    2    4    4    0    0  0.31250550451E+03  0.25930302719E+03 -0.60497326981E+02  0.41829684215E+03  0.80091019005E+02 0.  0.
         24    2    4    4    0    0 -0.34619576968E+03  0.29815523385E+03  0.60848843198E+03  0.76485536440E+03  0.77443541940E+02 0.  0.
         11    1    3    3    0    0  0.64984219265E+02 -0.40643583045E+03 -0.12188529771E+03  0.42926572053E+03  0.00000000000E+00 0.  1.
        -11    1    3    3    0    0 -0.31293954091E+02 -0.15102243060E+03 -0.51905998929E+02  0.16273081709E+03  0.00000000000E+00 0. -1.
          4    1    6    6  502    0 -0.30216893371E+03  0.28929820900E+03  0.54322045725E+03  0.68562962553E+03  0.00000000000E+00 0. -1.
          1    1    5    5  503    0  0.29008292265E+03  0.26149706889E+03 -0.63112195627E+02  0.39561593534E+03  0.00000000000E+00 0. -1.
         -2    1    5    5    0  503  0.22422581855E+02 -0.21940417023E+01  0.26148686453E+01  0.22680906817E+02  0.00000000000E+00 0.  1.
         -3    1    6    6    0  502 -0.44026835970E+02  0.88570248494E+01  0.65267974732E+02  0.79225738875E+02  0.00000000000E+00 0.  1.
<mgrwt>
<rscale>  0 0.17352601E+04</rscale>
<asrwt>0</asrwt>
<pdfrwt beam="1">  1        2 0.16533450E+00 0.17352601E+04</pdfrwt>
<pdfrwt beam="2">  1       -2 0.10776530E+00 0.17352601E+04</pdfrwt>
<totfact> 0.14802936E+01</totfact>
</mgrwt>
</event>
<event>
12    1  0.1549527E-007  0.1983057E+04  0.7818608E-02  0.8614583E-01
          2   -1    0    0  501    0  0.00000000000E+00  0.00000000000E+00  0.99817142491E+03  0.99817142491E+03  0.00000000000E+00 0. -1.
         -2   -1    0    0    0  501 -0.00000000000E+00 -0.00000000000E+00 -0.98493000373E+03  0.98493000373E+03  0.00000000000E+00 0.  1.
         23    2    1    2    0    0 -0.45017496182E+01 -0.18328175995E+03 -0.74191214272E+03  0.76979006377E+03  0.92361493508E+02 0.  0.
        254    2    1    2    0    0  0.45017496182E+01  0.18328175995E+03  0.75515356390E+03  0.12133113649E+04  0.93180206792E+03 0.  0.
        -24    2    4    4    0    0 -0.26167973885E+03 -0.28639326783E+03  0.24042353788E+03  0.46331850838E+03  0.79769499565E+02 0.  0.
         24    2    4    4    0    0  0.26618148847E+03  0.46967502778E+03  0.51473002602E+03  0.74999285649E+03  0.78070920213E+02 0.  0.
         13    1    3    3    0    0 -0.31669356301E+02 -0.20837911618E+02 -0.96099864575E+02  0.10330706975E+03  0.00000000000E+00 0. -1.
        -13    1    3    3    0    0  0.27167606683E+02 -0.16244384833E+03 -0.64581227814E+03  0.66648299402E+03  0.00000000000E+00 0.  1.
          2    1    6    6  502    0  0.28050673585E+02  0.72328150344E+02  0.42373766066E+02  0.88395348697E+02  0.00000000000E+00 0. -1.
          1    1    5    5  503    0 -0.79688395854E+02 -0.10467944716E+03  0.40750625234E+02  0.13772668786E+03  0.00000000000E+00 0. -1.
         -4    1    5    5    0  503 -0.18199134299E+03 -0.18171382067E+03  0.19967291264E+03  0.32559182052E+03  0.00000000000E+00 0.  1.
         -1    1    6    6    0  502  0.23813081488E+03  0.39734687743E+03  0.47235625996E+03  0.66159750780E+03  0.00000000000E+00 0.  1.
<mgrwt>
<rscale>  0 0.19830572E+04</rscale>
<asrwt>0</asrwt>
<pdfrwt beam="1">  1        2 0.15356483E+00 0.19830572E+04</pdfrwt>
<pdfrwt beam="2">  1       -2 0.15152769E+00 0.19830572E+04</pdfrwt>
<totfact> 0.68523152E+00</totfact>
</mgrwt>
</event>
<event>
12    1  0.1549527E-007  0.1660955E+04  0.7818608E-02  0.8783952E-01
         -2   -1    0    0    0  501 -0.00000000000E+00  0.00000000000E+00  0.22773648999E+03  0.22773648999E+03  0.00000000000E+00 0. -1.
          2   -1    0    0  501    0  0.00000000000E+00 -0.00000000000E+00 -0.30284697355E+04  0.30284697355E+04  0.00000000000E+00 0.  1.
         23    2    1    2    0    0 -0.41006927174E+03 -0.10716932195E+03 -0.17565171708E+04  0.18093633069E+04  0.93813291327E+02 0.  0.
        254    2    1    2    0    0  0.41006927174E+03  0.10716932195E+03 -0.10442160747E+04  0.14468429186E+04  0.90737266289E+03 0.  0.
        -24    2    4    4    0    0  0.12385639992E+03 -0.60976167861E+02 -0.10904631244E+04  0.11023988301E+04  0.84349594543E+02 0.  0.
         24    2    4    4    0    0  0.28621287182E+03  0.16814548981E+03  0.46247049704E+02  0.34444408853E+03  0.79449523427E+02 0.  0.
         11    1    3    3    0    0 -0.36610402387E+03 -0.81390333329E+02 -0.14060163257E+04  0.14551764329E+04  0.00000000000E+00 0.  1.
        -11    1    3    3    0    0 -0.43965247870E+02 -0.25778988623E+02 -0.35050084511E+03  0.35418687398E+03  0.00000000000E+00 0. -1.
          2    1    6    6  502    0  0.14716984252E+03  0.13001952417E+03  0.15207430311E+02  0.19696523843E+03  0.00000000000E+00 0. -1.
          1    1    5    5  503    0  0.13324718714E+03 -0.56552663964E+02 -0.10665753675E+04  0.10763531164E+04  0.00000000000E+00 0. -1.
         -2    1    5    5    0  503 -0.93907872280E+01 -0.44235038968E+01 -0.23887756909E+02  0.26045713690E+02  0.00000000000E+00 0.  1.
         -1    1    6    6    0  502  0.13904302930E+03  0.38125965641E+02  0.31039619393E+02  0.14747885009E+03  0.00000000000E+00 0.  1.
<mgrwt>
<rscale>  0 0.16609552E+04</rscale>
<asrwt>0</asrwt>
<pdfrwt beam="1">  1        2 0.46591847E+00 0.16609552E+04</pdfrwt>
<pdfrwt beam="2">  1       -2 0.35036380E-01 0.16609552E+04</pdfrwt>
<totfact> 0.12259908E+01</totfact>
</mgrwt>
</event>
<event>
12    1  0.1549527E-007  0.1332505E+04  0.7818608E-02  0.9004179E-01
         -2   -1    0    0    0  501 -0.00000000000E+00  0.00000000000E+00  0.31200322424E+03  0.31200322424E+03  0.00000000000E+00 0.  1.
          2   -1    0    0  501    0  0.00000000000E+00 -0.00000000000E+00 -0.14227166418E+04  0.14227166418E+04  0.00000000000E+00 0. -1.
         23    2    1    2    0    0 -0.35238739245E+02 -0.45878406057E+01  0.15039931368E+03  0.18036036288E+03  0.92989730168E+02 0.  0.
        254    2    1    2    0    0  0.35238739245E+02  0.45878406057E+01 -0.12611127312E+04  0.15543595031E+04  0.90794566307E+03 0.  0.
        -24    2    4    4    0    0  0.33200144102E+02 -0.29214973890E+03 -0.12049142806E+04  0.12427573915E+04  0.78573474598E+02 0.  0.
         24    2    4    4    0    0  0.20385951438E+01  0.29673757951E+03 -0.56198450588E+02  0.31160211164E+03  0.76682874032E+02 0.  0.
         13    1    3    3    0    0 -0.63509827587E+02 -0.16127402446E+02  0.12285647501E+03  0.13923830207E+03  0.00000000000E+00 0.  1.
        -13    1    3    3    0    0  0.28271088342E+02  0.11539561840E+02  0.27542838670E+02  0.41122060813E+02  0.00000000000E+00 0. -1.
          4    1    6    6  502    0 -0.69695613537E+01  0.27787920882E+03 -0.69888686126E+02  0.28661796512E+03  0.00000000000E+00 0. -1.
          1    1    5    5  503    0  0.58303529450E+02 -0.20163174894E+03 -0.86520958438E+03  0.89030460440E+03  0.00000000000E+00 0. -1.
         -2    1    5    5    0  503 -0.25103385348E+02 -0.90517989958E+02 -0.33970469624E+03  0.35245278706E+03  0.00000000000E+00 0.  1.
         -3    1    6    6    0  502  0.90081564975E+01  0.18858370683E+02  0.13690235538E+02  0.24984146521E+02  0.00000000000E+00 0.  1.
<mgrwt>
<rscale>  0 0.13325047E+04</rscale>
<asrwt>0</asrwt>
<pdfrwt beam="1">  1        2 0.21887948E+00 0.13325047E+04</pdfrwt>
<pdfrwt beam="2">  1       -2 0.48000497E-01 0.13325047E+04</pdfrwt>
<totfact> 0.56460131E+01</totfact>
</mgrwt>
</event>
<event>
12    1  0.1549527E-007  0.3219623E+04  0.7818608E-02  0.8183654E-01
          2   -1    0    0  501    0  0.00000000000E+00  0.00000000000E+00  0.31744642770E+04  0.31744642770E+04  0.00000000000E+00 0. -1.
         -2   -1    0    0    0  501 -0.00000000000E+00 -0.00000000000E+00 -0.81635591778E+03  0.81635591778E+03  0.00000000000E+00 0.  1.
         23    2    1    2    0    0  0.94184383811E+03  0.56319009570E+02 -0.32959690571E+03  0.10035538727E+04  0.90799828797E+02 0.  0.
        254    2    1    2    0    0 -0.94184383811E+03 -0.56319009570E+02  0.26877052650E+04  0.29872663221E+04  0.89986601324E+03 0.  0.
        -24    2    4    4    0    0 -0.33584464547E+03  0.24021945646E+03  0.33147324192E+03  0.53502523130E+03  0.76684254311E+02 0.  0.
         24    2    4    4    0    0 -0.60599919263E+03 -0.29653846603E+03  0.23562320231E+04  0.24522410908E+04  0.80541528711E+02 0.  0.
         13    1    3    3    0    0  0.81550204125E+03  0.64972414838E+02 -0.25660440020E+03  0.85738603451E+03  0.00000000000E+00 0.  1.
        -13    1    3    3    0    0  0.12634179686E+03 -0.86534052685E+01 -0.72992505514E+02  0.14616783818E+03  0.00000000000E+00 0. -1.
          2    1    6    6  502    0 -0.14343963985E+03 -0.83918288062E+02  0.46993566416E+03  0.49845434876E+03  0.00000000000E+00 0. -1.
          3    1    5    5  503    0 -0.24168733497E+02  0.17345958800E+01  0.37640877980E+02  0.44765748032E+02  0.00000000000E+00 0. -1.
         -4    1    5    5    0  503 -0.31167591198E+03  0.23848486058E+03  0.29383236394E+03  0.49025948327E+03  0.00000000000E+00 0.  1.
         -3    1    6    6    0  502 -0.46255955278E+03 -0.21262017797E+03  0.18862963589E+04  0.19537867421E+04  0.00000000000E+00 0.  1.
<mgrwt>
<rscale>  0 0.32196228E+04</rscale>
<asrwt>0</asrwt>
<pdfrwt beam="1">  1        2 0.48837911E+00 0.32196228E+04</pdfrwt>
<pdfrwt beam="2">  1       -2 0.12559322E+00 0.32196228E+04</pdfrwt>
<totfact> 0.53620864E-01</totfact>
</mgrwt>
</event>
<event>
12    1  0.1549527E-007  0.1435924E+04  0.7818608E-02  0.8928218E-01
         -2   -1    0    0    0  501 -0.00000000000E+00  0.00000000000E+00  0.16444020584E+03  0.16444020584E+03  0.00000000000E+00 0.  1.
          2   -1    0    0  501    0  0.00000000000E+00 -0.00000000000E+00 -0.31346903932E+04  0.31346903932E+04  0.00000000000E+00 0. -1.
         23    2    1    2    0    0  0.44511151639E+02  0.10717721344E+03 -0.17761974382E+04  0.17822956751E+04  0.90732223582E+02 0.  0.
        254    2    1    2    0    0 -0.44511151639E+02 -0.10717721344E+03 -0.11940527491E+04  0.15168349239E+04  0.92820149800E+03 0.  0.
        -24    2    4    4    0    0 -0.23334963100E+03 -0.13822459689E+03 -0.12651351055E+04  0.12966605172E+04  0.84873859821E+02 0.  0.
         24    2    4    4    0    0  0.18883847936E+03  0.31047383450E+02  0.71082356420E+02  0.22017440669E+03  0.82463062394E+02 0.  0.
         13    1    3    3    0    0  0.70112657673E+02  0.95645868572E+02 -0.14969200630E+04  0.15016103329E+04  0.00000000000E+00 0. -1.
        -13    1    3    3    0    0 -0.25601506034E+02  0.11531344869E+02 -0.27927737521E+03  0.28068534221E+03  0.00000000000E+00 0.  1.
          2    1    6    6  502    0  0.17001806381E+03  0.53852814444E+02  0.55668285992E+02  0.18682940269E+03  0.00000000000E+00 0. -1.
          1    1    5    5  503    0 -0.11507424288E+03 -0.90559894634E+02 -0.84518204274E+03  0.85777378210E+03  0.00000000000E+00 0. -1.
         -2    1    5    5    0  503 -0.11827538812E+03 -0.47664702257E+02 -0.41995306279E+03  0.43888673507E+03  0.00000000000E+00 0.  1.
         -1    1    6    6    0  502  0.18820415555E+02 -0.22805430994E+02  0.15414070429E+02  0.33345003998E+02  0.00000000000E+00 0.  1.
<mgrwt>
<rscale>  0 0.14359236E+04</rscale>
<asrwt>0</asrwt>
<pdfrwt beam="1">  1        2 0.48226000E+00 0.14359236E+04</pdfrwt>
<pdfrwt beam="2">  1       -2 0.25298497E-01 0.14359236E+04</pdfrwt>
<totfact> 0.19686308E+01</totfact>
</mgrwt>
</event>
<event>
12    1  0.1549527E-007  0.1418643E+04  0.7818608E-02  0.8940433E-01
          3   -1    0    0  501    0  0.00000000000E+00  0.00000000000E+00  0.14839217440E+04  0.14839217440E+04  0.00000000000E+00 0. -1.
         -3   -1    0    0    0  501 -0.00000000000E+00 -0.00000000000E+00 -0.33905919370E+03  0.33905919370E+03  0.00000000000E+00 0.  1.
         23    2    1    2    0    0 -0.11640019664E+03  0.38208106212E+03  0.21165325598E+03  0.46224723006E+03  0.96646040426E+02 0.  0.
        254    2    1    2    0    0  0.11640019664E+03 -0.38208106212E+03  0.93320929428E+03  0.13607337076E+04  0.90619075930E+03 0.  0.
        -24    2    4    4    0    0  0.49522819787E+03 -0.32539807754E+03  0.59872418522E+03  0.84601397330E+03  0.78320598939E+02 0.  0.
         24    2    4    4    0    0 -0.37882800123E+03 -0.56682984581E+02  0.33448510905E+03  0.51471973429E+03  0.79577015742E+02 0.  0.
         11    1    3    3    0    0 -0.17989652635E+02  0.89420956016E+02  0.62973129746E+01  0.91429705936E+02  0.00000000000E+00 0.  1.
        -11    1    3    3    0    0 -0.98410544003E+02  0.29266010610E+03  0.20535594300E+03  0.37081752413E+03  0.00000000000E+00 0. -1.
          2    1    6    6  502    0 -0.25360591065E+03 -0.29507927929E+02  0.17226462909E+03  0.30799639310E+03  0.00000000000E+00 0. -1.
          1    1    5    5  503    0  0.17090499396E+03 -0.14944330691E+03  0.25955262839E+03  0.34483240255E+03  0.00000000000E+00 0. -1.
         -2    1    5    5    0  503  0.32432320390E+03 -0.17595477062E+03  0.33917155684E+03  0.50118157075E+03  0.00000000000E+00 0.  1.
         -1    1    6    6    0  502 -0.12522209057E+03 -0.27175056651E+02  0.16222047997E+03  0.20672334119E+03  0.00000000000E+00 0.  1.
<mgrwt>
<rscale>  0 0.14186435E+04</rscale>
<asrwt>0</asrwt>
<pdfrwt beam="1">  1        3 0.22829565E+00 0.14186435E+04</pdfrwt>
<pdfrwt beam="2">  1       -3 0.52162954E-01 0.14186435E+04</pdfrwt>
<totfact> 0.91776899E-01</totfact>
</mgrwt>
</event>
<event>
12    1  0.1549527E-007  0.1016313E+04  0.7818608E-02  0.9290832E-01
          1   -1    0    0  501    0  0.00000000000E+00  0.00000000000E+00  0.22045568068E+03  0.22045568068E+03  0.00000000000E+00 0. -1.
         -1   -1    0    0    0  501 -0.00000000000E+00 -0.00000000000E+00 -0.11713138947E+04  0.11713138947E+04  0.00000000000E+00 0.  1.
         23    2    1    2    0    0  0.58449566373E+02  0.81010524422E+02  0.44332089294E+02  0.14137270405E+03  0.89676364959E+02 0.  0.
        254    2    1    2    0    0 -0.58449566373E+02 -0.81010524422E+02 -0.99519030330E+03  0.12503968713E+04  0.75040624939E+03 0.  0.
        -24    2    4    4    0    0  0.61689392189E+02 -0.38064118554E+03 -0.36416538289E+03  0.53692398442E+03  0.83532303420E+02 0.  0.
         24    2    4    4    0    0 -0.12013895856E+03  0.29963066112E+03 -0.63102492040E+03  0.71347288688E+03  0.81481333464E+02 0.  0.
         13    1    3    3    0    0  0.32050105259E+01  0.64050501419E+02  0.52667228300E+02  0.82985394868E+02  0.00000000000E+00 0. -1.
        -13    1    3    3    0    0  0.55244555847E+02  0.16960023003E+02 -0.83351390061E+01  0.58387309180E+02  0.00000000000E+00 0.  1.
          4    1    6    6  502    0 -0.37144992236E+02  0.16484789523E+03 -0.25991670900E+03  0.31001818435E+03  0.00000000000E+00 0. -1.
          3    1    5    5  503    0 -0.16723973196E+02 -0.14930068971E+03 -0.14278693072E+03  0.20726431147E+03  0.00000000000E+00 0. -1.
         -2    1    5    5    0  503  0.78413365384E+02 -0.23134049583E+03 -0.22137845218E+03  0.32965967295E+03  0.00000000000E+00 0.  1.
         -3    1    6    6    0  502 -0.82993966326E+02  0.13478276589E+03 -0.37110821141E+03  0.40345470254E+03  0.00000000000E+00 0.  1.
<mgrwt>
<rscale>  0 0.10163126E+04</rscale>
<asrwt>0</asrwt>
<pdfrwt beam="1">  1        1 0.33916260E-01 0.10163126E+04</pdfrwt>
<pdfrwt beam="2">  1       -1 0.18020213E+00 0.10163126E+04</pdfrwt>
<totfact> 0.27243939E+01</totfact>
</mgrwt>
</event>
<event>
12    1  0.1549527E-007  0.1234468E+04  0.7818608E-02  0.9083211E-01
         -2   -1    0    0    0  501 -0.00000000000E+00  0.00000000000E+00  0.40293369797E+03  0.40293369797E+03  0.00000000000E+00 0.  1.
          2   -1    0    0  501    0  0.00000000000E+00 -0.00000000000E+00 -0.94550959197E+03  0.94550959197E+03  0.00000000000E+00 0. -1.
         23    2    1    2    0    0 -0.80967776508E+02 -0.11934562148E+03  0.12972350387E+03  0.21477329662E+03  0.92196655507E+02 0.  0.
        254    2    1    2    0    0  0.80967776508E+02  0.11934562148E+03 -0.67229939787E+03  0.11336699933E+04  0.90134455963E+03 0.  0.
        -24    2    4    4    0    0  0.16818417206E+03  0.22892097886E+03 -0.84624352997E+03  0.89634590359E+03  0.81345783948E+02 0.  0.
         24    2    4    4    0    0 -0.87216395548E+02 -0.10957535738E+03  0.17394413210E+03  0.23732408973E+03  0.80328723872E+02 0.  0.
         11    1    3    3    0    0 -0.41060581266E+01  0.12921823611E+02  0.27859244132E+02  0.30983394301E+02  0.00000000000E+00 0. -1.
        -11    1    3    3    0    0 -0.76861718381E+02 -0.13226744509E+03  0.10186425974E+03  0.18378990232E+03  0.00000000000E+00 0.  1.
          4    1    6    6  502    0 -0.64999475755E+02 -0.45848917934E+02  0.14176739454E+03  0.16255783364E+03  0.00000000000E+00 0. -1.
          3    1    5    5  503    0  0.91719300439E+00 -0.36594931891E+01 -0.49843863891E+02  0.49986437170E+02  0.00000000000E+00 0. -1.
         -4    1    5    5    0  503  0.16726697905E+03  0.23258047205E+03 -0.79639966608E+03  0.84635946641E+03  0.00000000000E+00 0.  1.
         -3    1    6    6    0  502 -0.22216919792E+02 -0.63726439449E+02  0.32176737557E+02  0.74766256090E+02  0.00000000000E+00 0.  1.
<mgrwt>
<rscale>  0 0.12344678E+04</rscale>
<asrwt>0</asrwt>
<pdfrwt beam="1">  1        2 0.14546302E+00 0.12344678E+04</pdfrwt>
<pdfrwt beam="2">  1       -2 0.61989799E-01 0.12344678E+04</pdfrwt>
<totfact> 0.65048672E+01</totfact>
</mgrwt>
</event>
<event>
12    1  0.1549527E-007  0.2597230E+04  0.7818608E-02  0.8369143E-01
          2   -1    0    0  501    0  0.00000000000E+00  0.00000000000E+00  0.18439443836E+04  0.18439443836E+04  0.00000000000E+00 0.  1.
         -2   -1    0    0    0  501 -0.00000000000E+00 -0.00000000000E+00 -0.91456164407E+03  0.91456164407E+03  0.00000000000E+00 0. -1.
         23    2    1    2    0    0 -0.65208353969E+03  0.10617147317E+03 -0.58262589823E+03  0.88396905895E+03  0.73912349761E+02 0.  0.
        254    2    1    2    0    0  0.65208353969E+03 -0.10617147317E+03  0.15120086377E+04  0.18745369687E+04  0.88951301395E+03 0.  0.
        -24    2    4    4    0    0 -0.21262303090E+03  0.30039725882E+02  0.31117313099E+03  0.38641555069E+03  0.79858136473E+02 0.  0.
         24    2    4    4    0    0  0.86470657059E+03 -0.13621119905E+03  0.12008355067E+04  0.14881214180E+04  0.78920824321E+02 0.  0.
         13    1    3    3    0    0 -0.52447801187E+02 -0.14149788456E+01 -0.25137843066E+02  0.58178047135E+02  0.00000000000E+00 0.  1.
        -13    1    3    3    0    0 -0.59963573850E+03  0.10758645201E+03 -0.55748805517E+03  0.82579101182E+03  0.00000000000E+00 0. -1.
          4    1    6    6  502    0  0.31766261149E+03 -0.14690444803E+02  0.45997793993E+03  0.55920036582E+03  0.00000000000E+00 0. -1.
          1    1    5    5  503    0 -0.76444937749E+02 -0.25022034542E+02  0.13380352738E+03  0.15611955245E+03  0.00000000000E+00 0. -1.
         -2    1    5    5    0  503 -0.13617809315E+03  0.55061760424E+02  0.17736960362E+03  0.23029599824E+03  0.00000000000E+00 0.  1.
         -3    1    6    6    0  502  0.54704395910E+03 -0.12152075425E+03  0.74085756681E+03  0.92892105218E+03  0.00000000000E+00 0.  1.
<mgrwt>
<rscale>  0 0.25972299E+04</rscale>
<asrwt>0</asrwt>
<pdfrwt beam="1">  1        2 0.28368375E+00 0.25972299E+04</pdfrwt>
<pdfrwt beam="2">  1       -2 0.14070179E+00 0.25972299E+04</pdfrwt>
<totfact> 0.25589910E+00</totfact>
</mgrwt>
</event>
<event>
12    1  0.1549527E-007  0.2228330E+04  0.7818608E-02  0.8506728E-01
         -2   -1    0    0    0  501 -0.00000000000E+00  0.00000000000E+00  0.78474210162E+03  0.78474210162E+03  0.00000000000E+00 0.  1.
          2   -1    0    0  501    0  0.00000000000E+00 -0.00000000000E+00 -0.15818752659E+04  0.15818752659E+04  0.00000000000E+00 0. -1.
         23    2    1    2    0    0 -0.35576641537E+03  0.62115332370E+03  0.29186120629E+03  0.77895505947E+03  0.95847937286E+02 0.  0.
        254    2    1    2    0    0  0.35576641537E+03 -0.62115332370E+03 -0.10889943706E+04  0.15876623081E+04  0.90684159116E+03 0.  0.
        -24    2    4    4    0    0 -0.31917440606E+01 -0.12606535253E+03  0.14451706196E+03  0.20852227193E+03  0.81815013030E+02 0.  0.
         24    2    4    4    0    0  0.35895815943E+03 -0.49508797117E+03 -0.12335114326E+04  0.13791400362E+04  0.80707655350E+02 0.  0.
         11    1    3    3    0    0 -0.10628066360E+03  0.26207104796E+03  0.14424637695E+03  0.31746469237E+03  0.00000000000E+00 0. -1.
        -11    1    3    3    0    0 -0.24948575177E+03  0.35908227574E+03  0.14761482934E+03  0.46149036710E+03  0.00000000000E+00 0.  1.
          2    1    6    6  502    0  0.31709234772E+03 -0.45715370134E+03 -0.10675681937E+04  0.12038433917E+04  0.00000000000E+00 0. -1.
          3    1    5    5  503    0 -0.37961714217E+01 -0.13804622856E+03  0.13589696516E+03  0.19375024459E+03  0.00000000000E+00 0. -1.
         -4    1    5    5    0  503  0.60442736109E+00  0.11980876038E+02  0.86200967985E+01  0.14772027345E+02  0.00000000000E+00 0.  1.
         -1    1    6    6    0  502  0.41865811711E+02 -0.37934269836E+02 -0.16594323890E+03  0.17529664445E+03  0.00000000000E+00 0.  1.
<mgrwt>
<rscale>  0 0.22283304E+04</rscale>
<asrwt>0</asrwt>
<pdfrwt beam="1">  1        2 0.24336543E+00 0.22283304E+04</pdfrwt>
<pdfrwt beam="2">  1       -2 0.12072955E+00 0.22283304E+04</pdfrwt>
<totfact> 0.54459050E+00</totfact>
</mgrwt>
</event>
<event>
12    1  0.1549527E-007  0.1424673E+04  0.7818608E-02  0.8936150E-01
         -1   -1    0    0    0  501 -0.00000000000E+00  0.00000000000E+00  0.35212510398E+03  0.35212510398E+03  0.00000000000E+00 0.  1.
          1   -1    0    0  501    0  0.00000000000E+00 -0.00000000000E+00 -0.14410309106E+04  0.14410309106E+04  0.00000000000E+00 0. -1.
         23    2    1    2    0    0  0.26385320443E+02  0.38111980113E+03 -0.57258144722E+03  0.69462880583E+03  0.93333682241E+02 0.  0.
        254    2    1    2    0    0 -0.26385320443E+02 -0.38111980113E+03 -0.51632435940E+03  0.10985272087E+04  0.89119172813E+03 0.  0.
        -24    2    4    4    0    0  0.18515919390E+02 -0.64043001824E+03 -0.51057465950E+03  0.82318674106E+03  0.80352225864E+02 0.  0.
         24    2    4    4    0    0 -0.44901239832E+02  0.25931021710E+03 -0.57496999019E+01  0.27534046768E+03  0.80755210749E+02 0.  0.
         11    1    3    3    0    0  0.11432998762E+02  0.10190868203E+00 -0.23470878600E+02  0.26107584882E+02  0.00000000000E+00 0.  1.
        -11    1    3    3    0    0  0.14952321681E+02  0.38101789245E+03 -0.54911056862E+03  0.66852122095E+03  0.00000000000E+00 0. -1.
          4    1    6    6  502    0  0.14209697611E+02  0.11284889915E+02 -0.92012770448E+01  0.20345214323E+02  0.00000000000E+00 0. -1.
          3    1    5    5  503    0  0.29959286870E+02 -0.94248165452E+02 -0.90448838047E+02  0.13401965477E+03  0.00000000000E+00 0. -1.
         -4    1    5    5    0  503 -0.11443367480E+02 -0.54618185279E+03 -0.42012582145E+03  0.68916708629E+03  0.00000000000E+00 0.  1.
         -3    1    6    6    0  502 -0.59110937443E+02  0.24802532719E+03  0.34515771429E+01  0.25499525336E+03  0.00000000000E+00 0.  1.
<mgrwt>
<rscale>  0 0.14246728E+04</rscale>
<asrwt>0</asrwt>
<pdfrwt beam="1">  1        1 0.22169706E+00 0.14246728E+04</pdfrwt>
<pdfrwt beam="2">  1       -1 0.54173094E-01 0.14246728E+04</pdfrwt>
<totfact> 0.24074938E+01</totfact>
</mgrwt>
</event>
<event>
12    1  0.1549527E-007  0.2555517E+04  0.7818608E-02  0.8383470E-01
         -2   -1    0    0    0  501 -0.00000000000E+00  0.00000000000E+00  0.11461553143E+04  0.11461553143E+04  0.00000000000E+00 0.  1.
          2   -1    0    0  501    0  0.00000000000E+00 -0.00000000000E+00 -0.14244728229E+04  0.14244728229E+04  0.00000000000E+00 0. -1.
         23    2    1    2    0    0  0.51257334446E+03 -0.54941419994E+03  0.71491491211E+03  0.10412470293E+04  0.92220647683E+02 0.  0.
        254    2    1    2    0    0 -0.51257334446E+03  0.54941419994E+03 -0.99323242068E+03  0.15293811079E+04  0.88764212115E+03 0.  0.
        -24    2    4    4    0    0 -0.68069437397E+03  0.12773904651E+03 -0.52864083309E+03  0.87530867303E+03  0.83916910801E+02 0.  0.
         24    2    4    4    0    0  0.16812102951E+03  0.42167515343E+03 -0.46459158759E+03  0.65407243489E+03  0.76751490131E+02 0.  0.
         13    1    3    3    0    0  0.51635743149E+02 -0.61831782782E+02  0.11991471646E+03  0.14446092397E+03  0.00000000000E+00 0. -1.
        -13    1    3    3    0    0  0.46093760131E+03 -0.48758241716E+03  0.59500019565E+03  0.89678610530E+03  0.00000000000E+00 0.  1.
          2    1    6    6  502    0  0.34162714623E+01 -0.16285769203E+01  0.68353074228E+00  0.38458273187E+01  0.00000000000E+00 0. -1.
          3    1    5    5  503    0 -0.27162648157E+03  0.92554400720E+02 -0.22483787075E+03  0.36455360471E+03  0.00000000000E+00 0. -1.
         -4    1    5    5    0  503 -0.40906789240E+03  0.35184645787E+02 -0.30380296234E+03  0.51075506832E+03  0.00000000000E+00 0.  1.
         -1    1    6    6    0  502  0.16470475805E+03  0.42330373036E+03 -0.46527511833E+03  0.65022660757E+03  0.00000000000E+00 0.  1.
<mgrwt>
<rscale>  0 0.25555172E+04</rscale>
<asrwt>0</asrwt>
<pdfrwt beam="1">  1        2 0.21914966E+00 0.25555172E+04</pdfrwt>
<pdfrwt beam="2">  1       -2 0.17633159E+00 0.25555172E+04</pdfrwt>
<totfact> 0.23924617E+00</totfact>
</mgrwt>
</event>
<event>
12    1  0.1549527E-007  0.1813770E+04  0.7818608E-02  0.8699011E-01
          1   -1    0    0  501    0  0.00000000000E+00  0.00000000000E+00  0.57027844285E+03  0.57027844285E+03  0.00000000000E+00 0. -1.
         -1   -1    0    0    0  501 -0.00000000000E+00 -0.00000000000E+00 -0.14421738469E+04  0.14421738469E+04  0.00000000000E+00 0.  1.
         23    2    1    2    0    0  0.67235085042E+03 -0.70301644918E+02 -0.39083390200E+03  0.78604300995E+03  0.90080448486E+02 0.  0.
        254    2    1    2    0    0 -0.67235085042E+03  0.70301644918E+02 -0.48106150207E+03  0.12264092798E+04  0.90313983719E+03 0.  0.
        -24    2    4    4    0    0  0.61340916090E+02 -0.74739283130E+01 -0.47328823393E+03  0.48419893639E+03  0.81414310973E+02 0.  0.
         24    2    4    4    0    0 -0.73369176651E+03  0.77775573231E+02 -0.77732681400E+01  0.74221034343E+03  0.80393545570E+02 0.  0.
         11    1    3    3    0    0  0.43124573485E+03 -0.15815030124E+02 -0.28500180009E+03  0.51715473995E+03  0.00000000000E+00 0.  1.
        -11    1    3    3    0    0  0.24110511557E+03 -0.54486614793E+02 -0.10583210191E+03  0.26888827000E+03  0.00000000000E+00 0. -1.
          4    1    6    6  502    0 -0.71508227781E+03  0.70002909695E+02  0.46649008767E+01  0.71851571500E+03  0.00000000000E+00 0. -1.
          1    1    5    5  503    0  0.70028441009E+02 -0.23437225478E+02 -0.44106169288E+03  0.44720096491E+03  0.00000000000E+00 0. -1.
         -2    1    5    5    0  503 -0.86875249182E+01  0.15963297165E+02 -0.32226541050E+02  0.36997971480E+02  0.00000000000E+00 0.  1.
         -3    1    6    6    0  502 -0.18609488696E+02  0.77726635358E+01 -0.12438169017E+02  0.23694628431E+02  0.00000000000E+00 0.  1.
<mgrwt>
<rscale>  0 0.18137703E+04</rscale>
<asrwt>0</asrwt>
<pdfrwt beam="1">  1        1 0.87735146E-01 0.18137703E+04</pdfrwt>
<pdfrwt beam="2">  1       -1 0.22187290E+00 0.18137703E+04</pdfrwt>
<totfact> 0.37122957E+00</totfact>
</mgrwt>
</event>
<event>
12    1  0.1549527E-007  0.1586398E+04  0.7818608E-02  0.8828948E-01
         -2   -1    0    0    0  501 -0.00000000000E+00  0.00000000000E+00  0.81450385923E+03  0.81450385923E+03  0.00000000000E+00 0.  1.
          2   -1    0    0  501    0  0.00000000000E+00 -0.00000000000E+00 -0.77245172386E+03  0.77245172386E+03  0.00000000000E+00 0. -1.
         23    2    1    2    0    0 -0.23156688641E+03 -0.40164188052E+03 -0.25057220566E+03  0.53513274727E+03  0.92958075885E+02 0.  0.
        254    2    1    2    0    0  0.23156688641E+03  0.40164188052E+03  0.29262434103E+03  0.10518228358E+04  0.89764294122E+03 0.  0.
        -24    2    4    4    0    0 -0.12738367182E+02 -0.21120660195E+03 -0.13308209792E+03  0.26276996218E+03  0.81035261033E+02 0.  0.
         24    2    4    4    0    0  0.24430525360E+03  0.61284848247E+03  0.42570643895E+03  0.78905287365E+03  0.78167421942E+02 0.  0.
         13    1    3    3    0    0 -0.69088609255E+02 -0.17766427193E+03 -0.62681495015E+02  0.20066588964E+03  0.00000000000E+00 0. -1.
        -13    1    3    3    0    0 -0.16247827716E+03 -0.22397760859E+03 -0.18789071065E+03  0.33446685762E+03  0.00000000000E+00 0.  1.
          2    1    6    6  502    0  0.15106548762E+03  0.38457414473E+03  0.22099167519E+03  0.46856736426E+03  0.00000000000E+00 0. -1.
          1    1    5    5  503    0  0.27503328582E+01 -0.58765843586E+02  0.14757224921E+01  0.58848674243E+02  0.00000000000E+00 0. -1.
         -2    1    5    5    0  503 -0.15488700040E+02 -0.15244075836E+03 -0.13455782041E+03  0.20392128793E+03  0.00000000000E+00 0.  1.
         -1    1    6    6    0  502  0.93239765977E+02  0.22827433774E+03  0.20471476376E+03  0.32048550939E+03  0.00000000000E+00 0.  1.
<mgrwt>
<rscale>  0 0.15863983E+04</rscale>
<asrwt>0</asrwt>
<pdfrwt beam="1">  1        2 0.11883873E+00 0.15863983E+04</pdfrwt>
<pdfrwt beam="2">  1       -2 0.12530829E+00 0.15863983E+04</pdfrwt>
<totfact> 0.16502295E+01</totfact>
</mgrwt>
</event>
<event>
12    1  0.1549527E-007  0.1369978E+04  0.7818608E-02  0.8975842E-01
         -2   -1    0    0    0  501 -0.00000000000E+00  0.00000000000E+00  0.57315319105E+03  0.57315319105E+03  0.00000000000E+00 0.  1.
          2   -1    0    0  501    0  0.00000000000E+00 -0.00000000000E+00 -0.81864622995E+03  0.81864622995E+03  0.00000000000E+00 0. -1.
         23    2    1    2    0    0  0.29656341329E+02 -0.22596116172E+03 -0.38227453897E+03  0.45438797422E+03  0.91633306079E+02 0.  0.
        254    2    1    2    0    0 -0.29656341329E+02  0.22596116172E+03  0.13678150007E+03  0.93741144678E+03  0.89893998499E+03 0.  0.
        -24    2    4    4    0    0  0.13029538940E+03  0.51399814853E+03  0.23353364062E+03  0.58493275234E+03  0.80233274112E+02 0.  0.
         24    2    4    4    0    0 -0.15995173073E+03 -0.28803698681E+03 -0.96752140543E+02  0.35247869444E+03  0.79563756829E+02 0.  0.
         13    1    3    3    0    0 -0.29538304555E+02 -0.43580353558E+02 -0.64674136548E+02  0.83393660373E+02  0.00000000000E+00 0.  1.
        -13    1    3    3    0    0  0.59194645884E+02 -0.18238080816E+03 -0.31760040242E+03  0.37099431384E+03  0.00000000000E+00 0. -1.
          2    1    6    6  502    0 -0.97303218363E+02 -0.18715840317E+03 -0.10052548265E+03  0.23366976023E+03  0.00000000000E+00 0. -1.
          1    1    5    5  503    0 -0.16609366772E+01  0.69764223172E+02  0.52843971906E+02  0.87534512693E+02  0.00000000000E+00 0. -1.
         -2    1    5    5    0  503  0.13195632608E+03  0.44423392536E+03  0.18068966871E+03  0.49739823965E+03  0.00000000000E+00 0.  1.
         -1    1    6    6    0  502 -0.62648512367E+02 -0.10087858364E+03  0.37733421084E+01  0.11880893421E+03  0.00000000000E+00 0.  1.
<mgrwt>
<rscale>  0 0.13699777E+04</rscale>
<asrwt>0</asrwt>
<pdfrwt beam="1">  1        2 0.12594557E+00 0.13699777E+04</pdfrwt>
<pdfrwt beam="2">  1       -2 0.88177414E-01 0.13699777E+04</pdfrwt>
<totfact> 0.36102561E+01</totfact>
</mgrwt>
</event>
<event>
12    1  0.1549527E-007  0.2006052E+04  0.7818608E-02  0.8603797E-01
          1   -1    0    0  501    0  0.00000000000E+00  0.00000000000E+00  0.16860913164E+04  0.16860913164E+04  0.00000000000E+00 0. -1.
         -1   -1    0    0    0  501 -0.00000000000E+00 -0.00000000000E+00 -0.59668229128E+03  0.59668229128E+03  0.00000000000E+00 0.  1.
         23    2    1    2    0    0  0.37425297284E+03 -0.42424158428E+03  0.10854441922E+04  0.12274985851E+04  0.92290154105E+02 0.  0.
        254    2    1    2    0    0 -0.37425297284E+03  0.42424158428E+03  0.39648329432E+01  0.10552750226E+04  0.89081055445E+03 0.  0.
        -24    2    4    4    0    0 -0.44854659556E+02  0.15386622802E+03  0.41857966363E+03  0.45526155463E+03  0.79795937941E+02 0.  0.
         24    2    4    4    0    0 -0.32939831329E+03  0.27037535626E+03 -0.41461483069E+03  0.60001346797E+03  0.80651235870E+02 0.  0.
         11    1    3    3    0    0  0.17395358629E+03 -0.20860764720E+03  0.42410519723E+03  0.50362904898E+03  0.00000000000E+00 0.  1.
        -11    1    3    3    0    0  0.20029938656E+03 -0.21563393708E+03  0.66133899496E+03  0.72386953613E+03  0.00000000000E+00 0. -1.
          2    1    6    6  502    0 -0.21937348566E+03  0.12902751586E+03 -0.24935957499E+03  0.35630467819E+03  0.00000000000E+00 0. -1.
          3    1    5    5  503    0  0.10822944886E+01  0.83076038823E+00 -0.36040148092E+01  0.38536277619E+01  0.00000000000E+00 0. -1.
         -4    1    5    5    0  503 -0.45936954044E+02  0.15303546763E+03  0.42218367844E+03  0.45140792687E+03  0.00000000000E+00 0.  1.
         -1    1    6    6    0  502 -0.11002482763E+03  0.14134784040E+03 -0.16525525570E+03  0.24370878978E+03  0.00000000000E+00 0.  1.
<mgrwt>
<rscale>  0 0.20060517E+04</rscale>
<asrwt>0</asrwt>
<pdfrwt beam="1">  1        1 0.25939866E+00 0.20060517E+04</pdfrwt>
<pdfrwt beam="2">  1       -1 0.91797277E-01 0.20060517E+04</pdfrwt>
<totfact> 0.52212552E+00</totfact>
</mgrwt>
</event>
<event>
12    1  0.1549527E-007  0.1500857E+04  0.7818608E-02  0.8883884E-01
         -2   -1    0    0    0  501 -0.00000000000E+00  0.00000000000E+00  0.81547711952E+03  0.81547711952E+03  0.00000000000E+00 0.  1.
          2   -1    0    0  501    0  0.00000000000E+00 -0.00000000000E+00 -0.69056821384E+03  0.69056821384E+03  0.00000000000E+00 0. -1.
         23    2    1    2    0    0  0.59923891850E+02  0.39135101781E+03  0.24173054449E+03  0.47286430482E+03  0.91763297026E+02 0.  0.
        254    2    1    2    0    0 -0.59923891850E+02 -0.39135101781E+03 -0.11682163880E+03  0.10331810285E+04  0.94713739789E+03 0.  0.
        -24    2    4    4    0    0 -0.41947490769E+03 -0.48370640341E+03 -0.42381590574E+02  0.64641187945E+03  0.78237048702E+02 0.  0.
         24    2    4    4    0    0  0.35955101584E+03  0.92355385600E+02 -0.74440048227E+02  0.38676914909E+03  0.79010149165E+02 0.  0.
         11    1    3    3    0    0 -0.17801448989E+02  0.10019074833E+03  0.88144613840E+02  0.13462745109E+03  0.00000000000E+00 0. -1.
        -11    1    3    3    0    0  0.77725340839E+02  0.29116026948E+03  0.15358593065E+03  0.33823685373E+03  0.00000000000E+00 0.  1.
          2    1    6    6  502    0  0.34820550582E+03  0.10216785617E+03 -0.78395459545E+02  0.37125623657E+03  0.00000000000E+00 0. -1.
          1    1    5    5  503    0 -0.36328291452E+03 -0.45383989943E+03 -0.35691377492E+02  0.58242510654E+03  0.00000000000E+00 0. -1.
         -2    1    5    5    0  503 -0.56191993169E+02 -0.29866503978E+02 -0.66902130820E+01  0.63986772909E+02  0.00000000000E+00 0.  1.
         -1    1    6    6    0  502  0.11345510019E+02 -0.98124705664E+01  0.39554113177E+01  0.15512912521E+02  0.00000000000E+00 0.  1.
<mgrwt>
<rscale>  0 0.15008565E+04</rscale>
<asrwt>0</asrwt>
<pdfrwt beam="1">  1        2 0.10624126E+00 0.15008565E+04</pdfrwt>
<pdfrwt beam="2">  1       -2 0.12545802E+00 0.15008565E+04</pdfrwt>
<totfact> 0.19128134E+01</totfact>
</mgrwt>
</event>
<event>
12    1  0.1957190E-007  0.2709685E+04  0.7818608E-02  0.8331869E-01
          2   -1    0    0  501    0  0.00000000000E+00  0.00000000000E+00  0.20267773695E+04  0.20267773695E+04  0.00000000000E+00 0. -1.
         -2   -1    0    0    0  501 -0.00000000000E+00 -0.00000000000E+00 -0.90567334100E+03  0.90567334100E+03  0.00000000000E+00 0.  1.
         23    2    1    2    0    0  0.54001376894E+03 -0.66473179548E+03 -0.42053235574E+03  0.95844917749E+03  0.91072130934E+02 0.  0.
        254    2    1    2    0    0 -0.54001376894E+03  0.66473179548E+03  0.15416363843E+04  0.19740015331E+04  0.88687996965E+03 0.  0.
        -24    2    4    4    0    0 -0.22246011735E+03  0.36444930392E+02  0.11277203077E+04  0.11529662962E+04  0.82228041967E+02 0.  0.
         24    2    4    4    0    0 -0.31755365159E+03  0.62828686509E+03  0.41391607654E+03  0.82103523687E+03  0.84779922568E+02 0.  0.
         13    1    3    3    0    0  0.28419842963E+03 -0.34131894015E+03 -0.26827082711E+03  0.51888014318E+03  0.00000000000E+00 0.  1.
        -13    1    3    3    0    0  0.25581533931E+03 -0.32341285533E+03 -0.15226152863E+03  0.43956903431E+03  0.00000000000E+00 0. -1.
          2    1    6    6  502    0 -0.24279187568E+03  0.47589707290E+03  0.27055266186E+03  0.59885278803E+03  0.00000000000E+00 0. -1.
          1    1    5    5  503    0 -0.17629658855E+03  0.43706347284E+02  0.10119284785E+04  0.10281001787E+04  0.00000000000E+00 0. -1.
         -2    1    5    5    0  503 -0.46163528804E+02 -0.72614168923E+01  0.11579182924E+03  0.12486611744E+03  0.00000000000E+00 0.  1.
         -1    1    6    6    0  502 -0.74761775916E+02  0.15238979219E+03  0.14336341469E+03  0.22218244884E+03  0.00000000000E+00 0.  1.
<mgrwt>
<rscale>  0 0.27096850E+04</rscale>
<asrwt>0</asrwt>
<pdfrwt beam="1">  1        2 0.31181190E+00 0.27096850E+04</pdfrwt>
<pdfrwt beam="2">  1       -2 0.13933436E+00 0.27096850E+04</pdfrwt>
<totfact> 0.20579447E+00</totfact>
</mgrwt>
</event>
<event>
12    1  0.1649490E-007  0.1950022E+04  0.7818608E-02  0.8630350E-01
         -1   -1    0    0    0  501 -0.00000000000E+00  0.00000000000E+00  0.42333496247E+03  0.42333496247E+03  0.00000000000E+00 0.  1.
          1   -1    0    0  501    0  0.00000000000E+00 -0.00000000000E+00 -0.22456135073E+04  0.22456135073E+04  0.00000000000E+00 0. -1.
         23    2    1    2    0    0  0.49070954110E+03 -0.13087678447E+03 -0.15078615377E+04  0.15936265038E+04  0.89857833131E+02 0.  0.
        254    2    1    2    0    0 -0.49070954110E+03  0.13087678447E+03 -0.31441700708E+03  0.10753219660E+04  0.89416703681E+03 0.  0.
        -24    2    4    4    0    0  0.24007379972E+03  0.10537038310E+03  0.38097313838E+01  0.27409256547E+03  0.79836542050E+02 0.  0.
         24    2    4    4    0    0 -0.73078334082E+03  0.25506401375E+02 -0.31822673846E+03  0.80122940050E+03  0.77494692877E+02 0.  0.
         11    1    3    3    0    0  0.26246008483E+02 -0.28280460722E+02 -0.84549970668E+02  0.92937263570E+02  0.00000000000E+00 0.  1.
        -11    1    3    3    0    0  0.46446353261E+03 -0.10259632375E+03 -0.14233115671E+04  0.15006892402E+04  0.00000000000E+00 0. -1.
          2    1    6    6  502    0 -0.61673237317E+02  0.30554390712E+00 -0.46315404570E+01  0.61847657395E+02  0.00000000000E+00 0. -1.
          1    1    5    5  503    0 -0.58902544723E+01  0.69023097058E+01 -0.81198927822E+00  0.91102307112E+01  0.00000000000E+00 0. -1.
         -4    1    5    5    0  503  0.24596405419E+03  0.98468073391E+02  0.46217206620E+01  0.26498233476E+03  0.00000000000E+00 0.  1.
         -1    1    6    6    0  502 -0.66911010350E+03  0.25200857468E+02 -0.31359519801E+03  0.73938174310E+03  0.00000000000E+00 0.  1.
<mgrwt>
<rscale>  0 0.19500223E+04</rscale>
<asrwt>0</asrwt>
<pdfrwt beam="1">  1        1 0.34547901E+00 0.19500223E+04</pdfrwt>
<pdfrwt beam="2">  1       -1 0.65128455E-01 0.19500223E+04</pdfrwt>
<totfact> 0.45160717E+00</totfact>
</mgrwt>
</event>
<event>
12    1  0.1549527E-007  0.1429569E+04  0.7818608E-02  0.8932689E-01
          2   -1    0    0  501    0  0.00000000000E+00  0.00000000000E+00  0.44108672390E+03  0.44108672390E+03  0.00000000000E+00 0. -1.
         -2   -1    0    0    0  501 -0.00000000000E+00 -0.00000000000E+00 -0.11583133972E+04  0.11583133972E+04  0.00000000000E+00 0.  1.
         23    2    1    2    0    0  0.60243754205E+02  0.10105658329E+03 -0.66461068432E+03  0.68125742216E+03  0.92534159025E+02 0.  0.
        254    2    1    2    0    0 -0.60243754205E+02 -0.10105658329E+03 -0.52615989025E+02  0.91814269898E+03  0.90905216046E+03 0.  0.
        -24    2    4    4    0    0 -0.30993342837E+03 -0.39980189194E+03 -0.83714463423E+02  0.51943411531E+03  0.83086737458E+02 0.  0.
         24    2    4    4    0    0  0.24968967416E+03  0.29874530865E+03  0.31098474397E+02  0.39870858367E+03  0.80048277684E+02 0.  0.
         13    1    3    3    0    0  0.20222449377E+02 -0.82860542437E+01 -0.37287987709E+02  0.43220367666E+02  0.00000000000E+00 0. -1.
        -13    1    3    3    0    0  0.40021304828E+02  0.10934263753E+03 -0.62732269661E+03  0.63803705449E+03  0.00000000000E+00 0.  1.
          4    1    6    6  502    0  0.23983789187E+03  0.24908506591E+03  0.36915266955E+02  0.34774749657E+03  0.00000000000E+00 0. -1.
          1    1    5    5  503    0 -0.28867495926E+03 -0.39601776189E+03 -0.73494116425E+02  0.49554483650E+03  0.00000000000E+00 0. -1.
         -2    1    5    5    0  503 -0.21258469104E+02 -0.37841300474E+01 -0.10220346998E+02  0.23889278801E+02  0.00000000000E+00 0.  1.
         -3    1    6    6    0  502  0.98517822969E+01  0.49660242736E+02 -0.58167925581E+01  0.50961087103E+02  0.00000000000E+00 0.  1.
<mgrwt>
<rscale>  0 0.14295687E+04</rscale>
<asrwt>0</asrwt>
<pdfrwt beam="1">  1        2 0.67859496E-01 0.14295687E+04</pdfrwt>
<pdfrwt beam="2">  1       -2 0.17820206E+00 0.14295687E+04</pdfrwt>
<totfact> 0.12881820E+01</totfact>
</mgrwt>
</event>
<event>
12    1  0.1549527E-007  0.1742131E+04  0.7818608E-02  0.8737694E-01
         -1   -1    0    0    0  501 -0.00000000000E+00  0.00000000000E+00  0.12925278627E+04  0.12925278627E+04  0.00000000000E+00 0.  1.
          1   -1    0    0  501    0  0.00000000000E+00 -0.00000000000E+00 -0.58703160045E+03  0.58703160045E+03  0.00000000000E+00 0. -1.
         23    2    1    2    0    0 -0.27289255107E+02  0.37729563488E+03  0.80341132717E+03  0.89245279221E+03  0.88913025709E+02 0.  0.
        254    2    1    2    0    0  0.27289255107E+02 -0.37729563488E+03 -0.97915064951E+02  0.98710667092E+03  0.90647422483E+03 0.  0.
        -24    2    4    4    0    0  0.43118895195E+03 -0.36323783182E+03 -0.45079597400E+02  0.57103391210E+03  0.78625211740E+02 0.  0.
         24    2    4    4    0    0 -0.40389969684E+03 -0.14057803059E+02 -0.52835467551E+02  0.41607275882E+03  0.83620374684E+02 0.  0.
         11    1    3    3    0    0 -0.36524886942E+02  0.56839575046E+02  0.15650210079E+03  0.17046322832E+03  0.00000000000E+00 0. -1.
        -11    1    3    3    0    0  0.92356318349E+01  0.32045605983E+03  0.64690922639E+03  0.72198956389E+03  0.00000000000E+00 0.  1.
          2    1    6    6  502    0 -0.33505763367E+02  0.16858071544E+02 -0.21107660424E+02  0.43039099474E+02  0.00000000000E+00 0. -1.
          3    1    5    5  503    0  0.67597246314E+02 -0.48474104216E+02  0.20505927810E+02  0.85671579676E+02  0.00000000000E+00 0. -1.
         -4    1    5    5    0  503  0.36359170563E+03 -0.31476372761E+03 -0.65585525210E+02  0.48536233243E+03  0.00000000000E+00 0.  1.
         -1    1    6    6    0  502 -0.37039393347E+03 -0.30915874603E+02 -0.31727807127E+02  0.37303365934E+03  0.00000000000E+00 0.  1.
<mgrwt>
<rscale>  0 0.17421305E+04</rscale>
<asrwt>0</asrwt>
<pdfrwt beam="1">  1        1 0.90312555E-01 0.17421305E+04</pdfrwt>
<pdfrwt beam="2">  1       -1 0.19885044E+00 0.17421305E+04</pdfrwt>
<totfact> 0.51366703E+00</totfact>
</mgrwt>
</event>
<event>
12    1  0.1549527E-007  0.1370649E+04  0.7818608E-02  0.8975343E-01
          1   -1    0    0  501    0  0.00000000000E+00  0.00000000000E+00  0.17424288794E+04  0.17424288794E+04  0.00000000000E+00 0. -1.
         -1   -1    0    0    0  501 -0.00000000000E+00 -0.00000000000E+00 -0.26954889459E+03  0.26954889459E+03  0.00000000000E+00 0.  1.
         23    2    1    2    0    0 -0.18688318524E+03 -0.17496134757E+03  0.89836717719E+03  0.93853295815E+03  0.90794991132E+02 0.  0.
        254    2    1    2    0    0  0.18688318524E+03  0.17496134757E+03  0.57451280765E+03  0.10734448159E+04  0.86987470850E+03 0.  0.
        -24    2    4    4    0    0  0.50931044784E+03  0.12253090473E+03  0.50079978557E+03  0.72920232631E+03  0.80775321550E+02 0.  0.
         24    2    4    4    0    0 -0.32242726260E+03  0.52430442841E+02  0.73713022076E+02  0.34424248955E+03  0.79755821005E+02 0.  0.
         11    1    3    3    0    0 -0.15661019588E+03 -0.13620136779E+03  0.57221044586E+03  0.60868905066E+03  0.00000000000E+00 0.  1.
        -11    1    3    3    0    0 -0.30272989356E+02 -0.38759979781E+02  0.32615673133E+03  0.32984390749E+03  0.00000000000E+00 0. -1.
          4    1    6    6  502    0 -0.24780686418E+03  0.15632270747E+02  0.79831698966E+02  0.26081738819E+03  0.00000000000E+00 0. -1.
          3    1    5    5  503    0  0.35371735801E+03  0.11664420582E+03  0.32447063686E+03  0.49396663277E+03  0.00000000000E+00 0. -1.
         -4    1    5    5    0  503  0.15559308983E+03  0.58866989042E+01  0.17632914871E+03  0.23523569354E+03  0.00000000000E+00 0.  1.
         -1    1    6    6    0  502 -0.74620398420E+02  0.36798172094E+02 -0.61186768904E+01  0.83425101358E+02  0.00000000000E+00 0.  1.
<mgrwt>
<rscale>  0 0.13706492E+04</rscale>
<asrwt>0</asrwt>
<pdfrwt beam="1">  1        1 0.26806597E+00 0.13706492E+04</pdfrwt>
<pdfrwt beam="2">  1       -1 0.41469062E-01 0.13706492E+04</pdfrwt>
<totfact> 0.24843522E+01</totfact>
</mgrwt>
</event>
<event>
12    1  0.1549527E-007  0.2277369E+04  0.7818608E-02  0.8486898E-01
         -2   -1    0    0    0  501 -0.00000000000E+00  0.00000000000E+00  0.52465602535E+03  0.52465602535E+03  0.00000000000E+00 0.  1.
          2   -1    0    0  501    0  0.00000000000E+00 -0.00000000000E+00 -0.24713385839E+04  0.24713385839E+04  0.00000000000E+00 0. -1.
         23    2    1    2    0    0  0.81679601711E+02 -0.57180551785E+03 -0.18251784373E+04  0.19165632788E+04  0.91133782006E+02 0.  0.
        254    2    1    2    0    0 -0.81679601711E+02  0.57180551785E+03 -0.12150412123E+03  0.10794313304E+04  0.90375640410E+03 0.  0.
        -24    2    4    4    0    0  0.15323789759E+03  0.56224546988E+03 -0.39560948144E+03  0.70924639314E+03  0.83197131650E+02 0.  0.
         24    2    4    4    0    0 -0.23491749930E+03  0.95600479690E+01  0.27410536021E+03  0.37018493724E+03  0.81397255913E+02 0.  0.
         11    1    3    3    0    0  0.82899703237E+02 -0.57518495364E+03 -0.18122444504E+04  0.19031395219E+04  0.00000000000E+00 0. -1.
        -11    1    3    3    0    0 -0.12201015260E+01  0.33794357937E+01 -0.12933986863E+02  0.13423756932E+02  0.00000000000E+00 0.  1.
          4    1    6    6  502    0 -0.82379876660E+02  0.39132269111E+02  0.78161287763E+02  0.12011230357E+03  0.00000000000E+00 0. -1.
          3    1    5    5  503    0  0.14412762302E+03  0.48524656994E+03 -0.37202293360E+03  0.62820225126E+03  0.00000000000E+00 0. -1.
         -4    1    5    5    0  503  0.91102745685E+01  0.76998899939E+02 -0.23586547841E+02  0.81044141883E+02  0.00000000000E+00 0.  1.
         -3    1    6    6    0  502 -0.15253762264E+03 -0.29572221142E+02  0.19594407245E+03  0.25007263367E+03  0.00000000000E+00 0.  1.
<mgrwt>
<rscale>  0 0.22773693E+04</rscale>
<asrwt>0</asrwt>
<pdfrwt beam="1">  1        2 0.38020593E+00 0.22773693E+04</pdfrwt>
<pdfrwt beam="2">  1       -2 0.80716312E-01 0.22773693E+04</pdfrwt>
<totfact> 0.44504830E+00</totfact>
</mgrwt>
</event>
<event>
12    1  0.1549527E-007  0.1787457E+04  0.7818608E-02  0.8712998E-01
          2   -1    0    0  501    0  0.00000000000E+00  0.00000000000E+00  0.20254159286E+04  0.20254159286E+04  0.00000000000E+00 0. -1.
         -2   -1    0    0    0  501 -0.00000000000E+00 -0.00000000000E+00 -0.39436358296E+03  0.39436358296E+03  0.00000000000E+00 0.  1.
         23    2    1    2    0    0  0.62373680794E+03 -0.22273230168E+03  0.47341117720E+03  0.82045372755E+03  0.10182775926E+03 0.  0.
        254    2    1    2    0    0 -0.62373680794E+03  0.22273230168E+03  0.11576411685E+04  0.15993257841E+04  0.88263956676E+03 0.  0.
        -24    2    4    4    0    0  0.12221163859E+03  0.30576833716E+03  0.26260467058E+03  0.42873569536E+03  0.80144387523E+02 0.  0.
         24    2    4    4    0    0 -0.74594844653E+03 -0.83036035472E+02  0.89503649790E+03  0.11705900887E+04  0.76529439637E+02 0.  0.
         11    1    3    3    0    0  0.29939723675E+03 -0.12904074043E+03  0.28952201036E+03  0.43601973872E+03  0.00000000000E+00 0. -1.
        -11    1    3    3    0    0  0.32433957119E+03 -0.93691561249E+02  0.18388916684E+03  0.38443398883E+03  0.00000000000E+00 0.  1.
          4    1    6    6  502    0 -0.72922719426E+03 -0.81005121454E+02  0.88905495331E+03  0.11527154205E+04  0.00000000000E+00 0. -1.
          3    1    5    5  503    0  0.12773332151E+03  0.28576190258E+03  0.22399676306E+03  0.38490286600E+03  0.00000000000E+00 0. -1.
         -4    1    5    5    0  503 -0.55216829253E+01  0.20006434572E+02  0.38607907521E+02  0.43832829360E+02  0.00000000000E+00 0.  1.
         -3    1    6    6    0  502 -0.16721252270E+02 -0.20309140183E+01  0.59815445841E+01  0.17874668244E+02  0.00000000000E+00 0.  1.
<mgrwt>
<rscale>  0 0.17874566E+04</rscale>
<asrwt>0</asrwt>
<pdfrwt beam="1">  1        2 0.31160244E+00 0.17874566E+04</pdfrwt>
<pdfrwt beam="2">  1       -2 0.60671322E-01 0.17874566E+04</pdfrwt>
<totfact> 0.15459762E+01</totfact>
</mgrwt>
</event>
<event>
12    1  0.1549527E-007  0.2435311E+04  0.7818608E-02  0.8426401E-01
         -1   -1    0    0    0  501 -0.00000000000E+00  0.00000000000E+00  0.98261816659E+03  0.98261816659E+03  0.00000000000E+00 0.  1.
          1   -1    0    0  501    0  0.00000000000E+00 -0.00000000000E+00 -0.15089119776E+04  0.15089119776E+04  0.00000000000E+00 0. -1.
         23    2    1    2    0    0 -0.44798011097E+03 -0.92915050329E+03 -0.64878669110E+02  0.10374929727E+04  0.90418963883E+02 0.  0.
        254    2    1    2    0    0  0.44798011097E+03  0.92915050329E+03 -0.46141514187E+03  0.14540371715E+04  0.91504826395E+03 0.  0.
        -24    2    4    4    0    0 -0.14827085085E+03  0.48145823269E+03 -0.48484212534E+03  0.70381532643E+03  0.80609256166E+02 0.  0.
         24    2    4    4    0    0  0.59625096182E+03  0.44769227060E+03  0.23426983466E+02  0.75022184507E+03  0.79626720588E+02 0.  0.
         13    1    3    3    0    0 -0.60107542634E+02 -0.66967979919E+02 -0.24018427716E+01  0.90018863938E+02  0.00000000000E+00 0. -1.
        -13    1    3    3    0    0 -0.38787256833E+03 -0.86218252337E+03 -0.62476826338E+02  0.94747410873E+03  0.00000000000E+00 0.  1.
          2    1    6    6  502    0 -0.19260517302E+00  0.92093871498E+01 -0.23082562894E+01  0.94962074285E+01  0.00000000000E+00 0. -1.
          3    1    5    5  503    0 -0.76008961100E+02  0.13116767307E+03 -0.12540980101E+03  0.19674841502E+03  0.00000000000E+00 0. -1.
         -4    1    5    5    0  503 -0.72261889755E+02  0.35029055962E+03 -0.35943232433E+03  0.50706691141E+03  0.00000000000E+00 0.  1.
         -1    1    6    6    0  502  0.59644356700E+03  0.43848288345E+03  0.25735239756E+02  0.74072563764E+03  0.00000000000E+00 0.  1.
<mgrwt>
<rscale>  0 0.24353105E+04</rscale>
<asrwt>0</asrwt>
<pdfrwt beam="1">  1        1 0.23214031E+00 0.24353105E+04</pdfrwt>
<pdfrwt beam="2">  1       -1 0.15117202E+00 0.24353105E+04</pdfrwt>
<totfact> 0.19684488E+00</totfact>
</mgrwt>
</event>
<event>
12    1  0.1549527E-007  0.1242885E+04  0.7818608E-02  0.9076126E-01
         -1   -1    0    0    0  501 -0.00000000000E+00  0.00000000000E+00  0.17431256443E+03  0.17431256443E+03  0.00000000000E+00 0.  1.
          1   -1    0    0  501    0  0.00000000000E+00 -0.00000000000E+00 -0.22155067829E+04  0.22155067829E+04  0.00000000000E+00 0. -1.
         23    2    1    2    0    0  0.83680758249E+02  0.70125930217E+01 -0.99525790168E+03  0.10030048714E+04  0.91808688799E+02 0.  0.
        254    2    1    2    0    0 -0.83680758249E+02 -0.70125930217E+01 -0.10459363168E+04  0.13868144760E+04  0.90676345662E+03 0.  0.
        -24    2    4    4    0    0  0.15129744073E+02  0.41836030089E+03 -0.71646257087E+03  0.83390675713E+03  0.82629374977E+02 0.  0.
         24    2    4    4    0    0 -0.98810502322E+02 -0.42537289392E+03 -0.32947374596E+03  0.55290771889E+03  0.80301818667E+02 0.  0.
         13    1    3    3    0    0  0.31165739335E+02 -0.24415226654E+01 -0.75710129869E+02  0.81910244206E+02  0.00000000000E+00 0.  1.
        -13    1    3    3    0    0  0.52515018914E+02  0.94541156872E+01 -0.91954777181E+03  0.92109462715E+03  0.00000000000E+00 0. -1.
          4    1    6    6  502    0 -0.28438889724E+02 -0.11993389215E+03 -0.50167178487E+02  0.13307762672E+03  0.00000000000E+00 0. -1.
          1    1    5    5  503    0  0.24894677465E+02  0.41116227286E+02 -0.10307927773E+03  0.11373489618E+03  0.00000000000E+00 0. -1.
         -2    1    5    5    0  503 -0.97649333923E+01  0.37724407361E+03 -0.61338329314E+03  0.72017186095E+03  0.00000000000E+00 0.  1.
         -3    1    6    6    0  502 -0.70371612598E+02 -0.30543900177E+03 -0.27930656747E+03  0.41983009217E+03  0.00000000000E+00 0.  1.
<mgrwt>
<rscale>  0 0.12428848E+04</rscale>
<asrwt>0</asrwt>
<pdfrwt beam="1">  1        1 0.34084719E+00 0.12428848E+04</pdfrwt>
<pdfrwt beam="2">  1       -1 0.26817319E-01 0.12428848E+04</pdfrwt>
<totfact> 0.26112036E+01</totfact>
</mgrwt>
</event>
<event>
12    1  0.1549527E-007  0.1620657E+04  0.7818608E-02  0.8807957E-01
          2   -1    0    0  501    0  0.00000000000E+00  0.00000000000E+00  0.23967609699E+04  0.23967609699E+04  0.00000000000E+00 0. -1.
         -2   -1    0    0    0  501 -0.00000000000E+00 -0.00000000000E+00 -0.27396653245E+03  0.27396653245E+03  0.00000000000E+00 0.  1.
         23    2    1    2    0    0 -0.34281961073E+03 -0.10289060570E+03  0.13988419985E+04  0.14481006378E+04  0.11011247945E+03 0.  0.
        254    2    1    2    0    0  0.34281961073E+03  0.10289060570E+03  0.72395243899E+03  0.12226268646E+04  0.91793112699E+03 0.  0.
        -24    2    4    4    0    0  0.36948941427E+02  0.90777905661E+02  0.86624468447E+03  0.87569322369E+03  0.82782342444E+02 0.  0.
         24    2    4    4    0    0  0.30587066930E+03  0.12112700043E+02 -0.14229224547E+03  0.34693364092E+03  0.80076739682E+02 0.  0.
         13    1    3    3    0    0  0.49572925134E+01  0.77902127160E+01  0.44326275170E+02  0.45277818341E+02  0.00000000000E+00 0.  1.
        -13    1    3    3    0    0 -0.34777690324E+03 -0.11068081842E+03  0.13545157233E+04  0.14028228194E+04  0.00000000000E+00 0. -1.
          4    1    6    6  502    0  0.12646106063E+03  0.41587324632E+02 -0.43731274452E+02  0.14012255276E+03  0.00000000000E+00 0. -1.
          1    1    5    5  503    0  0.26410566693E+02  0.56008059416E+02  0.22341426141E+03  0.23183691025E+03  0.00000000000E+00 0. -1.
         -2    1    5    5    0  503  0.10538374734E+02  0.34769846245E+02  0.64283042306E+03  0.64385631344E+03  0.00000000000E+00 0.  1.
         -3    1    6    6    0  502  0.17940960867E+03 -0.29474624589E+02 -0.98560971021E+02  0.20681108816E+03  0.00000000000E+00 0.  1.
<mgrwt>
<rscale>  0 0.16206570E+04</rscale>
<asrwt>0</asrwt>
<pdfrwt beam="1">  1        2 0.36873244E+00 0.16206570E+04</pdfrwt>
<pdfrwt beam="2">  1       -2 0.42148699E-01 0.16206570E+04</pdfrwt>
<totfact> 0.20424148E+01</totfact>
</mgrwt>
</event>
<event>
12    1  0.1549527E-007  0.1309136E+04  0.7818608E-02  0.9022351E-01
         -1   -1    0    0    0  501 -0.00000000000E+00  0.00000000000E+00  0.61034903303E+03  0.61034903303E+03  0.00000000000E+00 0.  1.
          1   -1    0    0  501    0  0.00000000000E+00 -0.00000000000E+00 -0.70199061360E+03  0.70199061360E+03  0.00000000000E+00 0. -1.
         23    2    1    2    0    0  0.64663030275E+02  0.25705368770E+03 -0.23368105247E+03  0.36542057131E+03  0.93099161118E+02 0.  0.
        254    2    1    2    0    0 -0.64663030275E+02 -0.25705368770E+03  0.14203947190E+03  0.94691907532E+03  0.89789900200E+03 0.  0.
        -24    2    4    4    0    0 -0.38515376361E+03  0.12175184988E+03  0.16509253666E+03  0.44387973307E+03  0.81281838057E+02 0.  0.
         24    2    4    4    0    0  0.32049073333E+03 -0.37880553758E+03 -0.23053064761E+02  0.50303934225E+03  0.79430413576E+02 0.  0.
         11    1    3    3    0    0  0.24369349806E+02  0.83866844883E+02 -0.24155075539E+02  0.90614461069E+02  0.00000000000E+00 0.  1.
        -11    1    3    3    0    0  0.40293680469E+02  0.17318684282E+03 -0.20952597694E+03  0.27480611024E+03  0.00000000000E+00 0. -1.
          4    1    6    6  502    0  0.86707312296E+02 -0.10610660341E+03 -0.42077331739E+02  0.14334319355E+03  0.00000000000E+00 0. -1.
          1    1    5    5  503    0 -0.20342389525E+03  0.63494668002E+02  0.13062881404E+03  0.24995347783E+03  0.00000000000E+00 0. -1.
         -2    1    5    5    0  503 -0.18172986836E+03  0.58257181879E+02  0.34463722629E+02  0.19392625524E+03  0.00000000000E+00 0.  1.
         -3    1    6    6    0  502  0.23378342104E+03 -0.27269893418E+03  0.19024266978E+02  0.35969614870E+03  0.00000000000E+00 0.  1.
<mgrwt>
<rscale>  0 0.13091360E+04</rscale>
<asrwt>0</asrwt>
<pdfrwt beam="1">  1        1 0.10799855E+00 0.13091360E+04</pdfrwt>
<pdfrwt beam="2">  1       -1 0.93899852E-01 0.13091360E+04</pdfrwt>
<totfact> 0.29289098E+01</totfact>
</mgrwt>
</event>
<event>
12    1  0.1549527E-007  0.1330919E+04  0.7818608E-02  0.9005399E-01
         -1   -1    0    0    0  501 -0.00000000000E+00  0.00000000000E+00  0.11942024132E+04  0.11942024132E+04  0.00000000000E+00 0.  1.
          1   -1    0    0  501    0  0.00000000000E+00 -0.00000000000E+00 -0.37082171974E+03  0.37082171974E+03  0.00000000000E+00 0. -1.
         23    2    1    2    0    0  0.45280790997E+02  0.31483488687E+03  0.66878265331E+02  0.33777728125E+03  0.91920799245E+02 0.  0.
        254    2    1    2    0    0 -0.45280790997E+02 -0.31483488687E+03  0.75650242817E+03  0.12272468517E+04  0.91250619461E+03 0.  0.
        -24    2    4    4    0    0  0.14934950156E+03  0.20881327523E+03  0.57448921129E+03  0.63435985402E+03  0.80413387991E+02 0.  0.
         24    2    4    4    0    0 -0.19463029256E+03 -0.52364816210E+03  0.18201321687E+03  0.59288699770E+03  0.79358884032E+02 0.  0.
         13    1    3    3    0    0  0.36678621938E+02  0.21676165995E+03  0.19623412504E+01  0.21985174394E+03  0.00000000000E+00 0. -1.
        -13    1    3    3    0    0  0.86021690590E+01  0.98073226925E+02  0.64915924080E+02  0.11792553732E+03  0.00000000000E+00 0.  1.
          4    1    6    6  502    0 -0.71373801179E+02 -0.13861184150E+03  0.83129870344E+02  0.17668626841E+03  0.00000000000E+00 0. -1.
          1    1    5    5  503    0  0.13627771776E+03  0.12854421886E+03  0.41539105084E+03  0.45568076290E+03  0.00000000000E+00 0. -1.
         -2    1    5    5    0  503  0.13071783799E+02  0.80269056373E+02  0.15909816045E+03  0.17867909111E+03  0.00000000000E+00 0.  1.
         -3    1    6    6    0  502 -0.12325649138E+03 -0.38503632060E+03  0.98883346530E+02  0.41620072930E+03  0.00000000000E+00 0.  1.
<mgrwt>
<rscale>  0 0.13309188E+04</rscale>
<asrwt>0</asrwt>
<pdfrwt beam="1">  1        1 0.57049496E-01 0.13309188E+04</pdfrwt>
<pdfrwt beam="2">  1       -1 0.18372345E+00 0.13309188E+04</pdfrwt>
<totfact> 0.12729130E+01</totfact>
</mgrwt>
</event>
<event>
12    1  0.1549527E-007  0.1481463E+04  0.7818608E-02  0.8896874E-01
          2   -1    0    0  501    0  0.00000000000E+00  0.00000000000E+00  0.19033877065E+04  0.19033877065E+04  0.00000000000E+00 0. -1.
         -2   -1    0    0    0  501 -0.00000000000E+00 -0.00000000000E+00 -0.28826654731E+03  0.28826654731E+03  0.00000000000E+00 0.  1.
         23    2    1    2    0    0 -0.47327055923E+02  0.22294247463E+03  0.11041552560E+04  0.11311910311E+04  0.92147285429E+02 0.  0.
        254    2    1    2    0    0  0.47327055923E+02 -0.22294247463E+03  0.51096590317E+03  0.10604632227E+04  0.90086230652E+03 0.  0.
        -24    2    4    4    0    0  0.21203495955E+02 -0.22859175568E+03  0.75999476425E+03  0.79775430091E+03  0.78205523698E+02 0.  0.
         24    2    4    4    0    0  0.26123559969E+02  0.56492810577E+01 -0.24902886108E+03  0.26270892180E+03  0.79285869996E+02 0.  0.
         13    1    3    3    0    0 -0.59900368665E+02  0.19657161171E+03  0.10472862110E+04  0.10672566985E+04  0.00000000000E+00 0. -1.
        -13    1    3    3    0    0  0.12573312741E+02  0.26370862918E+02  0.56869044936E+02  0.63934332531E+02  0.00000000000E+00 0.  1.
          4    1    6    6  502    0 -0.12715686607E+02  0.23151390311E+02 -0.17750490684E+03  0.17945937566E+03  0.00000000000E+00 0. -1.
          1    1    5    5  503    0  0.10075201263E+02 -0.16424584741E+03  0.64348887810E+03  0.66419586291E+03  0.00000000000E+00 0. -1.
         -2    1    5    5    0  503  0.11128294692E+02 -0.64345908276E+02  0.11650588615E+03  0.13355843800E+03  0.00000000000E+00 0.  1.
         -3    1    6    6    0  502  0.38839246575E+02 -0.17502109253E+02 -0.71523954237E+02  0.83249546140E+02  0.00000000000E+00 0.  1.
<mgrwt>
<rscale>  0 0.14814628E+04</rscale>
<asrwt>0</asrwt>
<pdfrwt beam="1">  1        2 0.29282887E+00 0.14814628E+04</pdfrwt>
<pdfrwt beam="2">  1       -2 0.44348701E-01 0.14814628E+04</pdfrwt>
<totfact> 0.35277855E+01</totfact>
</mgrwt>
</event>
<event>
12    1  0.1549527E-007  0.1801942E+04  0.7818608E-02  0.8705267E-01
          2   -1    0    0  501    0  0.00000000000E+00  0.00000000000E+00  0.12807249884E+04  0.12807249884E+04  0.00000000000E+00 0.  1.
         -2   -1    0    0    0  501 -0.00000000000E+00 -0.00000000000E+00 -0.63381970878E+03  0.63381970878E+03  0.00000000000E+00 0. -1.
         23    2    1    2    0    0 -0.17581885349E+03 -0.39613460278E+03  0.79546637240E+03  0.91031621434E+03  0.89855259788E+02 0.  0.
        254    2    1    2    0    0  0.17581885349E+03  0.39613460278E+03 -0.14856109274E+03  0.10042284829E+04  0.89362719003E+03 0.  0.
        -24    2    4    4    0    0  0.50653753185E+03  0.37170332912E+03 -0.34247487429E+01  0.63336302191E+03  0.79958442752E+02 0.  0.
         24    2    4    4    0    0 -0.33071867835E+03  0.24431273661E+02 -0.14513634400E+03  0.37086546096E+03  0.80652962971E+02 0.  0.
         13    1    3    3    0    0 -0.14534857668E+03 -0.22315920637E+03  0.50337179423E+03  0.56948169713E+03  0.00000000000E+00 0.  1.
        -13    1    3    3    0    0 -0.30470276813E+02 -0.17297539641E+03  0.29209457817E+03  0.34083451722E+03  0.00000000000E+00 0. -1.
          4    1    6    6  502    0 -0.85386284233E+02  0.28060781165E+02 -0.71034233280E+02  0.11456040883E+03  0.00000000000E+00 0. -1.
          1    1    5    5  503    0  0.14358367227E+03  0.67405855615E+02  0.15306587697E+02  0.15935530095E+03  0.00000000000E+00 0. -1.
         -2    1    5    5    0  503  0.36295385958E+03  0.30429747351E+03 -0.18731336440E+02  0.47400772096E+03  0.00000000000E+00 0.  1.
         -3    1    6    6    0  502 -0.24533239412E+03 -0.36295075043E+01 -0.74102110718E+02  0.25630505212E+03  0.00000000000E+00 0.  1.
<mgrwt>
<rscale>  0 0.18019420E+04</rscale>
<asrwt>0</asrwt>
<pdfrwt beam="1">  1        2 0.19703461E+00 0.18019420E+04</pdfrwt>
<pdfrwt beam="2">  1       -2 0.97510725E-01 0.18019420E+04</pdfrwt>
<totfact> 0.14042024E+01</totfact>
</mgrwt>
</event>
<event>
12    1  0.1549527E-007  0.1721577E+04  0.7818608E-02  0.8749153E-01
          1   -1    0    0  501    0  0.00000000000E+00  0.00000000000E+00  0.17041952721E+04  0.17041952721E+04  0.00000000000E+00 0. -1.
         -1   -1    0    0    0  501 -0.00000000000E+00 -0.00000000000E+00 -0.43478379661E+03  0.43478379661E+03  0.00000000000E+00 0.  1.
         23    2    1    2    0    0  0.14543929113E+03  0.12894897881E+03  0.12014619339E+04  0.12203927108E+04  0.89817390038E+02 0.  0.
        254    2    1    2    0    0 -0.14543929113E+03 -0.12894897881E+03  0.67949541644E+02  0.91858635792E+03  0.89521133271E+03 0.  0.
        -24    2    4    4    0    0  0.83231828544E+02 -0.28591036672E+03  0.38252697133E+03  0.49146281399E+03  0.80848863108E+02 0.  0.
         24    2    4    4    0    0 -0.22867111967E+03  0.15696138791E+03 -0.31457742968E+03  0.42712354393E+03  0.80920975301E+02 0.  0.
         11    1    3    3    0    0  0.12033575670E+03  0.58083490904E+02  0.89065443968E+03  0.90062185027E+03  0.00000000000E+00 0. -1.
        -11    1    3    3    0    0  0.25103534434E+02  0.70865487907E+02  0.31080749419E+03  0.31977086056E+03  0.00000000000E+00 0.  1.
          2    1    6    6  502    0 -0.22332193551E+03  0.14234678720E+03 -0.31502640015E+03  0.41155428257E+03  0.00000000000E+00 0. -1.
          1    1    5    5  503    0  0.91160832109E+02 -0.26377722652E+03  0.31968458176E+03  0.42436653303E+03  0.00000000000E+00 0. -1.
         -2    1    5    5    0  503 -0.79290035649E+01 -0.22133140198E+02  0.62842389566E+02  0.67096280962E+02  0.00000000000E+00 0.  1.
         -1    1    6    6    0  502 -0.53491841595E+01  0.14614600702E+02  0.44897046166E+00  0.15569261361E+02  0.00000000000E+00 0.  1.
<mgrwt>
<rscale>  0 0.17215766E+04</rscale>
<asrwt>0</asrwt>
<pdfrwt beam="1">  1        1 0.26218388E+00 0.17215766E+04</pdfrwt>
<pdfrwt beam="2">  1       -1 0.66889816E-01 0.17215766E+04</pdfrwt>
<totfact> 0.10182975E+01</totfact>
</mgrwt>
</event>
<event>
12    1  0.1549527E-007  0.1520384E+04  0.7818608E-02  0.8871010E-01
          1   -1    0    0  501    0  0.00000000000E+00  0.00000000000E+00  0.71886174157E+03  0.71886174157E+03  0.00000000000E+00 0. -1.
         -1   -1    0    0    0  501 -0.00000000000E+00 -0.00000000000E+00 -0.80389801880E+03  0.80389801880E+03  0.00000000000E+00 0.  1.
         23    2    1    2    0    0  0.27830232846E+03  0.67139266325E+02 -0.42036973195E+03  0.51624260085E+03  0.88520304400E+02 0.  0.
        254    2    1    2    0    0 -0.27830232846E+03 -0.67139266325E+02  0.33533345472E+03  0.10065171595E+04  0.90480296168E+03 0.  0.
        -24    2    4    4    0    0  0.90008596712E+02  0.35822563480E+03  0.10917239621E+03  0.39488826199E+03  0.87126198394E+02 0.  0.
         24    2    4    4    0    0 -0.36831092517E+03 -0.42536490113E+03  0.22616105850E+03  0.61162889754E+03  0.79704750234E+02 0.  0.
         11    1    3    3    0    0  0.10517852383E+03  0.55200336172E+02 -0.22854878359E+03  0.25757357293E+03  0.00000000000E+00 0. -1.
        -11    1    3    3    0    0  0.17312380462E+03  0.11938930153E+02 -0.19182094836E+03  0.25866902793E+03  0.00000000000E+00 0.  1.
          2    1    6    6  502    0 -0.85971523730E+02 -0.53393547746E+02  0.44422422508E+02  0.11052296347E+03  0.00000000000E+00 0. -1.
          3    1    5    5  503    0  0.10043849207E+03  0.34909996668E+03  0.95916899476E+02  0.37571096474E+03  0.00000000000E+00 0. -1.
         -4    1    5    5    0  503 -0.10429895353E+02  0.91256681283E+01  0.13255496738E+02  0.19177297245E+02  0.00000000000E+00 0.  1.
         -1    1    6    6    0  502 -0.28233940144E+03 -0.37197135338E+03  0.18173863599E+03  0.50110593406E+03  0.00000000000E+00 0.  1.
<mgrwt>
<rscale>  0 0.15203835E+04</rscale>
<asrwt>0</asrwt>
<pdfrwt beam="1">  1        1 0.11059411E+00 0.15203835E+04</pdfrwt>
<pdfrwt beam="2">  1       -1 0.12367662E+00 0.15203835E+04</pdfrwt>
<totfact> 0.14520593E+01</totfact>
</mgrwt>
</event>
<event>
12    1  0.1549527E-007  0.1684097E+04  0.7818608E-02  0.8770487E-01
          2   -1    0    0  501    0  0.00000000000E+00  0.00000000000E+00  0.16313252085E+04  0.16313252085E+04  0.00000000000E+00 0.  1.
         -2   -1    0    0    0  501 -0.00000000000E+00 -0.00000000000E+00 -0.43464392373E+03  0.43464392373E+03  0.00000000000E+00 0. -1.
         23    2    1    2    0    0  0.47214215431E+02 -0.10640134115E+03 -0.29122530629E+03  0.32613545093E+03  0.89452366039E+02 0.  0.
        254    2    1    2    0    0 -0.47214215431E+02  0.10640134115E+03  0.14879065911E+04  0.17398336813E+04  0.89420623313E+03 0.  0.
        -24    2    4    4    0    0 -0.24683816065E+03  0.43097378946E+03  0.95964553711E+03  0.10835606594E+04  0.80725837652E+02 0.  0.
         24    2    4    4    0    0  0.19962394522E+03 -0.32457244831E+03  0.52826105398E+03  0.65627302198E+03  0.80234310104E+02 0.  0.
         13    1    3    3    0    0 -0.17183395750E+02 -0.66323171105E+02 -0.16804329649E+03  0.18147336336E+03  0.00000000000E+00 0. -1.
        -13    1    3    3    0    0  0.64397611181E+02 -0.40078170044E+02 -0.12318200980E+03  0.14466208757E+03  0.00000000000E+00 0.  1.
          2    1    6    6  502    0 -0.33029951682E+01 -0.15513360014E+02  0.73309072031E+01  0.17473302963E+02  0.00000000000E+00 0. -1.
          3    1    5    5  503    0 -0.21286373711E+02  0.93817888902E+02  0.15451443659E+03  0.18201543093E+03  0.00000000000E+00 0. -1.
         -4    1    5    5    0  503 -0.22555178694E+03  0.33715590055E+03  0.80513110052E+03  0.90154522842E+03  0.00000000000E+00 0.  1.
         -3    1    6    6    0  502  0.20292694039E+03 -0.30905908829E+03  0.52093014678E+03  0.63879971902E+03  0.00000000000E+00 0.  1.
<mgrwt>
<rscale>  0 0.16840969E+04</rscale>
<asrwt>0</asrwt>
<pdfrwt beam="1">  1        2 0.25097311E+00 0.16840969E+04</pdfrwt>
<pdfrwt beam="2">  1       -2 0.66868297E-01 0.16840969E+04</pdfrwt>
<totfact> 0.20953986E+01</totfact>
</mgrwt>
</event>
<event>
12    1  0.1549527E-007  0.1450716E+04  0.7818608E-02  0.8917904E-01
          1   -1    0    0  501    0  0.00000000000E+00  0.00000000000E+00  0.16616125315E+04  0.16616125315E+04  0.00000000000E+00 0. -1.
         -1   -1    0    0    0  501 -0.00000000000E+00 -0.00000000000E+00 -0.31664691187E+03  0.31664691187E+03  0.00000000000E+00 0.  1.
         23    2    1    2    0    0  0.28596147538E+03  0.59004741193E+02  0.85793475122E+03  0.91081868404E+03  0.91011608918E+02 0.  0.
        254    2    1    2    0    0 -0.28596147538E+03 -0.59004741193E+02  0.48703086836E+03  0.10674407593E+04  0.90386679493E+03 0.  0.
        -24    2    4    4    0    0  0.12738419268E+03 -0.37657775495E+03  0.31074047140E+03  0.51135878228E+03  0.83009792058E+02 0.  0.
         24    2    4    4    0    0 -0.41334566805E+03  0.31757301376E+03  0.17629039696E+03  0.55608197701E+03  0.80259583415E+02 0.  0.
         11    1    3    3    0    0  0.12473586443E+03  0.73990632687E+01  0.49208682504E+03  0.50770387569E+03  0.00000000000E+00 0.  1.
        -11    1    3    3    0    0  0.16122561094E+03  0.51605677924E+02  0.36584792618E+03  0.40311480835E+03  0.00000000000E+00 0. -1.
          4    1    6    6  502    0 -0.14001112870E+03  0.15310518979E+03  0.85636806340E+02  0.22445039074E+03  0.00000000000E+00 0. -1.
          3    1    5    5  503    0  0.84810525396E+02 -0.33042743241E+03  0.28058383513E+03  0.44170397535E+03  0.00000000000E+00 0. -1.
         -4    1    5    5    0  503  0.42573667283E+02 -0.46150322546E+02  0.30156636275E+02  0.69654806930E+02  0.00000000000E+00 0.  1.
         -3    1    6    6    0  502 -0.27333453935E+03  0.16446782397E+03  0.90653590615E+02  0.33163158627E+03  0.00000000000E+00 0.  1.
<mgrwt>
<rscale>  0 0.14507163E+04</rscale>
<asrwt>0</asrwt>
<pdfrwt beam="1">  1        1 0.25563269E+00 0.14507163E+04</pdfrwt>
<pdfrwt beam="2">  1       -1 0.48714911E-01 0.14507163E+04</pdfrwt>
<totfact> 0.20739060E+01</totfact>
</mgrwt>
</event>
<event>
12    1  0.1549527E-007  0.1150329E+04  0.7818608E-02  0.9157480E-01
          2   -1    0    0  501    0  0.00000000000E+00  0.00000000000E+00  0.17604159173E+04  0.17604159173E+04  0.00000000000E+00 0. -1.
         -2   -1    0    0    0  501 -0.00000000000E+00 -0.00000000000E+00 -0.18791822733E+03  0.18791822733E+03  0.00000000000E+00 0.  1.
         23    2    1    2    0    0  0.94121807285E+02  0.18146537236E+03  0.23524879053E+03  0.32473346895E+03  0.91220811451E+02 0.  0.
        254    2    1    2    0    0 -0.94121807285E+02 -0.18146537236E+03  0.13372488994E+04  0.16236006757E+04  0.89780618121E+03 0.  0.
        -24    2    4    4    0    0  0.80948410086E+02  0.30313552330E+03  0.22229712405E+03  0.39276816798E+03  0.80043936935E+02 0.  0.
         24    2    4    4    0    0 -0.17507021737E+03 -0.48460089566E+03  0.11149517754E+04  0.12308325077E+04  0.79646666286E+02 0.  0.
         11    1    3    3    0    0  0.66501706838E+02  0.78426301549E+02  0.58541462693E+02  0.11832271397E+03  0.00000000000E+00 0.  1.
        -11    1    3    3    0    0  0.27620100447E+02  0.10303907081E+03  0.17670732784E+03  0.20641075498E+03  0.00000000000E+00 0. -1.
          4    1    6    6  502    0 -0.15398264626E+03 -0.41064544855E+03  0.10063280020E+04  0.10977414939E+04  0.00000000000E+00 0. -1.
          3    1    5    5  503    0  0.45127224470E+02  0.24757965381E+03  0.14269987042E+03  0.28930158035E+03  0.00000000000E+00 0. -1.
         -4    1    5    5    0  503  0.35821185616E+02  0.55555869484E+02  0.79597253622E+02  0.10346658764E+03  0.00000000000E+00 0.  1.
         -3    1    6    6    0  502 -0.21087571112E+02 -0.73955447106E+02  0.10862377339E+03  0.13309101381E+03  0.00000000000E+00 0.  1.
<mgrwt>
<rscale>  0 0.11503291E+04</rscale>
<asrwt>0</asrwt>
<pdfrwt beam="1">  1        2 0.27083321E+00 0.11503291E+04</pdfrwt>
<pdfrwt beam="2">  1       -2 0.28910498E-01 0.11503291E+04</pdfrwt>
<totfact> 0.98721808E+01</totfact>
</mgrwt>
</event>
<event>
12    1  0.1549527E-007  0.1518222E+04  0.7818608E-02  0.8872425E-01
          2   -1    0    0  501    0  0.00000000000E+00  0.00000000000E+00  0.16872004525E+04  0.16872004525E+04  0.00000000000E+00 0. -1.
         -2   -1    0    0    0  501 -0.00000000000E+00 -0.00000000000E+00 -0.34154175292E+03  0.34154175292E+03  0.00000000000E+00 0.  1.
         23    2    1    2    0    0  0.33618096165E+03  0.30547620247E+03  0.67990124911E+03  0.82273437778E+03  0.91064804366E+02 0.  0.
        254    2    1    2    0    0 -0.33618096165E+03 -0.30547620247E+03  0.66575745045E+03  0.12060078276E+04  0.89715581043E+03 0.  0.
        -24    2    4    4    0    0 -0.40358857552E+03 -0.26060708017E+02  0.78348091996E+03  0.88539358240E+03  0.80725120092E+02 0.  0.
         24    2    4    4    0    0  0.67407613867E+02 -0.27941549445E+03 -0.11772346951E+03  0.32061424522E+03  0.79485055296E+02 0.  0.
         11    1    3    3    0    0  0.28285978435E+02  0.67450961949E+00  0.61193913995E+02  0.67418444429E+02  0.00000000000E+00 0.  1.
        -11    1    3    3    0    0  0.30789498322E+03  0.30480169285E+03  0.61870733511E+03  0.75531593335E+03  0.00000000000E+00 0. -1.
          2    1    6    6  502    0  0.47766268580E+02 -0.22023426728E+03 -0.12522351537E+03  0.25780938249E+03  0.00000000000E+00 0. -1.
          3    1    5    5  503    0 -0.27131025859E+03  0.55719505501E+01  0.58386955772E+03  0.64385088606E+03  0.00000000000E+00 0. -1.
         -4    1    5    5    0  503 -0.13227831693E+03 -0.31632658567E+02  0.19961136224E+03  0.24154269633E+03  0.00000000000E+00 0.  1.
         -1    1    6    6    0  502  0.19641345287E+02 -0.59181227172E+02  0.75000458586E+01  0.62804862727E+02  0.00000000000E+00 0.  1.
<mgrwt>
<rscale>  0 0.15182219E+04</rscale>
<asrwt>0</asrwt>
<pdfrwt beam="1">  1        2 0.25956930E+00 0.15182219E+04</pdfrwt>
<pdfrwt beam="2">  1       -2 0.52544886E-01 0.15182219E+04</pdfrwt>
<totfact> 0.32869072E+01</totfact>
</mgrwt>
</event>
<event>
12    1  0.1710371E-007  0.1895423E+04  0.7818608E-02  0.8657138E-01
         -1   -1    0    0    0  501 -0.00000000000E+00  0.00000000000E+00  0.87619295772E+03  0.87619295772E+03  0.00000000000E+00 0.  1.
          1   -1    0    0  501    0  0.00000000000E+00 -0.00000000000E+00 -0.10250676701E+04  0.10250676701E+04  0.00000000000E+00 0. -1.
         23    2    1    2    0    0  0.29642033683E+03 -0.10778086341E+03 -0.69149201280E+03  0.76529482127E+03  0.89628282935E+02 0.  0.
        254    2    1    2    0    0 -0.29642033683E+03  0.10778086341E+03  0.54261730044E+03  0.11359658065E+04  0.94683844885E+03 0.  0.
        -24    2    4    4    0    0  0.79781306888E+01 -0.36147824967E+03  0.25743239373E+02  0.37053848506E+03  0.76849716885E+02 0.  0.
         24    2    4    4    0    0 -0.30439846752E+03  0.46925911308E+03  0.51687406107E+03  0.76542732145E+03  0.76535267556E+02 0.  0.
         13    1    3    3    0    0  0.30183647529E+03 -0.10049979680E+03 -0.67923879891E+03  0.75004720713E+03  0.00000000000E+00 0. -1.
        -13    1    3    3    0    0 -0.54161384547E+01 -0.72810666056E+01 -0.12253213886E+02  0.15247614148E+02  0.00000000000E+00 0.  1.
          4    1    6    6  502    0 -0.27476609072E+03  0.39402745512E+03  0.46955934184E+03  0.67174401040E+03  0.00000000000E+00 0. -1.
          3    1    5    5  503    0 -0.45433359427E+01 -0.29316307142E+03 -0.80318409948E+01  0.29330826585E+03  0.00000000000E+00 0. -1.
         -4    1    5    5    0  503  0.12521466632E+02 -0.68315178253E+02  0.33775080367E+02  0.77230219216E+02  0.00000000000E+00 0.  1.
         -3    1    6    6    0  502 -0.29632376801E+02  0.75231657951E+02  0.47314719231E+02  0.93683311048E+02  0.00000000000E+00 0.  1.
<mgrwt>
<rscale>  0 0.18954230E+04</rscale>
<asrwt>0</asrwt>
<pdfrwt beam="1">  1        1 0.15770272E+00 0.18954230E+04</pdfrwt>
<pdfrwt beam="2">  1       -1 0.13479892E+00 0.18954230E+04</pdfrwt>
<totfact> 0.62616309E+00</totfact>
</mgrwt>
</event>
<event>
12    1  0.1549527E-007  0.1546131E+04  0.7818608E-02  0.8854343E-01
         -1   -1    0    0    0  501 -0.00000000000E+00  0.00000000000E+00  0.36195713889E+03  0.36195713889E+03  0.00000000000E+00 0.  1.
          1   -1    0    0  501    0  0.00000000000E+00 -0.00000000000E+00 -0.16511071029E+04  0.16511071029E+04  0.00000000000E+00 0. -1.
         23    2    1    2    0    0 -0.36892520689E+03 -0.32871262150E+03 -0.32168126169E+03  0.59659425973E+03  0.91038897230E+02 0.  0.
        254    2    1    2    0    0  0.36892520689E+03  0.32871262150E+03 -0.96746870230E+03  0.14164699820E+04  0.90897399540E+03 0.  0.
        -24    2    4    4    0    0 -0.26508940743E+03 -0.58823432510E+02 -0.32444018485E+03  0.43058649881E+03  0.80066904933E+02 0.  0.
         24    2    4    4    0    0  0.63401461432E+03  0.38753605401E+03 -0.64302851745E+03  0.98588348324E+03  0.79510024188E+02 0.  0.
         11    1    3    3    0    0 -0.33575584580E+03 -0.30386175985E+03 -0.32112533598E+03  0.55514452037E+03  0.00000000000E+00 0.  1.
        -11    1    3    3    0    0 -0.33169361083E+02 -0.24850861642E+02 -0.55592571017E+00  0.41449739352E+02  0.00000000000E+00 0. -1.
          2    1    6    6  502    0  0.61259934815E+03  0.37951301794E+03 -0.60235997098E+03  0.93922607863E+03  0.00000000000E+00 0. -1.
          1    1    5    5  503    0 -0.21910101142E+03 -0.72767976214E+02 -0.23731823716E+03  0.33108968159E+03  0.00000000000E+00 0. -1.
         -2    1    5    5    0  503 -0.45988396009E+02  0.13944543704E+02 -0.87121947688E+02  0.99496817214E+02  0.00000000000E+00 0.  1.
         -1    1    6    6    0  502  0.21415266171E+02  0.80230360643E+01 -0.40668546476E+02  0.46657404614E+02  0.00000000000E+00 0.  1.
<mgrwt>
<rscale>  0 0.15461307E+04</rscale>
<asrwt>0</asrwt>
<pdfrwt beam="1">  1        1 0.25401648E+00 0.15461307E+04</pdfrwt>
<pdfrwt beam="2">  1       -1 0.55685713E-01 0.15461307E+04</pdfrwt>
<totfact> 0.16179417E+01</totfact>
</mgrwt>
</event>
<event>
12    1  0.1549527E-007  0.1982999E+04  0.7818608E-02  0.8614611E-01
          1   -1    0    0  501    0  0.00000000000E+00  0.00000000000E+00  0.10475127993E+04  0.10475127993E+04  0.00000000000E+00 0. -1.
         -1   -1    0    0    0  501 -0.00000000000E+00 -0.00000000000E+00 -0.93848141154E+03  0.93848141154E+03  0.00000000000E+00 0.  1.
         23    2    1    2    0    0 -0.17172647086E+03 -0.73480007764E+03 -0.15899011550E+03  0.77651979041E+03  0.91016444558E+02 0.  0.
        254    2    1    2    0    0  0.17172647086E+03  0.73480007764E+03  0.26802150326E+03  0.12094744204E+04  0.90640593147E+03 0.  0.
        -24    2    4    4    0    0 -0.11965985854E+02  0.24584632422E+03  0.55215829012E+03  0.60964208031E+03  0.78746992255E+02 0.  0.
         24    2    4    4    0    0  0.18369245671E+03  0.48895375341E+03 -0.28413678686E+03  0.59983234013E+03  0.79034365904E+02 0.  0.
         11    1    3    3    0    0  0.24283921114E+01 -0.27758775915E+01 -0.83572316093E+01  0.91348730052E+01  0.00000000000E+00 0.  1.
        -11    1    3    3    0    0 -0.17415486297E+03 -0.73202420005E+03 -0.15063288389E+03  0.76738491740E+03  0.00000000000E+00 0. -1.
          2    1    6    6  502    0 -0.81099991167E+01  0.18895243288E+02 -0.12075960893E+02  0.23845987840E+02  0.00000000000E+00 0. -1.
          1    1    5    5  503    0 -0.25899066486E+02  0.80731089007E+02  0.12107450620E+03  0.14780834357E+03  0.00000000000E+00 0. -1.
         -2    1    5    5    0  503  0.13933080632E+02  0.16511523522E+03  0.43108378392E+03  0.46183373674E+03  0.00000000000E+00 0.  1.
         -1    1    6    6    0  502  0.19180245583E+03  0.47005851013E+03 -0.27206082596E+03  0.57598635229E+03  0.00000000000E+00 0.  1.
<mgrwt>
<rscale>  0 0.19829990E+04</rscale>
<asrwt>0</asrwt>
<pdfrwt beam="1">  1        1 0.16115582E+00 0.19829990E+04</pdfrwt>
<pdfrwt beam="2">  1       -1 0.14438175E+00 0.19829990E+04</pdfrwt>
<totfact> 0.49907622E+00</totfact>
</mgrwt>
</event>
<event>
12    1  0.1549527E-007  0.1621475E+04  0.7818608E-02  0.8807462E-01
         -1   -1    0    0    0  501 -0.00000000000E+00  0.00000000000E+00  0.82225248043E+03  0.82225248043E+03  0.00000000000E+00 0.  1.
          1   -1    0    0  501    0  0.00000000000E+00 -0.00000000000E+00 -0.79938420308E+03  0.79938420308E+03  0.00000000000E+00 0. -1.
         23    2    1    2    0    0 -0.51073013923E+03  0.22519099893E+03 -0.65424791007E+01  0.56634686641E+03  0.95654105746E+02 0.  0.
        254    2    1    2    0    0  0.51073013923E+03 -0.22519099893E+03  0.29410756449E+02  0.10552898171E+04  0.89510633131E+03 0.  0.
        -24    2    4    4    0    0  0.59274285783E+03 -0.36262706533E+03  0.27529311530E+03  0.75080982582E+03  0.71320482339E+02 0.  0.
         24    2    4    4    0    0 -0.82012718594E+02  0.13743606640E+03 -0.24588235885E+03  0.30447999128E+03  0.81456567174E+02 0.  0.
         13    1    3    3    0    0 -0.44809601628E+03  0.20470130087E+03  0.25029610441E+02  0.49327390341E+03  0.00000000000E+00 0.  1.
        -13    1    3    3    0    0 -0.62634122954E+02  0.20489698053E+02 -0.31572089541E+02  0.73072963006E+02  0.00000000000E+00 0. -1.
          2    1    6    6  502    0 -0.86761147533E+02  0.10617624566E+03 -0.14863120042E+03  0.20221801503E+03  0.00000000000E+00 0. -1.
          1    1    5    5  503    0  0.50074408323E+03 -0.30576047091E+03  0.20354042176E+03  0.62101755672E+03  0.00000000000E+00 0. -1.
         -2    1    5    5    0  503  0.91998774595E+02 -0.56866594413E+02  0.71752693542E+02  0.12979226910E+03  0.00000000000E+00 0.  1.
         -3    1    6    6    0  502  0.47484289399E+01  0.31259820742E+02 -0.97251158437E+02  0.10226197625E+03  0.00000000000E+00 0.  1.
<mgrwt>
<rscale>  0 0.16214754E+04</rscale>
<asrwt>0</asrwt>
<pdfrwt beam="1">  1        1 0.12298219E+00 0.16214754E+04</pdfrwt>
<pdfrwt beam="2">  1       -1 0.12650038E+00 0.16214754E+04</pdfrwt>
<totfact> 0.11520336E+01</totfact>
</mgrwt>
</event>
<event>
12    1  0.1549527E-007  0.1434102E+04  0.7818608E-02  0.8929497E-01
         -2   -1    0    0    0  501 -0.00000000000E+00  0.00000000000E+00  0.14099853046E+04  0.14099853046E+04  0.00000000000E+00 0.  1.
          2   -1    0    0  501    0  0.00000000000E+00 -0.00000000000E+00 -0.36465803871E+03  0.36465803871E+03  0.00000000000E+00 0. -1.
         23    2    1    2    0    0  0.19458428841E+03  0.14522575035E+03 -0.11896214427E+03  0.28498388478E+03  0.90056976142E+02 0.  0.
        254    2    1    2    0    0 -0.19458428841E+03 -0.14522575035E+03  0.11642894101E+04  0.14896594585E+04  0.89697374982E+03 0.  0.
        -24    2    4    4    0    0 -0.13274361303E+03  0.23321393757E+03  0.10429135508E+04  0.10796023531E+04  0.76569960677E+02 0.  0.
         24    2    4    4    0    0 -0.61840675386E+02 -0.37843968792E+03  0.12137585932E+03  0.41005710539E+03  0.79836482479E+02 0.  0.
         13    1    3    3    0    0  0.62692619069E+02  0.72980280258E+02 -0.50761683635E+01  0.96344451203E+02  0.00000000000E+00 0.  1.
        -13    1    3    3    0    0  0.13189166935E+03  0.72245470092E+02 -0.11388597591E+03  0.18863943358E+03  0.00000000000E+00 0. -1.
          4    1    6    6  502    0 -0.20479322955E+02 -0.19512968912E+02  0.20508356198E+02  0.34939251544E+02  0.00000000000E+00 0. -1.
          1    1    5    5  503    0 -0.26561329297E+02  0.70410420893E+02  0.18054751593E+03  0.19560300891E+03  0.00000000000E+00 0. -1.
         -2    1    5    5    0  503 -0.10618228373E+03  0.16280351667E+03  0.86236603487E+03  0.88399934418E+03  0.00000000000E+00 0.  1.
         -3    1    6    6    0  502 -0.41361352430E+02 -0.35892671901E+03  0.10086750313E+03  0.37511785385E+03  0.00000000000E+00 0.  1.
<mgrwt>
<rscale>  0 0.14341025E+04</rscale>
<asrwt>0</asrwt>
<pdfrwt beam="1">  1        2 0.56101238E-01 0.14341025E+04</pdfrwt>
<pdfrwt beam="2">  1       -2 0.21692081E+00 0.14341025E+04</pdfrwt>
<totfact> 0.88538016E+00</totfact>
</mgrwt>
</event>
<event>
12    1  0.1549527E-007  0.1392574E+04  0.7818608E-02  0.8959211E-01
         -2   -1    0    0    0  501 -0.00000000000E+00  0.00000000000E+00  0.31101769903E+03  0.31101769903E+03  0.00000000000E+00 0.  1.
          2   -1    0    0  501    0  0.00000000000E+00 -0.00000000000E+00 -0.15588043798E+04  0.15588043798E+04  0.00000000000E+00 0. -1.
         23    2    1    2    0    0 -0.13692768848E+02 -0.20706205254E+03  0.89661476085E+02  0.24393152920E+03  0.91658197250E+02 0.  0.
        254    2    1    2    0    0  0.13692768848E+02  0.20706205254E+03 -0.13374481569E+04  0.16258905497E+04  0.90093857816E+03 0.  0.
        -24    2    4    4    0    0 -0.21349862100E+03  0.41331973218E+03 -0.34696413658E+03  0.58580009739E+03  0.79767034849E+02 0.  0.
         24    2    4    4    0    0  0.22719138985E+03 -0.20625767964E+03 -0.99048402030E+03  0.10400904523E+04  0.81064149950E+02 0.  0.
         11    1    3    3    0    0 -0.21748351209E+02 -0.73778904474E+02  0.78558522519E+02  0.10994434495E+03  0.00000000000E+00 0. -1.
        -11    1    3    3    0    0  0.80555823609E+01 -0.13328314807E+03  0.11102953565E+02  0.13398718425E+03  0.00000000000E+00 0.  1.
          4    1    6    6  502    0  0.17297738326E+03 -0.18515992465E+03 -0.87241612876E+03  0.90846864257E+03  0.00000000000E+00 0. -1.
          1    1    5    5  503    0 -0.67155320546E+02  0.21662907540E+03 -0.16324689070E+03  0.27944147994E+03  0.00000000000E+00 0. -1.
         -2    1    5    5    0  503 -0.14634330045E+03  0.19669065678E+03 -0.18371724588E+03  0.30635861745E+03  0.00000000000E+00 0.  1.
         -3    1    6    6    0  502  0.54214006590E+02 -0.21097754987E+02 -0.11806789154E+03  0.13162180970E+03  0.00000000000E+00 0.  1.
<mgrwt>
<rscale>  0 0.13925742E+04</rscale>
<asrwt>0</asrwt>
<pdfrwt beam="1">  1        2 0.23981606E+00 0.13925742E+04</pdfrwt>
<pdfrwt beam="2">  1       -2 0.47848877E-01 0.13925742E+04</pdfrwt>
<totfact> 0.47388615E+01</totfact>
</mgrwt>
</event>
<event>
12    1  0.1549527E-007  0.1324331E+04  0.7818608E-02  0.9010490E-01
          2   -1    0    0  501    0  0.00000000000E+00  0.00000000000E+00  0.35041478373E+03  0.35041478373E+03  0.00000000000E+00 0. -1.
         -2   -1    0    0    0  501 -0.00000000000E+00 -0.00000000000E+00 -0.12512697010E+04  0.12512697010E+04  0.00000000000E+00 0.  1.
         23    2    1    2    0    0  0.20714842092E+03  0.22085289426E+02  0.10000195425E+03  0.23950839890E+03  0.62973438785E+02 0.  0.
        254    2    1    2    0    0 -0.20714842092E+03 -0.22085289426E+02 -0.10008568715E+04  0.13621760858E+04  0.90022829507E+03 0.  0.
        -24    2    4    4    0    0 -0.28965452957E+03 -0.12415908160E+03 -0.11200867038E+04  0.11663974886E+04  0.81078068983E+02 0.  0.
         24    2    4    4    0    0  0.82506108653E+02  0.10207379217E+03  0.11922983232E+03  0.19577859722E+03  0.82989090857E+02 0.  0.
         13    1    3    3    0    0  0.18623782922E+03  0.39459302241E+02  0.85418114783E+02  0.20865718272E+03  0.00000000000E+00 0. -1.
        -13    1    3    3    0    0  0.20910591697E+02 -0.17374012815E+02  0.14583839471E+02  0.30851216185E+02  0.00000000000E+00 0.  1.
          2    1    6    6  502    0  0.47127843748E+02  0.28674106054E+02  0.48973001418E+01  0.55382502318E+02  0.00000000000E+00 0. -1.
          1    1    5    5  503    0 -0.97347313939E+02 -0.49517204588E+02 -0.26178492700E+03  0.28365436906E+03  0.00000000000E+00 0. -1.
         -2    1    5    5    0  503 -0.19230721563E+03 -0.74641877012E+02 -0.85830177685E+03  0.88274311956E+03  0.00000000000E+00 0.  1.
         -1    1    6    6    0  502  0.35378264906E+02  0.73399686119E+02  0.11433253218E+03  0.14039609490E+03  0.00000000000E+00 0.  1.
<mgrwt>
<rscale>  0 0.13243314E+04</rscale>
<asrwt>0</asrwt>
<pdfrwt beam="1">  1        2 0.53909965E-01 0.13243314E+04</pdfrwt>
<pdfrwt beam="2">  1       -2 0.19250304E+00 0.13243314E+04</pdfrwt>
<totfact> 0.13453253E+01</totfact>
</mgrwt>
</event>
<event>
12    1  0.1549527E-007  0.2178027E+04  0.7818608E-02  0.8527630E-01
         -1   -1    0    0    0  501 -0.00000000000E+00  0.00000000000E+00  0.87353753259E+03  0.87353753259E+03  0.00000000000E+00 0.  1.
          1   -1    0    0  501    0  0.00000000000E+00 -0.00000000000E+00 -0.13576411708E+04  0.13576411708E+04  0.00000000000E+00 0. -1.
         23    2    1    2    0    0  0.16715195868E+03 -0.64245957652E+03 -0.82240366297E+03  0.10609089201E+04  0.92118765884E+02 0.  0.
        254    2    1    2    0    0 -0.16715195868E+03  0.64245957652E+03  0.33830002476E+03  0.11702697833E+04  0.90243580064E+03 0.  0.
        -24    2    4    4    0    0 -0.24186832855E+03 -0.16639399120E+03  0.91736491151E+02  0.31757538227E+03  0.79065105791E+02 0.  0.
         24    2    4    4    0    0  0.74716369869E+02  0.80885356772E+03  0.24656353361E+03  0.85269440107E+03  0.80420989562E+02 0.  0.
         13    1    3    3    0    0  0.14346914283E+02 -0.20798275931E+03 -0.22780571829E+03  0.30880108065E+03  0.00000000000E+00 0.  1.
        -13    1    3    3    0    0  0.15280504440E+03 -0.43447681721E+03 -0.59459794468E+03  0.75210783941E+03  0.00000000000E+00 0. -1.
          2    1    6    6  502    0  0.56207633758E+02  0.62079212004E+03  0.22410916842E+03  0.66239495300E+03  0.00000000000E+00 0. -1.
          3    1    5    5  503    0 -0.24177323755E+03 -0.17028738626E+03  0.81687170127E+02  0.30679779347E+03  0.00000000000E+00 0. -1.
         -4    1    5    5    0  503 -0.95091000079E-01  0.38933950582E+01  0.10049321024E+02  0.10777588804E+02  0.00000000000E+00 0.  1.
         -1    1    6    6    0  502  0.18508736111E+02  0.18806144768E+03  0.22454365190E+02  0.19029944806E+03  0.00000000000E+00 0.  1.
<mgrwt>
<rscale>  0 0.21780271E+04</rscale>
<asrwt>0</asrwt>
<pdfrwt beam="1">  1        1 0.20886787E+00 0.21780271E+04</pdfrwt>
<pdfrwt beam="2">  1       -1 0.13439039E+00 0.21780271E+04</pdfrwt>
<totfact> 0.35037588E+00</totfact>
</mgrwt>
</event>
<event>
12    1  0.1549527E-007  0.3013153E+04  0.7818608E-02  0.8239985E-01
          2   -1    0    0  501    0  0.00000000000E+00  0.00000000000E+00  0.94448950268E+03  0.94448950268E+03  0.00000000000E+00 0. -1.
         -2   -1    0    0    0  501 -0.00000000000E+00 -0.00000000000E+00 -0.24031737311E+04  0.24031737311E+04  0.00000000000E+00 0.  1.
         23    2    1    2    0    0 -0.91035825579E+03  0.77043727812E+03 -0.14168829072E+04  0.18542590395E+04  0.91616916034E+02 0.  0.
        254    2    1    2    0    0  0.91035825579E+03 -0.77043727812E+03 -0.41801321216E+02  0.14934041943E+04  0.89787693130E+03 0.  0.
        -24    2    4    4    0    0  0.84324019207E+03 -0.41386932792E+03 -0.35479335651E+03  0.10071753807E+04  0.78626201085E+02 0.  0.
         24    2    4    4    0    0  0.67118063721E+02 -0.35656795020E+03  0.31299203529E+03  0.48622881365E+03  0.82516104357E+02 0.  0.
         13    1    3    3    0    0 -0.73852889994E+03  0.62475162700E+03 -0.10909624992E+04  0.14580599117E+04  0.00000000000E+00 0.  1.
        -13    1    3    3    0    0 -0.17182935585E+03  0.14568565112E+03 -0.32592040805E+03  0.39619912778E+03  0.00000000000E+00 0. -1.
          2    1    6    6  502    0  0.55784196848E+02 -0.11149827934E+03  0.13036704232E+03  0.18038655337E+03  0.00000000000E+00 0. -1.
          1    1    5    5  503    0  0.57241834196E+03 -0.29088077040E+03 -0.27996241980E+03  0.70046651404E+03  0.00000000000E+00 0. -1.
         -2    1    5    5    0  503  0.27082185012E+03 -0.12298855752E+03 -0.74830936701E+02  0.30670886663E+03  0.00000000000E+00 0.  1.
         -1    1    6    6    0  502  0.11333866873E+02 -0.24506967086E+03  0.18262499297E+03  0.30584226028E+03  0.00000000000E+00 0.  1.
<mgrwt>
<rscale>  0 0.30131527E+04</rscale>
<asrwt>0</asrwt>
<pdfrwt beam="1">  1        2 0.14530608E+00 0.30131527E+04</pdfrwt>
<pdfrwt beam="2">  1       -2 0.36971904E+00 0.30131527E+04</pdfrwt>
<totfact> 0.27281587E-01</totfact>
</mgrwt>
</event>
<event>
12    1  0.1549527E-007  0.1705409E+04  0.7818608E-02  0.8758286E-01
         -2   -1    0    0    0  501 -0.00000000000E+00  0.00000000000E+00  0.37294962315E+03  0.37294962315E+03  0.00000000000E+00 0.  1.
          2   -1    0    0  501    0  0.00000000000E+00 -0.00000000000E+00 -0.19496058001E+04  0.19496058001E+04  0.00000000000E+00 0. -1.
         23    2    1    2    0    0 -0.14748226188E+02 -0.94966387089E+02 -0.13920470695E+04  0.13981987545E+04  0.89042622279E+02 0.  0.
        254    2    1    2    0    0  0.14748226188E+02  0.94966387089E+02 -0.18460910746E+03  0.92435666874E+03  0.90062123205E+03 0.  0.
        -24    2    4    4    0    0 -0.14497390659E+03  0.10563290626E+03 -0.51362186715E+03  0.54981774653E+03  0.79475703870E+02 0.  0.
         24    2    4    4    0    0  0.15972213277E+03 -0.10666519170E+02  0.32901275969E+03  0.37453892221E+03  0.80031705455E+02 0.  0.
         13    1    3    3    0    0  0.36234912736E+02 -0.50437670650E+02 -0.57156474967E+03  0.57492885697E+03  0.00000000000E+00 0.  1.
        -13    1    3    3    0    0 -0.50983138924E+02 -0.44528716439E+02 -0.82048231979E+03  0.82326989750E+03  0.00000000000E+00 0. -1.
          2    1    6    6  502    0  0.25970505039E+02 -0.30447462599E+02  0.46573822053E+02  0.61405504731E+02  0.00000000000E+00 0. -1.
          3    1    5    5  503    0 -0.36813012241E+02  0.32268430999E+02 -0.58388314905E+02  0.76194782150E+02  0.00000000000E+00 0. -1.
         -4    1    5    5    0  503 -0.10816089434E+03  0.73364475260E+02 -0.45523355225E+03  0.47362296438E+03  0.00000000000E+00 0.  1.
         -1    1    6    6    0  502  0.13375162774E+03  0.19780943429E+02  0.28243893764E+03  0.31313341747E+03  0.00000000000E+00 0.  1.
<mgrwt>
<rscale>  0 0.17054087E+04</rscale>
<asrwt>0</asrwt>
<pdfrwt beam="1">  1        2 0.29993934E+00 0.17054087E+04</pdfrwt>
<pdfrwt beam="2">  1       -2 0.57376867E-01 0.17054087E+04</pdfrwt>
<totfact> 0.19290940E+01</totfact>
</mgrwt>
</event>
<event>
12    1  0.1549527E-007  0.1756933E+04  0.7818608E-02  0.8729543E-01
          2   -1    0    0  501    0  0.00000000000E+00  0.00000000000E+00  0.23163421576E+04  0.23163421576E+04  0.00000000000E+00 0. -1.
         -2   -1    0    0    0  501 -0.00000000000E+00 -0.00000000000E+00 -0.33315623088E+03  0.33315623088E+03  0.00000000000E+00 0.  1.
         23    2    1    2    0    0  0.68767463236E+02  0.51938473501E+03  0.13230598901E+04  0.14259768639E+04  0.91831785454E+02 0.  0.
        254    2    1    2    0    0 -0.68767463236E+02 -0.51938473501E+03  0.66012603662E+03  0.12235215245E+04  0.88698876530E+03 0.  0.
        -24    2    4    4    0    0 -0.27840423558E+03 -0.54986338513E+03  0.11322128889E+03  0.63162283776E+03  0.79181362816E+02 0.  0.
         24    2    4    4    0    0  0.20963677235E+03  0.30478650129E+02  0.54690474773E+03  0.59189868676E+03  0.79766709003E+02 0.  0.
         11    1    3    3    0    0  0.88760410818E+02  0.46387516940E+03  0.11533942130E+04  0.12463453751E+04  0.00000000000E+00 0. -1.
        -11    1    3    3    0    0 -0.19992947581E+02  0.55509565610E+02  0.16966567706E+03  0.17963148888E+03  0.00000000000E+00 0.  1.
          4    1    6    6  502    0  0.17917654844E+03  0.51327712919E+02  0.48802618985E+03  0.52240628978E+03  0.00000000000E+00 0. -1.
          1    1    5    5  503    0 -0.18653452064E+03 -0.40573428168E+03  0.49846581717E+02  0.44933296833E+03  0.00000000000E+00 0. -1.
         -2    1    5    5    0  503 -0.91869714945E+02 -0.14412910346E+03  0.63374707172E+02  0.18228986943E+03  0.00000000000E+00 0.  1.
         -3    1    6    6    0  502  0.30460223909E+02 -0.20849062790E+02  0.58878557876E+02  0.69492396975E+02  0.00000000000E+00 0.  1.
<mgrwt>
<rscale>  0 0.17569335E+04</rscale>
<asrwt>0</asrwt>
<pdfrwt beam="1">  1        2 0.35636032E+00 0.17569335E+04</pdfrwt>
<pdfrwt beam="2">  1       -2 0.51254806E-01 0.17569335E+04</pdfrwt>
<totfact> 0.15131544E+01</totfact>
</mgrwt>
</event>
<event>
12    1  0.1549527E-007  0.1774740E+04  0.7818608E-02  0.8719849E-01
          1   -1    0    0  501    0  0.00000000000E+00  0.00000000000E+00  0.11925804335E+04  0.11925804335E+04  0.00000000000E+00 0.  1.
         -1   -1    0    0    0  501 -0.00000000000E+00 -0.00000000000E+00 -0.66027031041E+03  0.66027031041E+03  0.00000000000E+00 0. -1.
         23    2    1    2    0    0 -0.57934589772E+03  0.81377745692E+02  0.50797612695E+03  0.78080504639E+03  0.96709711016E+02 0.  0.
        254    2    1    2    0    0  0.57934589772E+03 -0.81377745692E+02  0.24333996145E+02  0.10720456975E+04  0.89801215332E+03 0.  0.
        -24    2    4    4    0    0  0.29962183457E+03  0.34335829035E+03  0.23085626099E+03  0.51708958380E+03  0.80117820283E+02 0.  0.
         24    2    4    4    0    0  0.27972406316E+03 -0.42473603605E+03 -0.20652226485E+03  0.55495611373E+03  0.81722643522E+02 0.  0.
         11    1    3    3    0    0 -0.11274793020E+02  0.14324482395E+02  0.31250513956E+02  0.36178811148E+02  0.00000000000E+00 0. -1.
        -11    1    3    3    0    0 -0.56807110470E+03  0.67053263297E+02  0.47672561300E+03  0.74462623524E+03  0.00000000000E+00 0.  1.
          4    1    6    6  502    0  0.72111473572E+02 -0.83478577259E+02 -0.12930830338E+02  0.11106729426E+03  0.00000000000E+00 0. -1.
          3    1    5    5  503    0  0.15848677107E+03  0.23244480994E+03  0.11813937134E+03  0.30513203262E+03  0.00000000000E+00 0. -1.
         -4    1    5    5    0  503  0.14113506350E+03  0.11091348041E+03  0.11271688965E+03  0.21195755117E+03  0.00000000000E+00 0.  1.
         -3    1    6    6    0  502  0.20761258958E+03 -0.34125745879E+03 -0.19359143451E+03  0.44388881946E+03  0.00000000000E+00 0.  1.
<mgrwt>
<rscale>  0 0.17747399E+04</rscale>
<asrwt>0</asrwt>
<pdfrwt beam="1">  1        1 0.18347391E+00 0.17747399E+04</pdfrwt>
<pdfrwt beam="2">  1       -1 0.10158005E+00 0.17747399E+04</pdfrwt>
<totfact> 0.94079470E+00</totfact>
</mgrwt>
</event>
<event>
12    1  0.1549527E-007  0.1883737E+04  0.7818608E-02  0.8662994E-01
          2   -1    0    0  501    0  0.00000000000E+00  0.00000000000E+00  0.19038184956E+04  0.19038184956E+04  0.00000000000E+00 0. -1.
         -2   -1    0    0    0  501 -0.00000000000E+00 -0.00000000000E+00 -0.46596690111E+03  0.46596690111E+03  0.00000000000E+00 0.  1.
         23    2    1    2    0    0  0.36737178722E+03 -0.21862198078E+03  0.13092845419E+04  0.13802464836E+04  0.89981905666E+02 0.  0.
        254    2    1    2    0    0 -0.36737178722E+03  0.21862198078E+03  0.12856705257E+03  0.98953891308E+03  0.88311956889E+03 0.  0.
        -24    2    4    4    0    0 -0.47366196460E+03  0.17049103378E+03 -0.26327742093E+03  0.57329523856E+03  0.77003771867E+02 0.  0.
         24    2    4    4    0    0  0.10629017738E+03  0.48130946997E+02  0.39184447350E+03  0.41624367451E+03  0.78118597633E+02 0.  0.
         11    1    3    3    0    0  0.12225655404E+02 -0.33942861588E+02  0.12767239908E+03  0.13267187339E+03  0.00000000000E+00 0.  1.
        -11    1    3    3    0    0  0.35514613182E+03 -0.18467911919E+03  0.11816121428E+04  0.12475746102E+04  0.00000000000E+00 0. -1.
          4    1    6    6  502    0  0.29484382170E+02  0.15485817618E+02  0.29750892817E+02  0.44657081887E+02  0.00000000000E+00 0. -1.
          3    1    5    5  503    0 -0.26770244362E+03  0.58542133348E+02 -0.15806786052E+03  0.31634985100E+03  0.00000000000E+00 0. -1.
         -2    1    5    5    0  503 -0.20595952098E+03  0.11194890043E+03 -0.10520956041E+03  0.25694538757E+03  0.00000000000E+00 0.  1.
         -3    1    6    6    0  502  0.76805795209E+02  0.32645129378E+02  0.36209358068E+03  0.37158659262E+03  0.00000000000E+00 0.  1.
<mgrwt>
<rscale>  0 0.18837371E+04</rscale>
<asrwt>0</asrwt>
<pdfrwt beam="1">  1        2 0.29289515E+00 0.18837371E+04</pdfrwt>
<pdfrwt beam="2">  1       -2 0.71687217E-01 0.18837371E+04</pdfrwt>
<totfact> 0.12501585E+01</totfact>
</mgrwt>
</event>
<event>
12    1  0.1549527E-007  0.1755083E+04  0.7818608E-02  0.8730558E-01
         -1   -1    0    0    0  501 -0.00000000000E+00  0.00000000000E+00  0.20818585325E+04  0.20818585325E+04  0.00000000000E+00 0.  1.
          1   -1    0    0  501    0  0.00000000000E+00 -0.00000000000E+00 -0.36989964224E+03  0.36989964224E+03  0.00000000000E+00 0. -1.
         23    2    1    2    0    0 -0.62608144727E+03 -0.72511696159E+02  0.45993925680E+03  0.78553495869E+03  0.91022671304E+02 0.  0.
        254    2    1    2    0    0  0.62608144727E+03  0.72511696159E+02  0.12520196335E+04  0.16662232161E+04  0.90083889707E+03 0.  0.
        -24    2    4    4    0    0  0.78113906648E+03 -0.71493608011E+02  0.64796419695E+03  0.10203124115E+04  0.76747894812E+02 0.  0.
         24    2    4    4    0    0 -0.15505761922E+03  0.14400530417E+03  0.60405543654E+03  0.64591080458E+03  0.86818224770E+02 0.  0.
         13    1    3    3    0    0 -0.20226693630E+03 -0.29258467817E+02  0.98592352796E+02  0.22691060683E+03  0.00000000000E+00 0.  1.
        -13    1    3    3    0    0 -0.42381451096E+03 -0.43253228343E+02  0.36134690400E+03  0.55862435186E+03  0.00000000000E+00 0. -1.
          4    1    6    6  502    0 -0.96137643627E+02  0.11728082494E+03  0.31366585995E+03  0.34840136355E+03  0.00000000000E+00 0. -1.
          1    1    5    5  503    0  0.77249519990E+03 -0.78907654890E+02  0.64146537384E+03  0.10072006144E+04  0.00000000000E+00 0. -1.
         -2    1    5    5    0  503  0.86438665800E+01  0.74140468790E+01  0.64988231146E+01  0.13111797072E+02  0.00000000000E+00 0.  1.
         -3    1    6    6    0  502 -0.58919975591E+02  0.26724479233E+02  0.29038957659E+03  0.29750944104E+03  0.00000000000E+00 0.  1.
<mgrwt>
<rscale>  0 0.17550826E+04</rscale>
<asrwt>0</asrwt>
<pdfrwt beam="1">  1        1 0.56907639E-01 0.17550826E+04</pdfrwt>
<pdfrwt beam="2">  1       -1 0.32028592E+00 0.17550826E+04</pdfrwt>
<totfact> 0.15397088E+00</totfact>
</mgrwt>
</event>
<event>
12    1  0.1549527E-007  0.1515365E+04  0.7818608E-02  0.8874299E-01
         -1   -1    0    0    0  501 -0.00000000000E+00  0.00000000000E+00  0.48312160057E+03  0.48312160057E+03  0.00000000000E+00 0.  1.
          1   -1    0    0  501    0  0.00000000000E+00 -0.00000000000E+00 -0.11882776878E+04  0.11882776878E+04  0.00000000000E+00 0. -1.
         23    2    1    2    0    0  0.32687170886E+03 -0.17432666036E+03  0.10971995749E+03  0.39532238701E+03  0.83704372844E+02 0.  0.
        254    2    1    2    0    0 -0.32687170886E+03  0.17432666036E+03 -0.81487604470E+03  0.12760769013E+04  0.90945829555E+03 0.  0.
        -24    2    4    4    0    0 -0.28254961926E+03  0.49780714169E+03 -0.27491093843E+03  0.64008692151E+03  0.80554362708E+02 0.  0.
         24    2    4    4    0    0 -0.44322089598E+02 -0.32348048133E+03 -0.53996510627E+03  0.63598997983E+03  0.79478733181E+02 0.  0.
         13    1    3    3    0    0  0.22895852486E+03 -0.15299707114E+03  0.10591978194E+03  0.29504086173E+03  0.00000000000E+00 0.  1.
        -13    1    3    3    0    0  0.97913184006E+02 -0.21329589217E+02  0.38001755416E+01  0.10028152528E+03  0.00000000000E+00 0. -1.
          2    1    6    6  502    0  0.13258462734E+02 -0.17744005603E+03 -0.31265660978E+03  0.35974284699E+03  0.00000000000E+00 0. -1.
          1    1    5    5  503    0 -0.22358372799E+03  0.37310066704E+03 -0.17093935224E+03  0.46734789324E+03  0.00000000000E+00 0. -1.
         -2    1    5    5    0  503 -0.58965891273E+02  0.12470647465E+03 -0.10397158618E+03  0.17273902827E+03  0.00000000000E+00 0.  1.
         -1    1    6    6    0  502 -0.57580552332E+02 -0.14604042530E+03 -0.22730849649E+03  0.27624713285E+03  0.00000000000E+00 0.  1.
<mgrwt>
<rscale>  0 0.15153648E+04</rscale>
<asrwt>0</asrwt>
<pdfrwt beam="1">  1        1 0.18281195E+00 0.15153648E+04</pdfrwt>
<pdfrwt beam="2">  1       -1 0.74326401E-01 0.15153648E+04</pdfrwt>
<totfact> 0.19187580E+01</totfact>
</mgrwt>
</event>
<event>
12    1  0.1549527E-007  0.1531192E+04  0.7818608E-02  0.8863972E-01
         -1   -1    0    0    0  501 -0.00000000000E+00  0.00000000000E+00  0.37743473990E+03  0.37743473990E+03  0.00000000000E+00 0.  1.
          1   -1    0    0  501    0  0.00000000000E+00 -0.00000000000E+00 -0.15529491292E+04  0.15529491292E+04  0.00000000000E+00 0. -1.
         23    2    1    2    0    0  0.40015261305E+03 -0.20829679356E+02 -0.78434795464E+03  0.88584020827E+03  0.94631767279E+02 0.  0.
        254    2    1    2    0    0 -0.40015261305E+03  0.20829679356E+02 -0.39116643466E+03  0.10445436608E+04  0.88176203735E+03 0.  0.
        -24    2    4    4    0    0 -0.29910163645E+03  0.37750285446E+03  0.15636636598E+02  0.48829135697E+03  0.78827348273E+02 0.  0.
         24    2    4    4    0    0 -0.10105097660E+03 -0.35667317510E+03 -0.40680307126E+03  0.55625230387E+03  0.80627743776E+02 0.  0.
         13    1    3    3    0    0  0.29184624583E+03  0.25938026846E+02 -0.53442671544E+03  0.60947430349E+03  0.00000000000E+00 0. -1.
        -13    1    3    3    0    0  0.10830636722E+03 -0.46767706202E+02 -0.24992123920E+03  0.27636590478E+03  0.00000000000E+00 0.  1.
          4    1    6    6  502    0 -0.82658148837E+02 -0.30106904135E+03 -0.29251551379E+03  0.42783205004E+03  0.00000000000E+00 0. -1.
          3    1    5    5  503    0 -0.23828169961E+03  0.29891878355E+03 -0.19821831874E+02  0.38278389797E+03  0.00000000000E+00 0. -1.
         -4    1    5    5    0  503 -0.60819936842E+02  0.78584070911E+02  0.35458468472E+02  0.10550745900E+03  0.00000000000E+00 0.  1.
         -3    1    6    6    0  502 -0.18392827762E+02 -0.55604133752E+02 -0.11428755747E+03  0.12842025383E+03  0.00000000000E+00 0.  1.
<mgrwt>
<rscale>  0 0.15311916E+04</rscale>
<asrwt>0</asrwt>
<pdfrwt beam="1">  1        1 0.23891525E+00 0.15311916E+04</pdfrwt>
<pdfrwt beam="2">  1       -1 0.58066884E-01 0.15311916E+04</pdfrwt>
<totfact> 0.17431002E+01</totfact>
</mgrwt>
</event>
<event>
12    1  0.1549527E-007  0.1624668E+04  0.7818608E-02  0.8805535E-01
          2   -1    0    0  501    0  0.00000000000E+00  0.00000000000E+00  0.76345524085E+03  0.76345524085E+03  0.00000000000E+00 0.  1.
         -2   -1    0    0    0  501 -0.00000000000E+00 -0.00000000000E+00 -0.86434219993E+03  0.86434219993E+03  0.00000000000E+00 0. -1.
         23    2    1    2    0    0 -0.20682242103E+03 -0.41215893690E+02 -0.55768854518E+03  0.60253302160E+03  0.86921027165E+02 0.  0.
        254    2    1    2    0    0  0.20682242103E+03  0.41215893690E+02  0.45680158610E+03  0.10252644192E+04  0.89332254893E+03 0.  0.
        -24    2    4    4    0    0  0.17219689783E+03  0.34358010035E+03  0.56896377223E+03  0.69115229726E+03  0.79200169927E+02 0.  0.
         24    2    4    4    0    0  0.34625523197E+02 -0.30236420666E+03 -0.11216218613E+03  0.33411212192E+03  0.80171776134E+02 0.  0.
         11    1    3    3    0    0 -0.19191115237E+03 -0.19979314821E+02 -0.53246041062E+03  0.56634190406E+03  0.00000000000E+00 0. -1.
        -11    1    3    3    0    0 -0.14911268658E+02 -0.21236578869E+02 -0.25228134558E+02  0.36191117534E+02  0.00000000000E+00 0.  1.
          2    1    6    6  502    0  0.21438855762E+02 -0.10022332412E+03 -0.77738466439E+02  0.12863750774E+03  0.00000000000E+00 0. -1.
          1    1    5    5  503    0  0.11033000401E+03  0.27800477064E+03  0.47169082017E+03  0.55852626806E+03  0.00000000000E+00 0. -1.
         -2    1    5    5    0  503  0.61866893822E+02  0.65575329715E+02  0.97272952058E+02  0.13262602920E+03  0.00000000000E+00 0.  1.
         -1    1    6    6    0  502  0.13186667435E+02 -0.20214088255E+03 -0.34423719690E+02  0.20547461418E+03  0.00000000000E+00 0.  1.
<mgrwt>
<rscale>  0 0.16246681E+04</rscale>
<asrwt>0</asrwt>
<pdfrwt beam="1">  1        2 0.11745465E+00 0.16246681E+04</pdfrwt>
<pdfrwt beam="2">  1       -2 0.13297572E+00 0.16246681E+04</pdfrwt>
<totfact> 0.14375588E+01</totfact>
</mgrwt>
</event>
<event>
12    1  0.1549527E-007  0.1252297E+04  0.7818608E-02  0.9068273E-01
          2   -1    0    0  501    0  0.00000000000E+00  0.00000000000E+00  0.12781933929E+03  0.12781933929E+03  0.00000000000E+00 0. -1.
         -2   -1    0    0    0  501 -0.00000000000E+00 -0.00000000000E+00 -0.30673148718E+04  0.30673148718E+04  0.00000000000E+00 0.  1.
         23    2    1    2    0    0 -0.20382715812E+03  0.20457715613E+03 -0.64081964560E+03  0.70943443475E+03  0.96177314518E+02 0.  0.
        254    2    1    2    0    0  0.20382715812E+03 -0.20457715613E+03 -0.22986758869E+04  0.24856997764E+04  0.90077478975E+03 0.  0.
        -24    2    4    4    0    0 -0.16056268164E+03 -0.33116564305E+03 -0.41160663193E+03  0.55780172275E+03  0.79193968049E+02 0.  0.
         24    2    4    4    0    0  0.36438983976E+03  0.12658848692E+03 -0.18870692550E+04  0.19278980536E+04  0.83402227987E+02 0.  0.
         11    1    3    3    0    0 -0.39660691796E+02  0.78819462789E+02 -0.27977316029E+03  0.29335728967E+03  0.00000000000E+00 0.  1.
        -11    1    3    3    0    0 -0.16416646632E+03  0.12575769334E+03 -0.36104648532E+03  0.41607714508E+03  0.00000000000E+00 0. -1.
          2    1    6    6  502    0  0.24614402598E+03  0.80290638751E+02 -0.10614514186E+04  0.10925715456E+04  0.00000000000E+00 0. -1.
          1    1    5    5  503    0 -0.11640458817E+03 -0.20415638260E+03 -0.31127850546E+03  0.39003097911E+03  0.00000000000E+00 0. -1.
         -2    1    5    5    0  503 -0.44158093473E+02 -0.12700926045E+03 -0.10032812647E+03  0.16777074363E+03  0.00000000000E+00 0.  1.
         -1    1    6    6    0  502  0.11824581378E+03  0.46297848171E+02 -0.82561783642E+03  0.83532650804E+03  0.00000000000E+00 0.  1.
<mgrwt>
<rscale>  0 0.12522973E+04</rscale>
<asrwt>0</asrwt>
<pdfrwt beam="1">  1        2 0.19664514E-01 0.12522973E+04</pdfrwt>
<pdfrwt beam="2">  1       -2 0.47189459E+00 0.12522973E+04</pdfrwt>
<totfact> 0.72250160E-01</totfact>
</mgrwt>
</event>
<event>
12    1  0.1549527E-007  0.1085542E+04  0.7818608E-02  0.9219399E-01
         -2   -1    0    0    0  501 -0.00000000000E+00  0.00000000000E+00  0.35016451347E+03  0.35016451347E+03  0.00000000000E+00 0. -1.
          2   -1    0    0  501    0  0.00000000000E+00 -0.00000000000E+00 -0.84132049081E+03  0.84132049081E+03  0.00000000000E+00 0.  1.
         23    2    1    2    0    0  0.91675841201E+01 -0.87828925812E+02 -0.21759578932E+03  0.25255223443E+03  0.92934056078E+02 0.  0.
        254    2    1    2    0    0 -0.91675841201E+01  0.87828925812E+02 -0.27356018802E+03  0.93893276984E+03  0.89384652206E+03 0.  0.
        -24    2    4    4    0    0 -0.40910399380E+03  0.90286466409E+01  0.39643533246E+02  0.41894233867E+03  0.80582127011E+02 0.  0.
         24    2    4    4    0    0  0.39993640968E+03  0.78800279171E+02 -0.31320372126E+03  0.51999043117E+03  0.78325358032E+02 0.  0.
         11    1    3    3    0    0 -0.20907541299E+02 -0.94787910648E+02 -0.15795433545E+03  0.18539537582E+03  0.00000000000E+00 0. -1.
        -11    1    3    3    0    0  0.30075125419E+02  0.69589848355E+01 -0.59641453868E+02  0.67156858610E+02  0.00000000000E+00 0.  1.
          2    1    6    6  502    0  0.27310059685E+03  0.76258338946E+02 -0.17902356579E+03  0.33533372537E+03  0.00000000000E+00 0. -1.
          1    1    5    5  503    0 -0.92614920026E+01 -0.46413134243E+01  0.14839939665E+02  0.18098089227E+02  0.00000000000E+00 0. -1.
         -2    1    5    5    0  503 -0.39984250180E+03  0.13669960065E+02  0.24803593581E+02  0.40084424944E+03  0.00000000000E+00 0.  1.
         -3    1    6    6    0  502  0.12683581283E+03  0.25419402253E+01 -0.13418015547E+03  0.18465670580E+03  0.00000000000E+00 0.  1.
<mgrwt>
<rscale>  0 0.10855424E+04</rscale>
<asrwt>0</asrwt>
<pdfrwt beam="1">  1        2 0.12943392E+00 0.10855424E+04</pdfrwt>
<pdfrwt beam="2">  1       -2 0.53871464E-01 0.10855424E+04</pdfrwt>
<totfact> 0.10382509E+02</totfact>
</mgrwt>
</event>
<event>
12    1  0.1549527E-007  0.2080862E+04  0.7818608E-02  0.8569721E-01
         -1   -1    0    0    0  501 -0.00000000000E+00  0.00000000000E+00  0.14123066933E+04  0.14123066933E+04  0.00000000000E+00 0.  1.
          1   -1    0    0  501    0  0.00000000000E+00 -0.00000000000E+00 -0.76647419034E+03  0.76647419034E+03  0.00000000000E+00 0. -1.
         23    2    1    2    0    0 -0.45812716808E+03 -0.14037191672E+03  0.10120366693E+04  0.11233995229E+04  0.90683465751E+02 0.  0.
        254    2    1    2    0    0  0.45812716808E+03  0.14037191672E+03 -0.36620416642E+03  0.10553813606E+04  0.86610596797E+03 0.  0.
        -24    2    4    4    0    0  0.26879334721E+03  0.13042505956E+03  0.25558771477E+03  0.40124776847E+03  0.80088276911E+02 0.  0.
         24    2    4    4    0    0  0.18933382087E+03  0.99468571590E+01 -0.62179188118E+03  0.65413359218E+03  0.72934060709E+02 0.  0.
         13    1    3    3    0    0 -0.45984268192E+03 -0.13102537869E+03  0.99141524931E+03  0.11006939350E+04  0.00000000000E+00 0.  1.
        -13    1    3    3    0    0  0.17155138327E+01 -0.93465380249E+01  0.20621420015E+02  0.22705587951E+02  0.00000000000E+00 0. -1.
          2    1    6    6  502    0  0.18244139273E+03  0.25446452470E+02 -0.53859040174E+03  0.56922052367E+03  0.00000000000E+00 0. -1.
          3    1    5    5  503    0  0.20045208519E+03  0.11415721101E+03  0.23194317219E+03  0.32712465882E+03  0.00000000000E+00 0. -1.
         -4    1    5    5    0  503  0.68341262021E+02  0.16267848550E+02  0.23644542579E+02  0.74123109654E+02  0.00000000000E+00 0.  1.
         -1    1    6    6    0  502  0.68924281396E+01 -0.15499595311E+02 -0.83201479447E+02  0.84913068503E+02  0.00000000000E+00 0.  1.
<mgrwt>
<rscale>  0 0.20808620E+04</rscale>
<asrwt>0</asrwt>
<pdfrwt beam="1">  1        1 0.11791911E+00 0.20808620E+04</pdfrwt>
<pdfrwt beam="2">  1       -1 0.21727795E+00 0.20808620E+04</pdfrwt>
<totfact> 0.25026083E+00</totfact>
</mgrwt>
</event>
<event>
12    1  0.1549527E-007  0.1461110E+04  0.7818608E-02  0.8910734E-01
         -2   -1    0    0    0  501 -0.00000000000E+00  0.00000000000E+00  0.80919482232E+03  0.80919482232E+03  0.00000000000E+00 0. -1.
          2   -1    0    0  501    0  0.00000000000E+00 -0.00000000000E+00 -0.65955796519E+03  0.65955796519E+03  0.00000000000E+00 0.  1.
         23    2    1    2    0    0  0.43876699238E+03  0.78344457943E+02  0.40366660840E+02  0.45680595009E+03  0.91585375665E+02 0.  0.
        254    2    1    2    0    0 -0.43876699238E+03 -0.78344457943E+02  0.10927019629E+03  0.10119468374E+04  0.90191024956E+03 0.  0.
        -24    2    4    4    0    0 -0.63893636468E+02  0.37642174340E+03  0.14451323913E+03  0.41604466221E+03  0.80208222659E+02 0.  0.
         24    2    4    4    0    0 -0.37487335591E+03 -0.45476620134E+03 -0.35243042840E+02  0.59590217521E+03  0.80715546758E+02 0.  0.
         13    1    3    3    0    0  0.14713029431E+03  0.36444471391E+02  0.56422596607E+02  0.16173754174E+03  0.00000000000E+00 0.  1.
        -13    1    3    3    0    0  0.29163669807E+03  0.41899986552E+02 -0.16055935767E+02  0.29506840835E+03  0.00000000000E+00 0. -1.
          2    1    6    6  502    0 -0.86048116211E+02 -0.16276802767E+03 -0.79007572355E+01  0.18428274770E+03  0.00000000000E+00 0. -1.
          3    1    5    5  503    0 -0.64171659519E+02  0.16098755492E+03  0.81982514197E+02  0.19171887586E+03  0.00000000000E+00 0. -1.
         -4    1    5    5    0  503  0.27802305099E+00  0.21543418848E+03  0.62530724935E+02  0.22432578635E+03  0.00000000000E+00 0.  1.
         -1    1    6    6    0  502 -0.28882523970E+03 -0.29199817367E+03 -0.27342285605E+02  0.41161942750E+03  0.00000000000E+00 0.  1.
<mgrwt>
<rscale>  0 0.14611104E+04</rscale>
<asrwt>0</asrwt>
<pdfrwt beam="1">  1        2 0.10147046E+00 0.14611104E+04</pdfrwt>
<pdfrwt beam="2">  1       -2 0.12449151E+00 0.14611104E+04</pdfrwt>
<totfact> 0.20720657E+01</totfact>
</mgrwt>
</event>
<event>
12    1  0.1549527E-007  0.1202218E+04  0.7818608E-02  0.9110917E-01
         -1   -1    0    0    0  501 -0.00000000000E+00  0.00000000000E+00  0.55680703353E+03  0.55680703353E+03  0.00000000000E+00 0.  1.
          1   -1    0    0  501    0  0.00000000000E+00 -0.00000000000E+00 -0.64893596663E+03  0.64893596663E+03  0.00000000000E+00 0. -1.
         23    2    1    2    0    0  0.48125600322E+02  0.19748781627E+03 -0.15988479807E+03  0.27446351525E+03  0.91921496775E+02 0.  0.
        254    2    1    2    0    0 -0.48125600322E+02 -0.19748781627E+03  0.67755864973E+02  0.93127948491E+03  0.90629637029E+03 0.  0.
        -24    2    4    4    0    0  0.39092075890E+03 -0.21776095585E+03 -0.78671564149E+02  0.46125314439E+03  0.79538509976E+02 0.  0.
         24    2    4    4    0    0 -0.43904635922E+03  0.20273139585E+02  0.14642742912E+03  0.47002634053E+03  0.79442199464E+02 0.  0.
         13    1    3    3    0    0  0.26756277687E+02  0.13941919189E+03 -0.54121847305E+02  0.15193019390E+03  0.00000000000E+00 0.  1.
        -13    1    3    3    0    0  0.21369322636E+02  0.58068624379E+02 -0.10576295076E+03  0.12253332135E+03  0.00000000000E+00 0. -1.
          2    1    6    6  502    0 -0.29295613964E+03 -0.19166541085E+02  0.76836090856E+02  0.30347065905E+03  0.00000000000E+00 0. -1.
          1    1    5    5  503    0  0.22369646626E+02 -0.83906007309E+01 -0.24012525388E+02  0.33873361899E+02  0.00000000000E+00 0. -1.
         -2    1    5    5    0  503  0.36855111227E+03 -0.20937035512E+03 -0.54659038761E+02  0.42737978249E+03  0.00000000000E+00 0.  1.
         -1    1    6    6    0  502 -0.14609021959E+03  0.39439680670E+02  0.69591338266E+02  0.16655568147E+03  0.00000000000E+00 0.  1.
<mgrwt>
<rscale>  0 0.12022181E+04</rscale>
<asrwt>0</asrwt>
<pdfrwt beam="1">  1        1 0.99836303E-01 0.12022181E+04</pdfrwt>
<pdfrwt beam="2">  1       -1 0.85662620E-01 0.12022181E+04</pdfrwt>
<totfact> 0.40692600E+01</totfact>
</mgrwt>
</event>
<event>
12    1  0.1549527E-007  0.1547381E+04  0.7818608E-02  0.8853542E-01
          2   -1    0    0  501    0  0.00000000000E+00  0.00000000000E+00  0.15679756705E+04  0.15679756705E+04  0.00000000000E+00 0. -1.
         -2   -1    0    0    0  501 -0.00000000000E+00 -0.00000000000E+00 -0.38176417327E+03  0.38176417327E+03  0.00000000000E+00 0.  1.
         23    2    1    2    0    0 -0.37713558971E+03 -0.31772273699E+03  0.22685595606E+03  0.55053821324E+03  0.91922297671E+02 0.  0.
        254    2    1    2    0    0  0.37713558971E+03  0.31772273699E+03  0.95935554114E+03  0.13992016305E+04  0.89119198709E+03 0.  0.
        -24    2    4    4    0    0  0.33217690092E+03  0.25692658535E+03  0.11232224904E+04  0.12017851151E+04  0.79409923614E+02 0.  0.
         24    2    4    4    0    0  0.44958688788E+02  0.60796151637E+02 -0.16386694931E+03  0.19741651544E+03  0.80021545487E+02 0.  0.
         11    1    3    3    0    0 -0.17244334741E+03 -0.12577108193E+03  0.14569637852E+03  0.25842311784E+03  0.00000000000E+00 0. -1.
        -11    1    3    3    0    0 -0.20469224230E+03 -0.19195165506E+03  0.81159577540E+02  0.29211509541E+03  0.00000000000E+00 0.  1.
          4    1    6    6  502    0  0.46603677337E+02  0.63769337306E+02 -0.17163571361E+03  0.18893715703E+03  0.00000000000E+00 0. -1.
          3    1    5    5  503    0  0.18743842066E+03  0.14289513981E+03  0.73876287898E+03  0.77545004602E+03  0.00000000000E+00 0. -1.
         -4    1    5    5    0  503  0.14473848026E+03  0.11403144554E+03  0.38445961147E+03  0.42633506904E+03  0.00000000000E+00 0.  1.
         -3    1    6    6    0  502 -0.16449885488E+01 -0.29731856686E+01  0.77687642979E+01  0.84793584110E+01  0.00000000000E+00 0.  1.
<mgrwt>
<rscale>  0 0.15473809E+04</rscale>
<asrwt>0</asrwt>
<pdfrwt beam="1">  1        2 0.24122702E+00 0.15473809E+04</pdfrwt>
<pdfrwt beam="2">  1       -2 0.58732950E-01 0.15473809E+04</pdfrwt>
<totfact> 0.30313420E+01</totfact>
</mgrwt>
</event>
<event>
12    1  0.1549527E-007  0.2037165E+04  0.7818608E-02  0.8589439E-01
          1   -1    0    0  501    0  0.00000000000E+00  0.00000000000E+00  0.45373011017E+03  0.45373011017E+03  0.00000000000E+00 0. -1.
         -1   -1    0    0    0  501 -0.00000000000E+00 -0.00000000000E+00 -0.22866249792E+04  0.22866249792E+04  0.00000000000E+00 0.  1.
         23    2    1    2    0    0  0.23996480449E+03  0.72939725820E+03 -0.35717607994E+03  0.85182865446E+03  0.91835923279E+02 0.  0.
        254    2    1    2    0    0 -0.23996480449E+03 -0.72939725820E+03 -0.14757187891E+04  0.18885264349E+04  0.89397018027E+03 0.  0.
        -24    2    4    4    0    0 -0.19345597674E+03 -0.86200984154E+03 -0.80401106175E+03  0.11972352456E+04  0.80325985351E+02 0.  0.
         24    2    4    4    0    0 -0.46508827754E+02  0.13261258333E+03 -0.67170772735E+03  0.69129118937E+03  0.83325081485E+02 0.  0.
         11    1    3    3    0    0  0.68854715187E+02  0.10618446713E+03 -0.69958389356E+02  0.14460390418E+03  0.00000000000E+00 0.  1.
        -11    1    3    3    0    0  0.17111008930E+03  0.62321279107E+03 -0.28721769059E+03  0.70722475028E+03  0.00000000000E+00 0. -1.
          2    1    6    6  502    0 -0.34151587112E+02  0.18081339590E+02 -0.84862228063E+02  0.93246251911E+02  0.00000000000E+00 0. -1.
          1    1    5    5  503    0 -0.24033145367E+02 -0.35830613177E+02 -0.48938228854E+02  0.65240900976E+02  0.00000000000E+00 0. -1.
         -2    1    5    5    0  503 -0.16942283137E+03 -0.82617922836E+03 -0.75507283290E+03  0.11319943446E+04  0.00000000000E+00 0.  1.
         -1    1    6    6    0  502 -0.12357240642E+02  0.11453124375E+03 -0.58684549928E+03  0.59804493746E+03  0.00000000000E+00 0.  1.
<mgrwt>
<rscale>  0 0.20371653E+04</rscale>
<asrwt>0</asrwt>
<pdfrwt beam="1">  1        1 0.69804634E-01 0.20371653E+04</pdfrwt>
<pdfrwt beam="2">  1       -1 0.35178845E+00 0.20371653E+04</pdfrwt>
<totfact> 0.70888898E-01</totfact>
</mgrwt>
</event>
<event>
12    1  0.1549527E-007  0.1396747E+04  0.7818608E-02  0.8956177E-01
          2   -1    0    0  501    0  0.00000000000E+00  0.00000000000E+00  0.65206813508E+03  0.65206813508E+03  0.00000000000E+00 0.  1.
         -2   -1    0    0    0  501 -0.00000000000E+00 -0.00000000000E+00 -0.74796692566E+03  0.74796692566E+03  0.00000000000E+00 0. -1.
         23    2    1    2    0    0  0.93596921017E+02 -0.27653490072E+03 -0.30210217199E+03  0.42987497091E+03  0.91075975709E+02 0.  0.
        254    2    1    2    0    0 -0.93596921017E+02  0.27653490072E+03  0.20620338142E+03  0.97016008983E+03  0.90191952548E+03 0.  0.
        -24    2    4    4    0    0 -0.10660680762E+03  0.20825439520E+03  0.55375941191E+03  0.60701007192E+03  0.84123935844E+02 0.  0.
         24    2    4    4    0    0  0.13009886604E+02  0.68280505514E+02 -0.34755603049E+03  0.36315001791E+03  0.79064888499E+02 0.  0.
         13    1    3    3    0    0  0.87033023377E+02 -0.27539776254E+03 -0.26433505514E+03  0.39152483465E+03  0.00000000000E+00 0. -1.
        -13    1    3    3    0    0  0.65638976394E+01 -0.11371381733E+01 -0.37767116857E+02  0.38350136259E+02  0.00000000000E+00 0.  1.
          4    1    6    6  502    0  0.45029665344E+02  0.32653754785E+02 -0.15343043509E+03  0.16320182864E+03  0.00000000000E+00 0. -1.
          3    1    5    5  503    0 -0.78557396354E+02  0.16298558695E+03  0.32336304501E+03  0.37053910043E+03  0.00000000000E+00 0. -1.
         -4    1    5    5    0  503 -0.28049411267E+02  0.45268808253E+02  0.23039636690E+03  0.23647097149E+03  0.00000000000E+00 0.  1.
         -3    1    6    6    0  502 -0.32019778740E+02  0.35626750730E+02 -0.19412559541E+03  0.19994818926E+03  0.00000000000E+00 0.  1.
<mgrwt>
<rscale>  0 0.13967468E+04</rscale>
<asrwt>0</asrwt>
<pdfrwt beam="1">  1        2 0.10031818E+00 0.13967468E+04</pdfrwt>
<pdfrwt beam="2">  1       -2 0.11507183E+00 0.13967468E+04</pdfrwt>
<totfact> 0.25668107E+01</totfact>
</mgrwt>
</event>
<event>
12    1  0.1549527E-007  0.5336840E+04  0.7818608E-02  0.7778548E-01
          1   -1    0    0  501    0  0.00000000000E+00  0.00000000000E+00  0.14266295193E+04  0.14266295193E+04  0.00000000000E+00 0. -1.
         -1   -1    0    0    0  501 -0.00000000000E+00 -0.00000000000E+00 -0.49911108939E+04  0.49911108939E+04  0.00000000000E+00 0.  1.
         23    2    1    2    0    0 -0.34601190982E+03 -0.24479621753E+04 -0.26633147264E+04  0.36350756951E+04  0.91032544438E+02 0.  0.
        254    2    1    2    0    0  0.34601190982E+03  0.24479621753E+04 -0.90116664817E+03  0.27826647181E+04  0.90491908606E+03 0.  0.
        -24    2    4    4    0    0  0.11314938956E+03  0.15827485751E+04 -0.10011161247E+04  0.18776432597E+04  0.73585862406E+02 0.  0.
         24    2    4    4    0    0  0.23286252026E+03  0.86521360017E+03  0.99949476518E+02  0.90502145843E+03  0.79084860151E+02 0.  0.
         13    1    3    3    0    0 -0.11936938606E+03 -0.65313311522E+03 -0.75983276190E+03  0.10090479387E+04  0.00000000000E+00 0. -1.
        -13    1    3    3    0    0 -0.22664252376E+03 -0.17948290601E+04 -0.19034819645E+04  0.26260277564E+04  0.00000000000E+00 0.  1.
          4    1    6    6  502    0  0.28901175358E+02  0.13488048089E+03  0.43526489640E+02  0.14464638731E+03  0.00000000000E+00 0. -1.
          3    1    5    5  503    0  0.11662256074E+03  0.12421488510E+04 -0.77226048537E+03  0.14672834923E+04  0.00000000000E+00 0. -1.
         -2    1    5    5    0  503 -0.34731711761E+01  0.34059972414E+03 -0.22885563932E+03  0.41035976734E+03  0.00000000000E+00 0.  1.
         -3    1    6    6    0  502  0.20396134490E+03  0.73033311928E+03  0.56422986878E+02  0.76037507112E+03  0.00000000000E+00 0.  1.
<mgrwt>
<rscale>  0 0.53368403E+04</rscale>
<asrwt>0</asrwt>
<pdfrwt beam="1">  1        1 0.21948147E+00 0.53368403E+04</pdfrwt>
<pdfrwt beam="2">  1       -1 0.76786321E+00 0.53368403E+04</pdfrwt>
<totfact> 0.54697948E-04</totfact>
</mgrwt>
</event>
<event>
12    1  0.1549527E-007  0.1269210E+04  0.7818608E-02  0.9054345E-01
         -1   -1    0    0    0  501 -0.00000000000E+00  0.00000000000E+00  0.37965300786E+03  0.37965300786E+03  0.00000000000E+00 0.  1.
          1   -1    0    0  501    0  0.00000000000E+00 -0.00000000000E+00 -0.10607671496E+04  0.10607671496E+04  0.00000000000E+00 0. -1.
         23    2    1    2    0    0  0.16900790953E+03 -0.84237246674E+02 -0.45945068170E+03  0.50603842060E+03  0.96542047828E+02 0.  0.
        254    2    1    2    0    0 -0.16900790953E+03  0.84237246674E+02 -0.22166346005E+03  0.93438173687E+03  0.88784849690E+03 0.  0.
        -24    2    4    4    0    0  0.28428878493E+03 -0.19466854955E+03  0.96751704381E+00  0.35191697490E+03  0.71614689222E+02 0.  0.
         24    2    4    4    0    0 -0.45329669446E+03  0.27890579622E+03 -0.22263097710E+03  0.58246476197E+03  0.80214154623E+02 0.  0.
         11    1    3    3    0    0  0.12006280240E+03 -0.58743037644E+02 -0.19844263872E+03  0.23925990440E+03  0.00000000000E+00 0. -1.
        -11    1    3    3    0    0  0.48945107134E+02 -0.25494209031E+02 -0.26100804298E+03  0.26677851620E+03  0.00000000000E+00 0.  1.
          4    1    6    6  502    0 -0.25949101443E+03  0.11796777331E+03 -0.98154629047E+02  0.30147356985E+03  0.00000000000E+00 0. -1.
          3    1    5    5  503    0  0.16632531117E+03 -0.15075237449E+03  0.16528758414E+02  0.22508573345E+03  0.00000000000E+00 0. -1.
         -4    1    5    5    0  503  0.11796347376E+03 -0.43916175058E+02 -0.15561241370E+02  0.12683124144E+03  0.00000000000E+00 0.  1.
         -3    1    6    6    0  502 -0.19380568002E+03  0.16093802291E+03 -0.12447634805E+03  0.28099119213E+03  0.00000000000E+00 0.  1.
<mgrwt>
<rscale>  0 0.12692099E+04</rscale>
<asrwt>0</asrwt>
<pdfrwt beam="1">  1        1 0.16319495E+00 0.12692099E+04</pdfrwt>
<pdfrwt beam="2">  1       -1 0.58408154E-01 0.12692099E+04</pdfrwt>
<totfact> 0.39716583E+01</totfact>
</mgrwt>
</event>
<event>
12    1  0.2475634E-007  0.1981897E+04  0.7818608E-02  0.8615131E-01
          2   -1    0    0  501    0  0.00000000000E+00  0.00000000000E+00  0.21302544751E+04  0.21302544751E+04  0.00000000000E+00 0. -1.
         -2   -1    0    0    0  501 -0.00000000000E+00 -0.00000000000E+00 -0.46096789419E+03  0.46096789419E+03  0.00000000000E+00 0.  1.
         23    2    1    2    0    0 -0.29774716368E+03 -0.21615667131E+03  0.15698428129E+04  0.16151831651E+04  0.95042725430E+02 0.  0.
        254    2    1    2    0    0  0.29774716368E+03  0.21615667131E+03  0.99443767994E+02  0.97603920414E+03  0.89854681848E+03 0.  0.
        -24    2    4    4    0    0  0.39857144453E+03  0.39882541316E+03  0.32773607451E+03  0.65713935997E+03  0.80624421331E+02 0.  0.
         24    2    4    4    0    0 -0.10082428085E+03 -0.18266874186E+03 -0.22829230652E+03  0.31889984417E+03  0.77758141282E+02 0.  0.
         13    1    3    3    0    0 -0.19414604463E+03 -0.19320543152E+03  0.11330091526E+04  0.11656460721E+04  0.00000000000E+00 0. -1.
        -13    1    3    3    0    0 -0.10360111905E+03 -0.22951239781E+02  0.43683366024E+03  0.44953709301E+03  0.00000000000E+00 0.  1.
          4    1    6    6  502    0 -0.79827494033E+02 -0.13758154393E+03 -0.21495248740E+03  0.26740546343E+03  0.00000000000E+00 0. -1.
          3    1    5    5  503    0  0.37356886724E+03  0.36239581142E+03  0.32336557194E+03  0.61273951711E+03  0.00000000000E+00 0. -1.
         -4    1    5    5    0  503  0.25002577291E+02  0.36429601739E+02  0.43705025689E+01  0.44399842868E+02  0.00000000000E+00 0.  1.
         -3    1    6    6    0  502 -0.20996786815E+02 -0.45087197929E+02 -0.13339819120E+02  0.51494380740E+02  0.00000000000E+00 0.  1.
<mgrwt>
<rscale>  0 0.19818970E+04</rscale>
<asrwt>0</asrwt>
<pdfrwt beam="1">  1        2 0.32773145E+00 0.19818970E+04</pdfrwt>
<pdfrwt beam="2">  1       -2 0.70918139E-01 0.19818970E+04</pdfrwt>
<totfact> 0.94989948E+00</totfact>
</mgrwt>
</event>
<event>
12    1  0.1549527E-007  0.1235334E+04  0.7818608E-02  0.9082479E-01
         -1   -1    0    0    0  501 -0.00000000000E+00  0.00000000000E+00  0.51281332410E+03  0.51281332410E+03  0.00000000000E+00 0.  1.
          1   -1    0    0  501    0  0.00000000000E+00 -0.00000000000E+00 -0.74395969765E+03  0.74395969765E+03  0.00000000000E+00 0. -1.
         23    2    1    2    0    0  0.11519846450E+02 -0.76425513233E+02  0.21960424657E+03  0.24978490814E+03  0.90514691012E+02 0.  0.
        254    2    1    2    0    0 -0.11519846450E+02  0.76425513233E+02 -0.45075062012E+03  0.10069881136E+04  0.89714846791E+03 0.  0.
        -24    2    4    4    0    0 -0.41848166875E+03 -0.17561702231E+02 -0.38979897618E+03  0.57778039928E+03  0.80322023702E+02 0.  0.
         24    2    4    4    0    0  0.40696182230E+03  0.93987215464E+02 -0.60951643934E+02  0.42920771432E+03  0.77798699562E+02 0.  0.
         13    1    3    3    0    0  0.51283613332E+02 -0.44834628737E+02  0.12025072356E+03  0.13820415857E+03  0.00000000000E+00 0.  1.
        -13    1    3    3    0    0 -0.39763766881E+02 -0.31590884495E+02  0.99353523009E+02  0.11158074957E+03  0.00000000000E+00 0. -1.
          2    1    6    6  502    0  0.39478601333E+03  0.77704723057E+02 -0.48270613187E+02  0.40524569388E+03  0.00000000000E+00 0. -1.
          1    1    5    5  503    0 -0.39381409944E+03 -0.27681646685E+02 -0.33879893607E+03  0.52023123471E+03  0.00000000000E+00 0. -1.
         -2    1    5    5    0  503 -0.24667569309E+02  0.10119944454E+02 -0.51000040114E+02  0.57549164573E+02  0.00000000000E+00 0.  1.
         -1    1    6    6    0  502  0.12175808970E+02  0.16282492407E+02 -0.12681030747E+02  0.23962020446E+02  0.00000000000E+00 0.  1.
<mgrwt>
<rscale>  0 0.12353339E+04</rscale>
<asrwt>0</asrwt>
<pdfrwt beam="1">  1        1 0.11445534E+00 0.12353339E+04</pdfrwt>
<pdfrwt beam="2">  1       -1 0.78894357E-01 0.12353339E+04</pdfrwt>
<totfact> 0.39362695E+01</totfact>
</mgrwt>
</event>
<event>
12    1  0.1549527E-007  0.1295833E+04  0.7818608E-02  0.9032876E-01
          1   -1    0    0  501    0  0.00000000000E+00  0.00000000000E+00  0.64479015706E+03  0.64479015706E+03  0.00000000000E+00 0. -1.
         -1   -1    0    0    0  501 -0.00000000000E+00 -0.00000000000E+00 -0.65105773194E+03  0.65105773194E+03  0.00000000000E+00 0.  1.
         23    2    1    2    0    0  0.11128975762E+03  0.43296245977E+02 -0.30515191087E+03  0.34032479514E+03  0.91887444233E+02 0.  0.
        254    2    1    2    0    0 -0.11128975762E+03 -0.43296245977E+02  0.29888433599E+03  0.95552309386E+03  0.89968470118E+03 0.  0.
        -24    2    4    4    0    0  0.21276742247E+03 -0.29202580948E+03 -0.95419102704E+02  0.38217323180E+03  0.80015776427E+02 0.  0.
         24    2    4    4    0    0 -0.32405718009E+03  0.24872956350E+03  0.39430343870E+03  0.57334986206E+03  0.79846169785E+02 0.  0.
         13    1    3    3    0    0 -0.44743146997E+01  0.25970359014E+02 -0.23466351638E+02  0.35286664599E+02  0.00000000000E+00 0. -1.
        -13    1    3    3    0    0  0.11576407232E+03  0.17325886963E+02 -0.28168555924E+03  0.30503813054E+03  0.00000000000E+00 0.  1.
          4    1    6    6  502    0 -0.28776283291E+03  0.18861333533E+03  0.30538471833E+03  0.46004593733E+03  0.00000000000E+00 0. -1.
          1    1    5    5  503    0  0.95869764386E+02 -0.80683609888E+02 -0.56847164568E+02  0.13759526426E+03  0.00000000000E+00 0. -1.
         -2    1    5    5    0  503  0.11689765809E+03 -0.21134219959E+03 -0.38571938135E+02  0.24457796754E+03  0.00000000000E+00 0.  1.
         -3    1    6    6    0  502 -0.36294347183E+02  0.60116228169E+02  0.88918720369E+02  0.11330392473E+03  0.00000000000E+00 0.  1.
<mgrwt>
<rscale>  0 0.12958327E+04</rscale>
<asrwt>0</asrwt>
<pdfrwt beam="1">  1        1 0.99198486E-01 0.12958327E+04</pdfrwt>
<pdfrwt beam="2">  1       -1 0.10016273E+00 0.12958327E+04</pdfrwt>
<totfact> 0.28780202E+01</totfact>
</mgrwt>
</event>
<event>
12    1  0.1549527E-007  0.2453406E+04  0.7818608E-02  0.8419775E-01
         -1   -1    0    0    0  501 -0.00000000000E+00  0.00000000000E+00  0.14181561269E+04  0.14181561269E+04  0.00000000000E+00 0.  1.
          1   -1    0    0  501    0  0.00000000000E+00 -0.00000000000E+00 -0.10610962784E+04  0.10610962784E+04  0.00000000000E+00 0. -1.
         23    2    1    2    0    0 -0.16348384278E+02  0.32174006139E+02  0.12387481846E+04  0.12427727665E+04  0.93191459134E+02 0.  0.
        254    2    1    2    0    0  0.16348384278E+02 -0.32174006139E+02 -0.88168833605E+03  0.12364796387E+04  0.86614383258E+03 0.  0.
        -24    2    4    4    0    0 -0.14734603355E+03 -0.12393520364E+03  0.10231518978E+03  0.23163207185E+03  0.78193544159E+02 0.  0.
         24    2    4    4    0    0  0.16369441782E+03  0.91761197499E+02 -0.98400352583E+03  0.10048475669E+04  0.78991860395E+02 0.  0.
         11    1    3    3    0    0 -0.46996171266E+02  0.39128190303E+02  0.56665148423E+03  0.56994171629E+03  0.00000000000E+00 0. -1.
        -11    1    3    3    0    0  0.30647786988E+02 -0.69541841636E+01  0.67209670037E+03  0.67283105024E+03  0.00000000000E+00 0.  1.
          2    1    6    6  502    0  0.20154575109E+02 -0.63484159419E+01 -0.42940034834E+02  0.47857662650E+02  0.00000000000E+00 0. -1.
          1    1    5    5  503    0 -0.10426633066E+03 -0.37629959333E+02  0.62713545997E+02  0.12735961055E+03  0.00000000000E+00 0. -1.
         -2    1    5    5    0  503 -0.43079702890E+02 -0.86305244305E+02  0.39601643783E+02  0.10427246130E+03  0.00000000000E+00 0.  1.
         -1    1    6    6    0  502  0.14353984272E+03  0.98109613441E+02 -0.94106349099E+03  0.95698990422E+03  0.00000000000E+00 0.  1.
<mgrwt>
<rscale>  0 0.24534059E+04</rscale>
<asrwt>0</asrwt>
<pdfrwt beam="1">  1        1 0.16324558E+00 0.24534059E+04</pdfrwt>
<pdfrwt beam="2">  1       -1 0.21817787E+00 0.24534059E+04</pdfrwt>
<totfact> 0.13702047E+00</totfact>
</mgrwt>
</event>
<event>
12    1  0.1549527E-007  0.1128516E+04  0.7818608E-02  0.9177835E-01
          2   -1    0    0  501    0  0.00000000000E+00  0.00000000000E+00  0.85619539045E+03  0.85619539045E+03  0.00000000000E+00 0.  1.
         -2   -1    0    0    0  501 -0.00000000000E+00 -0.00000000000E+00 -0.37186268665E+03  0.37186268665E+03  0.00000000000E+00 0. -1.
         23    2    1    2    0    0 -0.31433067239E+02 -0.75823563943E+02 -0.89374261566E+02  0.15153259919E+03  0.90758577673E+02 0.  0.
        254    2    1    2    0    0  0.31433067239E+02  0.75823563943E+02  0.57370696536E+03  0.10765254779E+04  0.90721010352E+03 0.  0.
        -24    2    4    4    0    0  0.12388765510E+03  0.46679765333E+03  0.22838729947E+03  0.54118208812E+03  0.86423918584E+02 0.  0.
         24    2    4    4    0    0 -0.92454587863E+02 -0.39097408939E+03  0.34531966590E+03  0.53534338979E+03  0.77060261780E+02 0.  0.
         13    1    3    3    0    0  0.22012205413E+02 -0.38053652423E+02 -0.71085398202E+02  0.83580808128E+02  0.00000000000E+00 0. -1.
        -13    1    3    3    0    0 -0.53445272652E+02 -0.37769911520E+02 -0.18288863364E+02  0.67951791060E+02  0.00000000000E+00 0.  1.
          2    1    6    6  502    0 -0.76619212139E+02 -0.36355923099E+03  0.33920994095E+03  0.50309959467E+03  0.00000000000E+00 0. -1.
          3    1    5    5  503    0  0.10037952152E+03  0.44290992221E+03  0.22681042773E+03  0.50763000075E+03  0.00000000000E+00 0. -1.
         -4    1    5    5    0  503  0.23508133585E+02  0.23887731123E+02  0.15768717407E+01  0.33552087377E+02  0.00000000000E+00 0.  1.
         -1    1    6    6    0  502 -0.15835375724E+02 -0.27414858396E+02  0.61097249423E+01  0.32243795125E+02  0.00000000000E+00 0.  1.
<mgrwt>
<rscale>  0 0.11285160E+04</rscale>
<asrwt>0</asrwt>
<pdfrwt beam="1">  1        2 0.13172237E+00 0.11285160E+04</pdfrwt>
<pdfrwt beam="2">  1       -2 0.57209644E-01 0.11285160E+04</pdfrwt>
<totfact> 0.89201598E+01</totfact>
</mgrwt>
</event>
<event>
12    1  0.1549527E-007  0.1762875E+04  0.7818608E-02  0.8726295E-01
          2   -1    0    0  501    0  0.00000000000E+00  0.00000000000E+00  0.16458301546E+04  0.16458301546E+04  0.00000000000E+00 0.  1.
         -2   -1    0    0    0  501 -0.00000000000E+00 -0.00000000000E+00 -0.47206095535E+03  0.47206095535E+03  0.00000000000E+00 0. -1.
         23    2    1    2    0    0 -0.28240601776E+03  0.14530740373E+03 -0.23861250188E+03  0.40856774710E+03  0.95521083894E+02 0.  0.
        254    2    1    2    0    0  0.28240601776E+03 -0.14530740373E+03  0.14123817011E+04  0.17093233629E+04  0.90889872298E+03 0.  0.
        -24    2    4    4    0    0  0.40156727129E+03 -0.21448615854E+03  0.14688724887E+04  0.15399000443E+04  0.80281833568E+02 0.  0.
         24    2    4    4    0    0 -0.11916125353E+03  0.69178754806E+02 -0.56490787533E+02  0.16942331858E+03  0.80795713649E+02 0.  0.
         11    1    3    3    0    0 -0.28030753894E+03  0.14938980667E+03 -0.24468943614E+03  0.40095205560E+03  0.00000000000E+00 0. -1.
        -11    1    3    3    0    0 -0.20984788188E+01 -0.40824029401E+01  0.60769342593E+01  0.76156915057E+01  0.00000000000E+00 0.  1.
          4    1    6    6  502    0 -0.83087686066E+02  0.85302152695E+02 -0.50957698137E+02  0.12952493131E+03  0.00000000000E+00 0. -1.
          1    1    5    5  503    0  0.24584756179E+03 -0.11498936933E+03  0.99250106752E+03  0.10289421498E+04  0.00000000000E+00 0. -1.
         -2    1    5    5    0  503  0.15571970951E+03 -0.99496789206E+02  0.47637142114E+03  0.51095789442E+03  0.00000000000E+00 0.  1.
         -3    1    6    6    0  502 -0.36073567462E+02 -0.16123397889E+02 -0.55330893962E+01  0.39898387276E+02  0.00000000000E+00 0.  1.
<mgrwt>
<rscale>  0 0.17628751E+04</rscale>
<asrwt>0</asrwt>
<pdfrwt beam="1">  1        2 0.25320464E+00 0.17628751E+04</pdfrwt>
<pdfrwt beam="2">  1       -2 0.72624763E-01 0.17628751E+04</pdfrwt>
<totfact> 0.17066252E+01</totfact>
</mgrwt>
</event>
<event>
12    1  0.1549527E-007  0.1646861E+04  0.7818608E-02  0.8792266E-01
         -2   -1    0    0    0  501 -0.00000000000E+00  0.00000000000E+00  0.27190306540E+03  0.27190306540E+03  0.00000000000E+00 0.  1.
          2   -1    0    0  501    0  0.00000000000E+00 -0.00000000000E+00 -0.24936744870E+04  0.24936744870E+04  0.00000000000E+00 0. -1.
         23    2    1    2    0    0  0.31804748066E+03  0.54751085356E+02  0.17949199395E+02  0.33603319142E+03  0.91892604019E+02 0.  0.
        254    2    1    2    0    0 -0.31804748066E+03 -0.54751085356E+02 -0.22397206210E+04  0.24295443610E+04  0.88441249461E+03 0.  0.
        -24    2    4    4    0    0 -0.25668398109E+03  0.39018969336E+03 -0.13263542691E+04  0.14084362552E+04  0.79639028911E+02 0.  0.
         24    2    4    4    0    0 -0.61363499570E+02 -0.44494077871E+03 -0.91336635195E+03  0.10211081058E+04  0.81767323872E+02 0.  0.
         13    1    3    3    0    0  0.25639444024E+03  0.11511775092E+02 -0.68689092466E+01  0.25674464331E+03  0.00000000000E+00 0.  1.
        -13    1    3    3    0    0  0.61653040418E+02  0.43239310263E+02  0.24818108641E+02  0.79288548110E+02  0.00000000000E+00 0. -1.
          4    1    6    6  502    0 -0.15679010139E+02 -0.14433518103E+03 -0.21508575261E+03  0.25950020581E+03  0.00000000000E+00 0. -1.
          3    1    5    5  503    0 -0.14526133489E+03  0.14980881692E+03 -0.60317187119E+03  0.63824747805E+03  0.00000000000E+00 0. -1.
         -4    1    5    5    0  503 -0.11142264620E+03  0.24038087644E+03 -0.72318239790E+03  0.77018877716E+03  0.00000000000E+00 0.  1.
         -1    1    6    6    0  502 -0.45684489431E+02 -0.30060559768E+03 -0.69828059934E+03  0.76160790000E+03  0.00000000000E+00 0.  1.
<mgrwt>
<rscale>  0 0.16468609E+04</rscale>
<asrwt>0</asrwt>
<pdfrwt beam="1">  1        2 0.38364223E+00 0.16468609E+04</pdfrwt>
<pdfrwt beam="2">  1       -2 0.41831241E-01 0.16468609E+04</pdfrwt>
<totfact> 0.18199346E+01</totfact>
</mgrwt>
</event>
<event>
12    1  0.1781325E-007  0.1612733E+04  0.7818608E-02  0.8812764E-01
          2   -1    0    0  501    0  0.00000000000E+00  0.00000000000E+00  0.13031686080E+04  0.13031686080E+04  0.00000000000E+00 0. -1.
         -2   -1    0    0    0  501 -0.00000000000E+00 -0.00000000000E+00 -0.49895847654E+03  0.49895847654E+03  0.00000000000E+00 0.  1.
         23    2    1    2    0    0  0.31179504498E+02  0.29327838748E+03 -0.23265223458E+03  0.38651740685E+03  0.91017962388E+02 0.  0.
        254    2    1    2    0    0 -0.31179504498E+02 -0.29327838748E+03  0.10368623661E+04  0.14156096777E+04  0.91754172625E+03 0.  0.
        -24    2    4    4    0    0  0.20953975192E+03 -0.53709900454E+03  0.46984901035E+03  0.74809130470E+03  0.80624185749E+02 0.  0.
         24    2    4    4    0    0 -0.24071925642E+03  0.24382061706E+03  0.56701335570E+03  0.66751837300E+03  0.81745819724E+02 0.  0.
         11    1    3    3    0    0 -0.47408824552E+01  0.44283113427E+02 -0.10182834091E+01  0.44547805808E+02  0.00000000000E+00 0. -1.
        -11    1    3    3    0    0  0.35920386954E+02  0.24899527406E+03 -0.23163395117E+03  0.34196960104E+03  0.00000000000E+00 0.  1.
          2    1    6    6  502    0 -0.21164340578E+02 -0.30587072789E+01  0.26810008168E+02  0.34293753663E+02  0.00000000000E+00 0. -1.
          3    1    5    5  503    0  0.30731209661E+02 -0.27073433042E+02  0.43138655170E+02  0.59483792699E+02  0.00000000000E+00 0. -1.
         -4    1    5    5    0  503  0.17880854226E+03 -0.51002557150E+03  0.42671035518E+03  0.68860751200E+03  0.00000000000E+00 0.  1.
         -1    1    6    6    0  502 -0.21955491584E+03  0.24687932434E+03  0.54020334753E+03  0.63322461934E+03  0.00000000000E+00 0.  1.
<mgrwt>
<rscale>  0 0.16127331E+04</rscale>
<asrwt>0</asrwt>
<pdfrwt beam="1">  1        2 0.20048748E+00 0.16127331E+04</pdfrwt>
<pdfrwt beam="2">  1       -2 0.76762843E-01 0.16127331E+04</pdfrwt>
<totfact> 0.23914069E+01</totfact>
</mgrwt>
</event>
<event>
12    1  0.1549527E-007  0.2661676E+04  0.7818608E-02  0.8347548E-01
         -1   -1    0    0    0  501 -0.00000000000E+00  0.00000000000E+00  0.19017183526E+04  0.19017183526E+04  0.00000000000E+00 0.  1.
          1   -1    0    0  501    0  0.00000000000E+00 -0.00000000000E+00 -0.93133111910E+03  0.93133111910E+03  0.00000000000E+00 0. -1.
         23    2    1    2    0    0  0.65421173787E+03 -0.80620934257E+03  0.10183193053E+04  0.14572024317E+04  0.92185776356E+02 0.  0.
        254    2    1    2    0    0 -0.65421173787E+03  0.80620934257E+03 -0.47932071847E+02  0.13758470400E+04  0.90149381132E+03 0.  0.
        -24    2    4    4    0    0 -0.74842225390E+03  0.91418746046E+03  0.47368805090E+02  0.11857744517E+04  0.89121623019E+02 0.  0.
         24    2    4    4    0    0  0.94210516023E+02 -0.10797811788E+03 -0.95300876937E+02  0.19007258824E+03  0.80687275221E+02 0.  0.
         11    1    3    3    0    0  0.44750136621E+02 -0.39772786098E+02  0.34394167811E+02  0.69046419321E+02  0.00000000000E+00 0. -1.
        -11    1    3    3    0    0  0.60946160125E+03 -0.76643655647E+03  0.98392513752E+03  0.13881560124E+04  0.00000000000E+00 0.  1.
          4    1    6    6  502    0  0.30599130057E+01 -0.15316052093E+02 -0.50067637650E+02  0.52447238814E+02  0.00000000000E+00 0. -1.
          1    1    5    5  503    0 -0.16064378574E+03  0.24627350376E+03  0.33637387614E+02  0.29595360853E+03  0.00000000000E+00 0. -1.
         -2    1    5    5    0  503 -0.58777846815E+03  0.66791395669E+03  0.13731417476E+02  0.88982084320E+03  0.00000000000E+00 0.  1.
         -3    1    6    6    0  502  0.91150603018E+02 -0.92662065792E+02 -0.45233239287E+02  0.13762534942E+03  0.00000000000E+00 0.  1.
<mgrwt>
<rscale>  0 0.26616758E+04</rscale>
<asrwt>0</asrwt>
<pdfrwt beam="1">  1        1 0.14328171E+00 0.26616758E+04</pdfrwt>
<pdfrwt beam="2">  1       -1 0.29257205E+00 0.26616758E+04</pdfrwt>
<totfact> 0.55458711E-01</totfact>
</mgrwt>
</event>
<event>
12    1  0.1549527E-007  0.2774134E+04  0.7818608E-02  0.8311344E-01
         -1   -1    0    0    0  501 -0.00000000000E+00  0.00000000000E+00  0.11412568505E+04  0.11412568505E+04  0.00000000000E+00 0.  1.
          1   -1    0    0  501    0  0.00000000000E+00 -0.00000000000E+00 -0.16858208388E+04  0.16858208388E+04  0.00000000000E+00 0. -1.
         23    2    1    2    0    0 -0.49302565489E+03 -0.49660403041E+03 -0.12844335231E+04  0.14655524099E+04  0.91567088117E+02 0.  0.
        254    2    1    2    0    0  0.49302565489E+03  0.49660403041E+03  0.73986953478E+03  0.13615252794E+04  0.90368927100E+03 0.  0.
        -24    2    4    4    0    0  0.47588902758E+03  0.12782090946E+03 -0.33756417833E+02  0.50034512987E+03  0.79982509172E+02 0.  0.
         24    2    4    4    0    0  0.17136627301E+02  0.36878312095E+03  0.77362595262E+03  0.86118014951E+03  0.82701155143E+02 0.  0.
         11    1    3    3    0    0 -0.40230168730E+02 -0.11262679606E+02 -0.84726843501E+02  0.94466673688E+02  0.00000000000E+00 0.  1.
        -11    1    3    3    0    0 -0.45279548616E+03 -0.48534135080E+03 -0.11997066796E+04  0.13710857362E+04  0.00000000000E+00 0. -1.
          2    1    6    6  502    0  0.38160318861E+02  0.13241121252E+03  0.23181478183E+03  0.26967949906E+03  0.00000000000E+00 0. -1.
          3    1    5    5  503    0  0.59710593763E+02 -0.16894951284E+01  0.15483576835E+02  0.61708593833E+02  0.00000000000E+00 0. -1.
         -4    1    5    5    0  503  0.41617843382E+03  0.12951040459E+03 -0.49239994668E+02  0.43863653604E+03  0.00000000000E+00 0.  1.
         -1    1    6    6    0  502 -0.21023691560E+02  0.23637190842E+03  0.54181117079E+03  0.59150065046E+03  0.00000000000E+00 0.  1.
<mgrwt>
<rscale>  0 0.27741338E+04</rscale>
<asrwt>0</asrwt>
<pdfrwt beam="1">  1        1 0.25935705E+00 0.27741338E+04</pdfrwt>
<pdfrwt beam="2">  1       -1 0.17557798E+00 0.27741338E+04</pdfrwt>
<totfact> 0.94723964E-01</totfact>
</mgrwt>
</event>
<event>
12    1  0.1549527E-007  0.2916504E+04  0.7818608E-02  0.8267984E-01
         -2   -1    0    0    0  501 -0.00000000000E+00  0.00000000000E+00  0.14352802837E+04  0.14352802837E+04  0.00000000000E+00 0.  1.
          2   -1    0    0  501    0  0.00000000000E+00 -0.00000000000E+00 -0.14815909845E+04  0.14815909845E+04  0.00000000000E+00 0. -1.
         23    2    1    2    0    0  0.30511974905E+03 -0.12802786324E+04  0.25404781737E+02  0.13196362904E+04  0.92645012169E+02 0.  0.
        254    2    1    2    0    0 -0.30511974905E+03  0.12802786324E+04 -0.71715482521E+02  0.15972349778E+04  0.90211142670E+03 0.  0.
        -24    2    4    4    0    0  0.31258287938E+03  0.51382510541E+03 -0.57412459815E+02  0.60944147830E+03  0.79990183794E+02 0.  0.
         24    2    4    4    0    0 -0.61770262843E+03  0.76645352698E+03 -0.14303022706E+02  0.98779349954E+03  0.80770508763E+02 0.  0.
         11    1    3    3    0    0  0.13306627672E+03 -0.44665305838E+03 -0.26952711638E+02  0.46683191539E+03  0.00000000000E+00 0.  1.
        -11    1    3    3    0    0  0.17205347233E+03 -0.83362557401E+03  0.52357493375E+02  0.85280437505E+03  0.00000000000E+00 0. -1.
          4    1    6    6  502    0 -0.11654410778E+03  0.99079875875E+02  0.35215859547E+01  0.15300899461E+03  0.00000000000E+00 0. -1.
          1    1    5    5  503    0  0.35482473652E+02  0.34599410821E+02  0.13451103388E+02  0.51352286687E+02  0.00000000000E+00 0. -1.
         -2    1    5    5    0  503  0.27710040572E+03  0.47922569459E+03 -0.70863563203E+02  0.55808919162E+03  0.00000000000E+00 0.  1.
         -3    1    6    6    0  502 -0.50115852064E+03  0.66737365110E+03 -0.17824608661E+02  0.83478450493E+03  0.00000000000E+00 0.  1.
<mgrwt>
<rscale>  0 0.29165036E+04</rscale>
<asrwt>0</asrwt>
<pdfrwt beam="1">  1        2 0.22793707E+00 0.29165036E+04</pdfrwt>
<pdfrwt beam="2">  1       -2 0.22081235E+00 0.29165036E+04</pdfrwt>
<totfact> 0.10946090E+00</totfact>
</mgrwt>
</event>
<event>
12    1  0.1549527E-007  0.1519520E+04  0.7818608E-02  0.8871575E-01
         -3   -1    0    0    0  501 -0.00000000000E+00  0.00000000000E+00  0.50740674450E+03  0.50740674450E+03  0.00000000000E+00 0.  1.
          3   -1    0    0  501    0  0.00000000000E+00 -0.00000000000E+00 -0.11376181141E+04  0.11376181141E+04  0.00000000000E+00 0. -1.
         23    2    1    2    0    0 -0.66540733359E+02  0.19910933970E+03  0.26836619073E+03  0.35265537389E+03  0.90957144066E+02 0.  0.
        254    2    1    2    0    0  0.66540733359E+02 -0.19910933970E+03 -0.89857756028E+03  0.12923694847E+04  0.90482321736E+03 0.  0.
        -24    2    4    4    0    0  0.20168346502E+02  0.33719281231E+03 -0.18155476193E+03  0.39218483486E+03  0.82103947755E+02 0.  0.
         24    2    4    4    0    0  0.46372386857E+02 -0.53630215201E+03 -0.71702279835E+03  0.90018464980E+03  0.80251566183E+02 0.  0.
         13    1    3    3    0    0 -0.71641727094E+02  0.11012291763E+03  0.20426836588E+03  0.24286860511E+03  0.00000000000E+00 0.  1.
        -13    1    3    3    0    0  0.51009937348E+01  0.88986422064E+02  0.64097824850E+02  0.10978676878E+03  0.00000000000E+00 0. -1.
          4    1    6    6  502    0  0.58875707802E+02 -0.47684541301E+03 -0.66363332678E+03  0.81930280684E+03  0.00000000000E+00 0. -1.
          3    1    5    5  503    0  0.13803010899E+01  0.30265771145E+03 -0.13543316964E+03  0.33158066736E+03  0.00000000000E+00 0. -1.
         -4    1    5    5    0  503  0.18788045412E+02  0.34535100863E+02 -0.46121592294E+02  0.60604167495E+02  0.00000000000E+00 0.  1.
         -3    1    6    6    0  502 -0.12503320944E+02 -0.59456738997E+02 -0.53389471568E+02  0.80881842963E+02  0.00000000000E+00 0.  1.
<mgrwt>
<rscale>  0 0.15195198E+04</rscale>
<asrwt>0</asrwt>
<pdfrwt beam="1">  1        3 0.17501817E+00 0.15195198E+04</pdfrwt>
<pdfrwt beam="2">  1       -3 0.78062576E-01 0.15195198E+04</pdfrwt>
<totfact> 0.83275692E-01</totfact>
</mgrwt>
</event>
<event>
12    1  0.1625517E-007  0.2892439E+04  0.7818608E-02  0.8275131E-01
         -1   -1    0    0    0  501 -0.00000000000E+00  0.00000000000E+00  0.62425602075E+03  0.62425602075E+03  0.00000000000E+00 0.  1.
          1   -1    0    0  501    0  0.00000000000E+00 -0.00000000000E+00 -0.33504696139E+04  0.33504696139E+04  0.00000000000E+00 0. -1.
         23    2    1    2    0    0 -0.11246533687E+04 -0.42173522148E+03 -0.53972214438E+03  0.13200259210E+04  0.91992621359E+02 0.  0.
        254    2    1    2    0    0  0.11246533687E+04  0.42173522148E+03 -0.21864914487E+04  0.26546997136E+04  0.90773339540E+03 0.  0.
        -24    2    4    4    0    0  0.99860941419E+03  0.56612125009E+03 -0.12654053174E+04  0.17104944539E+04  0.82623407956E+02 0.  0.
         24    2    4    4    0    0  0.12604395448E+03 -0.14438602860E+03 -0.92108613129E+03  0.94420525965E+03  0.79934394260E+02 0.  0.
         11    1    3    3    0    0 -0.29221364736E+03 -0.90465525024E+02 -0.17730675788E+03  0.35356825835E+03  0.00000000000E+00 0. -1.
        -11    1    3    3    0    0 -0.83243972131E+03 -0.33126969646E+03 -0.36241538651E+03  0.96645766270E+03  0.00000000000E+00 0.  1.
          4    1    6    6  502    0  0.28026625400E+02 -0.66501383277E+01 -0.58470583732E+02  0.65180712124E+02  0.00000000000E+00 0. -1.
          3    1    5    5  503    0  0.74873369219E+02  0.68861417176E+02 -0.10591318580E+03  0.14685203138E+03  0.00000000000E+00 0. -1.
         -4    1    5    5    0  503  0.92373604497E+03  0.49725983291E+03 -0.11594921316E+04  0.15636424225E+04  0.00000000000E+00 0.  1.
         -3    1    6    6    0  502  0.98017329083E+02 -0.13773589028E+03 -0.86261554755E+03  0.87902454753E+03  0.00000000000E+00 0.  1.
<mgrwt>
<rscale>  0 0.28924390E+04</rscale>
<asrwt>0</asrwt>
<pdfrwt beam="1">  1        1 0.51545687E+00 0.28924390E+04</pdfrwt>
<pdfrwt beam="2">  1       -1 0.96039387E-01 0.28924390E+04</pdfrwt>
<totfact> 0.29301759E-01</totfact>
</mgrwt>
</event>
<event>
12    1  0.1549527E-007  0.1661990E+04  0.7818608E-02  0.8783345E-01
          2   -1    0    0  501    0  0.00000000000E+00  0.00000000000E+00  0.28946620638E+04  0.28946620638E+04  0.00000000000E+00 0. -1.
         -2   -1    0    0    0  501 -0.00000000000E+00 -0.00000000000E+00 -0.23856059224E+03  0.23856059224E+03  0.00000000000E+00 0.  1.
         23    2    1    2    0    0  0.17223289501E+03  0.31440398270E+03  0.74960153771E+02  0.37632370698E+03  0.86524408785E+02 0.  0.
        254    2    1    2    0    0 -0.17223289501E+03 -0.31440398270E+03  0.25811413178E+04  0.27568989491E+04  0.89982624907E+03 0.  0.
        -24    2    4    4    0    0  0.34574253055E+03 -0.25874082366E+03  0.12628959266E+04  0.13370988574E+04  0.80265320729E+02 0.  0.
         24    2    4    4    0    0 -0.51797542556E+03 -0.55663159040E+02  0.13182453912E+04  0.14198000917E+04  0.81636145341E+02 0.  0.
         13    1    3    3    0    0  0.71135515537E+02  0.14317483203E+03  0.77038032061E+02  0.17746591921E+03  0.00000000000E+00 0. -1.
        -13    1    3    3    0    0  0.10109737948E+03  0.17122915067E+03 -0.20778782895E+01  0.19885778777E+03  0.00000000000E+00 0.  1.
          4    1    6    6  502    0 -0.32633621098E+03  0.40291756566E+01  0.79558003365E+03  0.85991810470E+03  0.00000000000E+00 0. -1.
          1    1    5    5  503    0  0.33187212021E+03 -0.26433172709E+03  0.12188882718E+04  0.12906196129E+04  0.00000000000E+00 0. -1.
         -4    1    5    5    0  503  0.13870410339E+02  0.55909034324E+01  0.44007654809E+02  0.46479244464E+02  0.00000000000E+00 0.  1.
         -3    1    6    6    0  502 -0.19163921458E+03 -0.59692334696E+02  0.52266535752E+03  0.55988198697E+03  0.00000000000E+00 0.  1.
<mgrwt>
<rscale>  0 0.16619895E+04</rscale>
<asrwt>0</asrwt>
<pdfrwt beam="1">  1        2 0.44533260E+00 0.16619895E+04</pdfrwt>
<pdfrwt beam="2">  1       -2 0.36701632E-01 0.16619895E+04</pdfrwt>
<totfact> 0.13568076E+01</totfact>
</mgrwt>
</event>
<event>
12    1  0.1549527E-007  0.1993091E+04  0.7818608E-02  0.8609858E-01
          1   -1    0    0  501    0  0.00000000000E+00  0.00000000000E+00  0.91375423461E+03  0.91375423461E+03  0.00000000000E+00 0. -1.
         -1   -1    0    0    0  501 -0.00000000000E+00 -0.00000000000E+00 -0.10868375869E+04  0.10868375869E+04  0.00000000000E+00 0.  1.
         23    2    1    2    0    0 -0.69381479234E+03  0.28342492943E+03  0.16449998355E+03  0.77283406549E+03  0.92214920234E+02 0.  0.
        254    2    1    2    0    0  0.69381479234E+03 -0.28342492943E+03 -0.33758333586E+03  0.12277577560E+04  0.91198571379E+03 0.  0.
        -24    2    4    4    0    0  0.25551770758E+03  0.19895977960E+03 -0.45171547806E+03  0.56142719785E+03  0.79242239939E+02 0.  0.
         24    2    4    4    0    0  0.43829708476E+03 -0.48238470903E+03  0.11413214219E+03  0.66633055818E+03  0.78555234464E+02 0.  0.
         13    1    3    3    0    0 -0.27618679114E+03  0.89479305021E+02  0.10412495870E+03  0.30842778191E+03  0.00000000000E+00 0. -1.
        -13    1    3    3    0    0 -0.41762800119E+03  0.19394562441E+03  0.60375024850E+02  0.46440628358E+03  0.00000000000E+00 0.  1.
          2    1    6    6  502    0  0.40010299070E+03 -0.46471401420E+03  0.11645770780E+03  0.62418259817E+03  0.00000000000E+00 0. -1.
          3    1    5    5  503    0  0.19335789541E+03  0.18823242796E+03 -0.37741211673E+03  0.46395972725E+03  0.00000000000E+00 0. -1.
         -4    1    5    5    0  503  0.62159812168E+02  0.10727351639E+02 -0.74303361325E+02  0.97467470605E+02  0.00000000000E+00 0.  1.
         -1    1    6    6    0  502  0.38194094059E+02 -0.17670694835E+02 -0.23255656052E+01  0.42147960002E+02  0.00000000000E+00 0.  1.
<mgrwt>
<rscale>  0 0.19930905E+04</rscale>
<asrwt>0</asrwt>
<pdfrwt beam="1">  1        1 0.14057758E+00 0.19930905E+04</pdfrwt>
<pdfrwt beam="2">  1       -1 0.16720578E+00 0.19930905E+04</pdfrwt>
<totfact> 0.42469432E+00</totfact>
</mgrwt>
</event>
<event>
12    1  0.1549527E-007  0.1178038E+04  0.7818608E-02  0.9132300E-01
          2   -1    0    0  501    0  0.00000000000E+00  0.00000000000E+00  0.94295750520E+03  0.94295750520E+03  0.00000000000E+00 0. -1.
         -2   -1    0    0    0  501 -0.00000000000E+00 -0.00000000000E+00 -0.36793078388E+03  0.36793078388E+03  0.00000000000E+00 0.  1.
         23    2    1    2    0    0  0.20425451813E+03  0.35366338646E+02  0.22481178411E+03  0.31967573794E+03  0.93174852123E+02 0.  0.
        254    2    1    2    0    0 -0.20425451813E+03 -0.35366338646E+02  0.35021493721E+03  0.99121255113E+03  0.90381476708E+03 0.  0.
        -24    2    4    4    0    0 -0.52079378714E+03 -0.16734018816E+03  0.31691104098E+03  0.63702793994E+03  0.78377809825E+02 0.  0.
         24    2    4    4    0    0  0.31653926901E+03  0.13197384951E+03  0.33303896234E+02  0.35418461119E+03  0.81996240891E+02 0.  0.
         13    1    3    3    0    0  0.12969938603E+03 -0.23211344095E+02  0.14296185646E+03  0.19441910820E+03  0.00000000000E+00 0. -1.
        -13    1    3    3    0    0  0.74555132098E+02  0.58577682740E+02  0.81849927653E+02  0.12525662974E+03  0.00000000000E+00 0.  1.
          4    1    6    6  502    0  0.19834561572E+03  0.11432433351E+03 -0.40758003336E+01  0.22897084674E+03  0.00000000000E+00 0. -1.
          1    1    5    5  503    0 -0.49895716268E+03 -0.15350719901E+03  0.31780150424E+03  0.61116324042E+03  0.00000000000E+00 0. -1.
         -2    1    5    5    0  503 -0.21836624459E+02 -0.13832989144E+02 -0.89046326634E+00  0.25864699520E+02  0.00000000000E+00 0.  1.
         -3    1    6    6    0  502  0.11819365329E+03  0.17649516003E+02  0.37379696568E+02  0.12521376446E+03  0.00000000000E+00 0.  1.
<mgrwt>
<rscale>  0 0.11780375E+04</rscale>
<asrwt>0</asrwt>
<pdfrwt beam="1">  1        2 0.14507038E+00 0.11780375E+04</pdfrwt>
<pdfrwt beam="2">  1       -2 0.56604737E-01 0.11780375E+04</pdfrwt>
<totfact> 0.79399567E+01</totfact>
</mgrwt>
</event>
<event>
12    1  0.1549527E-007  0.1655950E+04  0.7818608E-02  0.8786894E-01
          1   -1    0    0  501    0  0.00000000000E+00  0.00000000000E+00  0.48969313003E+03  0.48969313003E+03  0.00000000000E+00 0. -1.
         -1   -1    0    0    0  501 -0.00000000000E+00 -0.00000000000E+00 -0.13999429155E+04  0.13999429155E+04  0.00000000000E+00 0.  1.
         23    2    1    2    0    0 -0.34630811385E+03  0.88501876382E+02 -0.84565777655E+03  0.92328627234E+03  0.97767958951E+02 0.  0.
        254    2    1    2    0    0  0.34630811385E+03 -0.88501876382E+02 -0.64592008890E+02  0.96634977316E+03  0.89548750111E+03 0.  0.
        -24    2    4    4    0    0 -0.10312206530E+02  0.14396470912E+03  0.33737756461E+03  0.37527911522E+03  0.78604161058E+02 0.  0.
         24    2    4    4    0    0  0.35662032038E+03 -0.23246658551E+03 -0.40196957350E+03  0.59107065795E+03  0.81032205785E+02 0.  0.
         13    1    3    3    0    0 -0.26193910890E+03  0.59802202966E+02 -0.72575978384E+03  0.77389641690E+03  0.00000000000E+00 0.  1.
        -13    1    3    3    0    0 -0.84369004950E+02  0.28699673416E+02 -0.11989799271E+03  0.14938985543E+03  0.00000000000E+00 0. -1.
          4    1    6    6  502    0  0.31309078074E+02 -0.53527812011E+02 -0.54331888363E+02  0.82446583444E+02  0.00000000000E+00 0. -1.
          1    1    5    5  503    0 -0.27897129489E+02  0.41191973671E+02  0.54473268578E+02  0.73772389945E+02  0.00000000000E+00 0. -1.
         -2    1    5    5    0  503  0.17584922958E+02  0.10277273545E+03  0.28290429604E+03  0.30150672527E+03  0.00000000000E+00 0.  1.
         -3    1    6    6    0  502  0.32531124231E+03 -0.17893877350E+03 -0.34763768514E+03  0.50862407450E+03  0.00000000000E+00 0.  1.
<mgrwt>
<rscale>  0 0.16559498E+04</rscale>
<asrwt>0</asrwt>
<pdfrwt beam="1">  1        1 0.75337403E-01 0.16559498E+04</pdfrwt>
<pdfrwt beam="2">  1       -1 0.21537584E+00 0.16559498E+04</pdfrwt>
<totfact> 0.51499242E+00</totfact>
</mgrwt>
</event>
<event>
12    1  0.1549527E-007  0.1342633E+04  0.7818608E-02  0.8996423E-01
          1   -1    0    0  501    0  0.00000000000E+00  0.00000000000E+00  0.59509048993E+03  0.59509048993E+03  0.00000000000E+00 0. -1.
         -1   -1    0    0    0  501 -0.00000000000E+00 -0.00000000000E+00 -0.75730695618E+03  0.75730695618E+03  0.00000000000E+00 0.  1.
         23    2    1    2    0    0  0.30494095475E+03  0.10525376661E+03 -0.33950105947E+02  0.33670120795E+03  0.90264901669E+02 0.  0.
        254    2    1    2    0    0 -0.30494095475E+03 -0.10525376661E+03 -0.12826636031E+03  0.10156962382E+04  0.95452566636E+03 0.  0.
        -24    2    4    4    0    0 -0.24479935210E+03 -0.14024674440E+03 -0.52719187105E+03  0.60296146539E+03  0.77687757972E+02 0.  0.
         24    2    4    4    0    0 -0.60141602656E+02  0.34992977792E+02  0.39892551074E+03  0.41273477277E+03  0.79792911119E+02 0.  0.
         13    1    3    3    0    0  0.29666284228E+03  0.78494497693E+02 -0.28787822199E+02  0.30821902418E+03  0.00000000000E+00 0.  1.
        -13    1    3    3    0    0  0.82781124694E+01  0.26759268918E+02 -0.51622837486E+01  0.28482183775E+02  0.00000000000E+00 0. -1.
          4    1    6    6  502    0 -0.59048665074E+02 -0.27565352692E+01  0.15474901328E+03  0.16565506465E+03  0.00000000000E+00 0. -1.
          1    1    5    5  503    0 -0.18397136422E+03 -0.71142848705E+02 -0.39951906713E+03  0.44555836068E+03  0.00000000000E+00 0. -1.
         -2    1    5    5    0  503 -0.60827987880E+02 -0.69103895698E+02 -0.12767280392E+03  0.15740310471E+03  0.00000000000E+00 0.  1.
         -3    1    6    6    0  502 -0.10929375818E+01  0.37749513061E+02  0.24417649747E+03  0.24707970812E+03  0.00000000000E+00 0.  1.
<mgrwt>
<rscale>  0 0.13426335E+04</rscale>
<asrwt>0</asrwt>
<pdfrwt beam="1">  1        1 0.91552383E-01 0.13426335E+04</pdfrwt>
<pdfrwt beam="2">  1       -1 0.11650876E+00 0.13426335E+04</pdfrwt>
<totfact> 0.22587926E+01</totfact>
</mgrwt>
</event>
<event>
12    1  0.1549527E-007  0.1436235E+04  0.7818608E-02  0.8927999E-01
          2   -1    0    0  501    0  0.00000000000E+00  0.00000000000E+00  0.12497356781E+04  0.12497356781E+04  0.00000000000E+00 0. -1.
         -2   -1    0    0    0  501 -0.00000000000E+00 -0.00000000000E+00 -0.41264173459E+03  0.41264173459E+03  0.00000000000E+00 0.  1.
         23    2    1    2    0    0  0.39420955713E+03 -0.14388349171E+03  0.13978521886E+03  0.45100287026E+03  0.88091131497E+02 0.  0.
        254    2    1    2    0    0 -0.39420955713E+03  0.14388349171E+03  0.69730872465E+03  0.12113745424E+04  0.89726539578E+03 0.  0.
        -24    2    4    4    0    0 -0.25403173272E+03 -0.20678118676E+03  0.74823120454E+03  0.82032660369E+03  0.76126347905E+02 0.  0.
         24    2    4    4    0    0 -0.14017782441E+03  0.35066467847E+03 -0.50922479889E+02  0.39104793875E+03  0.87805764387E+02 0.  0.
         11    1    3    3    0    0  0.34920346784E+03 -0.14852981940E+03  0.14327007227E+03  0.40562357280E+03  0.00000000000E+00 0. -1.
        -11    1    3    3    0    0  0.45006089295E+02  0.46463276925E+01 -0.34848534109E+01  0.45379297460E+02  0.00000000000E+00 0.  1.
          2    1    6    6  502    0 -0.10374274913E+03  0.32615364059E+03 -0.33818980431E+02  0.34392219863E+03  0.00000000000E+00 0. -1.
          3    1    5    5  503    0 -0.75074225809E+02 -0.10181383254E+03  0.33125823914E+03  0.35459020978E+03  0.00000000000E+00 0. -1.
         -4    1    5    5    0  503 -0.17895750691E+03 -0.10496735421E+03  0.41697296540E+03  0.46573639390E+03  0.00000000000E+00 0.  1.
         -1    1    6    6    0  502 -0.36435075281E+02  0.24511037872E+02 -0.17103499458E+02  0.47125740121E+02  0.00000000000E+00 0.  1.
<mgrwt>
<rscale>  0 0.14362355E+04</rscale>
<asrwt>0</asrwt>
<pdfrwt beam="1">  1        2 0.19226703E+00 0.14362355E+04</pdfrwt>
<pdfrwt beam="2">  1       -2 0.63483344E-01 0.14362355E+04</pdfrwt>
<totfact> 0.39449140E+01</totfact>
</mgrwt>
</event>
<event>
12    1  0.1549527E-007  0.1400293E+04  0.7818608E-02  0.8953607E-01
         -1   -1    0    0    0  501 -0.00000000000E+00  0.00000000000E+00  0.36824204359E+03  0.36824204359E+03  0.00000000000E+00 0.  1.
          1   -1    0    0  501    0  0.00000000000E+00 -0.00000000000E+00 -0.13312034088E+04  0.13312034088E+04  0.00000000000E+00 0. -1.
         23    2    1    2    0    0  0.96373659567E+02  0.13770635392E+03 -0.72793390033E+03  0.75300278596E+03  0.94204619048E+02 0.  0.
        254    2    1    2    0    0 -0.96373659567E+02 -0.13770635392E+03 -0.23502746493E+03  0.94644266647E+03  0.90125739358E+03 0.  0.
        -24    2    4    4    0    0 -0.17733190662E+03  0.75499567359E+02 -0.52848987181E+03  0.56816621356E+03  0.79777890739E+02 0.  0.
         24    2    4    4    0    0  0.80958247052E+02 -0.21320592128E+03  0.29346240688E+03  0.37827645291E+03  0.70440669620E+02 0.  0.
         13    1    3    3    0    0  0.48900749977E+02  0.71770101410E+02 -0.18924022177E+03  0.20821645550E+03  0.00000000000E+00 0.  1.
        -13    1    3    3    0    0  0.47472909589E+02  0.65936252507E+02 -0.53869367856E+03  0.54478633046E+03  0.00000000000E+00 0. -1.
          4    1    6    6  502    0 -0.12342655819E+01 -0.93350793168E+02  0.11430025614E+03  0.14758198586E+03  0.00000000000E+00 0. -1.
          3    1    5    5  503    0 -0.14826512730E+02  0.38745863815E+02 -0.12181476624E+03  0.12868529331E+03  0.00000000000E+00 0. -1.
         -4    1    5    5    0  503 -0.16250539389E+03  0.36753703545E+02 -0.40667510558E+03  0.43948092025E+03  0.00000000000E+00 0.  1.
         -3    1    6    6    0  502  0.82192512634E+02 -0.11985512811E+03  0.17916215074E+03  0.23069446704E+03  0.00000000000E+00 0.  1.
<mgrwt>
<rscale>  0 0.14002929E+04</rscale>
<asrwt>0</asrwt>
<pdfrwt beam="1">  1        1 0.20480053E+00 0.14002929E+04</pdfrwt>
<pdfrwt beam="2">  1       -1 0.56652621E-01 0.14002929E+04</pdfrwt>
<totfact> 0.26422669E+01</totfact>
</mgrwt>
</event>
<event>
12    1  0.1549527E-007  0.1416731E+04  0.7818608E-02  0.8941796E-01
          2   -1    0    0  501    0  0.00000000000E+00  0.00000000000E+00  0.24386614662E+04  0.24386614662E+04  0.00000000000E+00 0. -1.
         -2   -1    0    0    0  501 -0.00000000000E+00 -0.00000000000E+00 -0.20576118576E+03  0.20576118576E+03  0.00000000000E+00 0.  1.
         23    2    1    2    0    0 -0.37140742138E+03 -0.16699824295E+03  0.48757247128E+03  0.64184945572E+03  0.91716537544E+02 0.  0.
        254    2    1    2    0    0  0.37140742138E+03  0.16699824295E+03  0.17453278092E+04  0.20025731963E+04  0.89347543843E+03 0.  0.
        -24    2    4    4    0    0  0.44935876210E+03  0.46856001249E+03  0.10600117844E+04  0.12456489620E+04  0.80898522369E+02 0.  0.
         24    2    4    4    0    0 -0.77951340719E+02 -0.30156176955E+03  0.68531602474E+03  0.75692423429E+03  0.79122249210E+02 0.  0.
         13    1    3    3    0    0 -0.10954048597E+03 -0.25779477022E+02  0.19149557350E+03  0.22211315623E+03  0.00000000000E+00 0. -1.
        -13    1    3    3    0    0 -0.26186693541E+03 -0.14121876592E+03  0.29607689778E+03  0.41973629949E+03  0.00000000000E+00 0.  1.
          2    1    6    6  502    0  0.61779149221E+01 -0.18749279491E+02  0.15839366275E+02  0.25309832837E+02  0.00000000000E+00 0. -1.
          1    1    5    5  503    0  0.36966682353E+01  0.16877676301E+02  0.49538027578E+02  0.52464630845E+02  0.00000000000E+00 0. -1.
         -2    1    5    5    0  503  0.44566209386E+03  0.45168233619E+03  0.10104737569E+04  0.11931843311E+04  0.00000000000E+00 0.  1.
         -1    1    6    6    0  502 -0.84129255641E+02 -0.28281249005E+03  0.66947665847E+03  0.73161440146E+03  0.00000000000E+00 0.  1.
<mgrwt>
<rscale>  0 0.14167313E+04</rscale>
<asrwt>0</asrwt>
<pdfrwt beam="1">  1        2 0.37517867E+00 0.14167313E+04</pdfrwt>
<pdfrwt beam="2">  1       -2 0.31655569E-01 0.14167313E+04</pdfrwt>
<totfact> 0.34147201E+01</totfact>
</mgrwt>
</event>
<event>
12    1  0.1549527E-007  0.1855629E+04  0.7818608E-02  0.8677263E-01
          2   -1    0    0  501    0  0.00000000000E+00  0.00000000000E+00  0.18388593254E+04  0.18388593254E+04  0.00000000000E+00 0. -1.
         -2   -1    0    0    0  501 -0.00000000000E+00 -0.00000000000E+00 -0.46813797664E+03  0.46813797664E+03  0.00000000000E+00 0.  1.
         23    2    1    2    0    0 -0.28336886465E+03 -0.64375525818E+03  0.48502204064E+03  0.85863525853E+03  0.85377874126E+02 0.  0.
        254    2    1    2    0    0  0.28336886465E+03  0.64375525818E+03  0.88569930814E+03  0.14483620435E+04  0.90474891480E+03 0.  0.
        -24    2    4    4    0    0  0.38947449358E+03 -0.72724046694E+02  0.42345713402E+03  0.58552042925E+03  0.80864458224E+02 0.  0.
         24    2    4    4    0    0 -0.10610562893E+03  0.71647930488E+03  0.46224217412E+03  0.86284161428E+03  0.78910233789E+02 0.  0.
         11    1    3    3    0    0 -0.26098960972E+03 -0.62833325112E+03  0.45710052828E+03  0.81967014329E+03  0.00000000000E+00 0. -1.
        -11    1    3    3    0    0 -0.22379254932E+02 -0.15422007062E+02  0.27921512363E+02  0.38965115241E+02  0.00000000000E+00 0.  1.
          4    1    6    6  502    0 -0.90769354010E+02  0.65843485392E+03  0.44671236870E+03  0.80082924074E+03  0.00000000000E+00 0. -1.
          1    1    5    5  503    0  0.27043511824E+02 -0.24928356950E+02  0.23403794304E+02  0.43594863228E+02  0.00000000000E+00 0. -1.
         -2    1    5    5    0  503  0.36243098176E+03 -0.47795689744E+02  0.40005333972E+03  0.54192556603E+03  0.00000000000E+00 0.  1.
         -3    1    6    6    0  502 -0.15336274917E+02  0.58044450963E+02  0.15529805419E+02  0.62012373542E+02  0.00000000000E+00 0.  1.
<mgrwt>
<rscale>  0 0.18556291E+04</rscale>
<asrwt>0</asrwt>
<pdfrwt beam="1">  1        2 0.28290143E+00 0.18556291E+04</pdfrwt>
<pdfrwt beam="2">  1       -2 0.72021228E-01 0.18556291E+04</pdfrwt>
<totfact> 0.13475759E+01</totfact>
</mgrwt>
</event>
<event>
12    1  0.1549527E-007  0.1438187E+04  0.7818608E-02  0.8926632E-01
          2   -1    0    0  501    0  0.00000000000E+00  0.00000000000E+00  0.42177431558E+03  0.42177431558E+03  0.00000000000E+00 0. -1.
         -2   -1    0    0    0  501 -0.00000000000E+00 -0.00000000000E+00 -0.12259996705E+04  0.12259996705E+04  0.00000000000E+00 0.  1.
         23    2    1    2    0    0  0.95399536349E+02  0.40309233911E+03 -0.10252869064E+03  0.43666718909E+03  0.92636905361E+02 0.  0.
        254    2    1    2    0    0 -0.95399536349E+02 -0.40309233911E+03 -0.70169666427E+03  0.12111067970E+04  0.89600053552E+03 0.  0.
        -24    2    4    4    0    0 -0.24560155672E+03 -0.55370684713E+03 -0.76112894129E+03  0.97628879949E+03  0.83133371799E+02 0.  0.
         24    2    4    4    0    0  0.15020202037E+03  0.15061450802E+03  0.59432277023E+02  0.23481799749E+03  0.79761641436E+02 0.  0.
         13    1    3    3    0    0  0.44071484407E+02  0.23931554589E+03 -0.14484697609E+02  0.24377045085E+03  0.00000000000E+00 0. -1.
        -13    1    3    3    0    0  0.51328051942E+02  0.16377679323E+03 -0.88043993032E+02  0.19289673824E+03  0.00000000000E+00 0.  1.
          4    1    6    6  502    0  0.25696228737E+01  0.42552152966E+02  0.22383189633E+02  0.48148684945E+02  0.00000000000E+00 0. -1.
          1    1    5    5  503    0 -0.39518147356E+02 -0.74948554783E+02 -0.65746971644E+02  0.10724567178E+03  0.00000000000E+00 0. -1.
         -2    1    5    5    0  503 -0.20608340936E+03 -0.47875829235E+03 -0.69538196965E+03  0.86904312771E+03  0.00000000000E+00 0.  1.
         -3    1    6    6    0  502  0.14763239750E+03  0.10806235505E+03  0.37049087390E+02  0.18666931255E+03  0.00000000000E+00 0.  1.
<mgrwt>
<rscale>  0 0.14381866E+04</rscale>
<asrwt>0</asrwt>
<pdfrwt beam="1">  1        2 0.64888357E-01 0.14381866E+04</pdfrwt>
<pdfrwt beam="2">  1       -2 0.18861533E+00 0.14381866E+04</pdfrwt>
<totfact> 0.11497231E+01</totfact>
</mgrwt>
</event>
<event>
12    1  0.1549527E-007  0.1861003E+04  0.7818608E-02  0.8674515E-01
         -1   -1    0    0    0  501 -0.00000000000E+00  0.00000000000E+00  0.69838546730E+03  0.69838546730E+03  0.00000000000E+00 0.  1.
          1   -1    0    0  501    0  0.00000000000E+00 -0.00000000000E+00 -0.12397637758E+04  0.12397637758E+04  0.00000000000E+00 0. -1.
         23    2    1    2    0    0  0.32691518415E+03  0.63021166360E+03 -0.20728622981E+03  0.74517540880E+03  0.90986428924E+02 0.  0.
        254    2    1    2    0    0 -0.32691518415E+03 -0.63021166360E+03 -0.33409207869E+03  0.11929738343E+04  0.89862604777E+03 0.  0.
        -24    2    4    4    0    0 -0.35326304306E+03 -0.37880491103E+01  0.15510036538E+03  0.39373026194E+03  0.78474638682E+02 0.  0.
         24    2    4    4    0    0  0.26347858914E+02 -0.62642361449E+03 -0.48919244407E+03  0.79924357236E+03  0.79876693537E+02 0.  0.
         13    1    3    3    0    0  0.52629058937E+02  0.46319187470E+02 -0.11764294986E+02  0.71089265076E+02  0.00000000000E+00 0. -1.
        -13    1    3    3    0    0  0.27428612521E+03  0.58389247613E+03 -0.19552193483E+03  0.67408614373E+03  0.00000000000E+00 0.  1.
          2    1    6    6  502    0  0.18356840712E+02 -0.58081391367E+03 -0.42428996292E+03  0.71951632959E+03  0.00000000000E+00 0. -1.
          1    1    5    5  503    0 -0.16033701291E+03  0.51657200427E+01  0.11255056134E+03  0.19596497450E+03  0.00000000000E+00 0. -1.
         -2    1    5    5    0  503 -0.19292603015E+03 -0.89537691529E+01  0.42549804036E+02  0.19776528743E+03  0.00000000000E+00 0.  1.
         -1    1    6    6    0  502  0.79910182021E+01 -0.45609700824E+02 -0.64902481154E+02  0.79727242779E+02  0.00000000000E+00 0.  1.
<mgrwt>
<rscale>  0 0.18610030E+04</rscale>
<asrwt>0</asrwt>
<pdfrwt beam="1">  1        1 0.19073289E+00 0.18610030E+04</pdfrwt>
<pdfrwt beam="2">  1       -1 0.10744392E+00 0.18610030E+04</pdfrwt>
<totfact> 0.75703449E+00</totfact>
</mgrwt>
</event>
<event>
12    1  0.1549527E-007  0.1273239E+04  0.7818608E-02  0.9051060E-01
         -2   -1    0    0    0  501 -0.00000000000E+00  0.00000000000E+00  0.48013830374E+03  0.48013830374E+03  0.00000000000E+00 0.  1.
          2   -1    0    0  501    0  0.00000000000E+00 -0.00000000000E+00 -0.84409902105E+03  0.84409902105E+03  0.00000000000E+00 0. -1.
         23    2    1    2    0    0 -0.25024765499E+03 -0.16635363412E+03 -0.32898265709E+02  0.31596140089E+03  0.91934164234E+02 0.  0.
        254    2    1    2    0    0  0.25024765499E+03  0.16635363412E+03 -0.33106245161E+03  0.10082759239E+04  0.90372593823E+03 0.  0.
        -24    2    4    4    0    0 -0.12585929479E+03  0.54314631378E+02  0.25327967758E+03  0.29980588647E+03  0.83320665029E+02 0.  0.
         24    2    4    4    0    0  0.37610694978E+03  0.11203900275E+03 -0.58434212919E+03  0.70847003743E+03  0.80404565701E+02 0.  0.
         13    1    3    3    0    0 -0.14947209808E+03 -0.97083708982E+02  0.26189971981E+02  0.18014735437E+03  0.00000000000E+00 0. -1.
        -13    1    3    3    0    0 -0.10077555691E+03 -0.69269925142E+02 -0.59088237690E+02  0.13581404652E+03  0.00000000000E+00 0.  1.
          2    1    6    6  502    0  0.39963932572E+02 -0.38827041639E+01 -0.98866391627E+02  0.10670873765E+03  0.00000000000E+00 0. -1.
          3    1    5    5  503    0 -0.15563202607E+02  0.34753243710E+02  0.11896550436E+03  0.12491113822E+03  0.00000000000E+00 0. -1.
         -4    1    5    5    0  503 -0.11029609218E+03  0.19561387669E+02  0.13431417322E+03  0.17489474825E+03  0.00000000000E+00 0.  1.
         -1    1    6    6    0  502  0.33614301720E+03  0.11592170691E+03 -0.48547573756E+03  0.60176129977E+03  0.00000000000E+00 0.  1.
<mgrwt>
<rscale>  0 0.12732388E+04</rscale>
<asrwt>0</asrwt>
<pdfrwt beam="1">  1        2 0.12986139E+00 0.12732388E+04</pdfrwt>
<pdfrwt beam="2">  1       -2 0.73867431E-01 0.12732388E+04</pdfrwt>
<totfact> 0.51986014E+01</totfact>
</mgrwt>
</event>
<event>
12    1  0.1549527E-007  0.2049412E+04  0.7818608E-02  0.8583861E-01
          1   -1    0    0  501    0  0.00000000000E+00  0.00000000000E+00  0.18106259608E+04  0.18106259608E+04  0.00000000000E+00 0. -1.
         -1   -1    0    0    0  501 -0.00000000000E+00 -0.00000000000E+00 -0.57992245673E+03  0.57992245673E+03  0.00000000000E+00 0.  1.
         23    2    1    2    0    0  0.73547190164E+02  0.21971853549E+03  0.14186144957E+04  0.14403416820E+04  0.91824013310E+02 0.  0.
        254    2    1    2    0    0 -0.73547190164E+02 -0.21971853549E+03 -0.18791099163E+03  0.95020673555E+03  0.90216233322E+03 0.  0.
        -24    2    4    4    0    0 -0.24715869152E+03  0.34624556316E+02  0.28086627102E+03  0.38369474388E+03  0.77778631959E+02 0.  0.
         24    2    4    4    0    0  0.17361150135E+03 -0.25434309180E+03 -0.46877726266E+03  0.56651199167E+03  0.79701649749E+02 0.  0.
         11    1    3    3    0    0 -0.10378668784E+02  0.54751899304E+01  0.22330718116E+02  0.25226086539E+02  0.00000000000E+00 0.  1.
        -11    1    3    3    0    0  0.83925858948E+02  0.21424334556E+03  0.13962837776E+04  0.14151155955E+04  0.00000000000E+00 0. -1.
          2    1    6    6  502    0  0.15632770519E+03 -0.25552838680E+03 -0.45296450841E+03  0.54305612394E+03  0.00000000000E+00 0. -1.
          1    1    5    5  503    0 -0.60503272452E+02  0.32855742907E+02  0.11474537855E+03  0.13381572298E+03  0.00000000000E+00 0. -1.
         -2    1    5    5    0  503 -0.18665541906E+03  0.17688134085E+01  0.16612089248E+03  0.24987902090E+03  0.00000000000E+00 0.  1.
         -1    1    6    6    0  502  0.17283796165E+02  0.11852949966E+01 -0.15812754245E+02  0.23455867729E+02  0.00000000000E+00 0.  1.
<mgrwt>
<rscale>  0 0.20494123E+04</rscale>
<asrwt>0</asrwt>
<pdfrwt beam="1">  1        1 0.27855784E+00 0.20494123E+04</pdfrwt>
<pdfrwt beam="2">  1       -1 0.89218840E-01 0.20494123E+04</pdfrwt>
<totfact> 0.45570622E+00</totfact>
</mgrwt>
</event>
<event>
12    1  0.1549527E-007  0.1447111E+04  0.7818608E-02  0.8920406E-01
          2   -1    0    0  501    0  0.00000000000E+00  0.00000000000E+00  0.11027198106E+04  0.11027198106E+04  0.00000000000E+00 0. -1.
         -2   -1    0    0    0  501 -0.00000000000E+00 -0.00000000000E+00 -0.47476454140E+03  0.47476454140E+03  0.00000000000E+00 0.  1.
         23    2    1    2    0    0  0.17970101495E+03  0.34320068075E+03  0.41355236341E+03  0.57305836153E+03  0.85388327036E+02 0.  0.
        254    2    1    2    0    0 -0.17970101495E+03 -0.34320068075E+03  0.21440290583E+03  0.10044259905E+04  0.90156741418E+03 0.  0.
        -24    2    4    4    0    0  0.12067298284E+03 -0.52309212860E+03 -0.69067555334E+02  0.54707957837E+03  0.79614031925E+02 0.  0.
         24    2    4    4    0    0 -0.30037399779E+03  0.17989144785E+03  0.28347046116E+03  0.45734641212E+03  0.78897191190E+02 0.  0.
         13    1    3    3    0    0  0.12951048242E+02  0.45785164742E+01  0.82656035433E+00  0.13761383131E+02  0.00000000000E+00 0.  1.
        -13    1    3    3    0    0  0.16674996671E+03  0.33862216428E+03  0.41272580305E+03  0.55929697840E+03  0.00000000000E+00 0. -1.
          2    1    6    6  502    0 -0.24676684036E+03  0.14433772361E+03  0.26647183158E+03  0.39081260085E+03  0.00000000000E+00 0. -1.
          3    1    5    5  503    0  0.92166652815E+02 -0.47749417425E+03 -0.78135867178E+02  0.49254501527E+03  0.00000000000E+00 0. -1.
         -4    1    5    5    0  503  0.28506330020E+02 -0.45597954355E+02  0.90683118442E+01  0.54534563098E+02  0.00000000000E+00 0.  1.
         -1    1    6    6    0  502 -0.53607157432E+02  0.35553724239E+02  0.16998629575E+02  0.66533811274E+02  0.00000000000E+00 0.  1.
<mgrwt>
<rscale>  0 0.14471106E+04</rscale>
<asrwt>0</asrwt>
<pdfrwt beam="1">  1        2 0.16964920E+00 0.14471106E+04</pdfrwt>
<pdfrwt beam="2">  1       -2 0.73040699E-01 0.14471106E+04</pdfrwt>
<totfact> 0.35647943E+01</totfact>
</mgrwt>
</event>
<event>
12    1  0.1549527E-007  0.1521400E+04  0.7818608E-02  0.8870346E-01
         -2   -1    0    0    0  501 -0.00000000000E+00  0.00000000000E+00  0.15217970818E+04  0.15217970818E+04  0.00000000000E+00 0.  1.
          2   -1    0    0  501    0  0.00000000000E+00 -0.00000000000E+00 -0.38025065314E+03  0.38025065314E+03  0.00000000000E+00 0. -1.
         23    2    1    2    0    0  0.27731319983E+03  0.25752396808E+03 -0.20671360372E+02  0.38983895754E+03  0.91246384816E+02 0.  0.
        254    2    1    2    0    0 -0.27731319983E+03 -0.25752396808E+03  0.11622177890E+04  0.15122087774E+04  0.89039541350E+03 0.  0.
        -24    2    4    4    0    0 -0.22847656627E+02  0.14530011485E+03 -0.75817656067E+02  0.18327239282E+03  0.78780163796E+02 0.  0.
         24    2    4    4    0    0 -0.25446554320E+03 -0.40282408293E+03  0.12380354451E+04  0.13289363846E+04  0.79499663437E+02 0.  0.
         13    1    3    3    0    0  0.15455579167E+03  0.86915226005E+02  0.91353620265E+01  0.17755338377E+03  0.00000000000E+00 0.  1.
        -13    1    3    3    0    0  0.12275740817E+03  0.17060874207E+03 -0.29806722399E+02  0.21228557377E+03  0.00000000000E+00 0. -1.
          2    1    6    6  502    0 -0.17954482438E+03 -0.34306629601E+03  0.99583875047E+03  0.10684688317E+04  0.00000000000E+00 0. -1.
          3    1    5    5  503    0 -0.25768946467E+02  0.17352082757E+02  0.56293908112E+01  0.31572510494E+02  0.00000000000E+00 0. -1.
         -4    1    5    5    0  503  0.29212898394E+01  0.12794803210E+03 -0.81447046878E+02  0.15169988232E+03  0.00000000000E+00 0.  1.
         -1    1    6    6    0  502 -0.74920718824E+02 -0.59757786926E+02  0.24219669464E+03  0.26046755288E+03  0.00000000000E+00 0.  1.
<mgrwt>
<rscale>  0 0.15213998E+04</rscale>
<asrwt>0</asrwt>
<pdfrwt beam="1">  1        2 0.58500101E-01 0.15213998E+04</pdfrwt>
<pdfrwt beam="2">  1       -2 0.23412263E+00 0.15213998E+04</pdfrwt>
<totfact> 0.65429073E+00</totfact>
</mgrwt>
</event>
<event>
12    1  0.1549527E-007  0.1816770E+04  0.7818608E-02  0.8697432E-01
         -1   -1    0    0    0  501 -0.00000000000E+00  0.00000000000E+00  0.15112400045E+04  0.15112400045E+04  0.00000000000E+00 0.  1.
          1   -1    0    0  501    0  0.00000000000E+00 -0.00000000000E+00 -0.54601749960E+03  0.54601749960E+03  0.00000000000E+00 0. -1.
         23    2    1    2    0    0  0.48234382133E+03  0.42982307486E+03  0.59389115801E+03  0.88202983817E+03  0.88693236534E+02 0.  0.
        254    2    1    2    0    0 -0.48234382133E+03 -0.42982307486E+03  0.37133134686E+03  0.11752276659E+04  0.90877371213E+03 0.  0.
        -24    2    4    4    0    0 -0.59426117596E+03  0.34500920252E+02  0.33719061536E+03  0.68969617080E+03  0.87445058048E+02 0.  0.
         24    2    4    4    0    0  0.11191735463E+03 -0.46432399512E+03  0.34140731501E+02  0.48553149509E+03  0.80330420568E+02 0.  0.
         11    1    3    3    0    0  0.37515581056E+03  0.33877547761E+03  0.51105392216E+03  0.71880930558E+03  0.00000000000E+00 0.  1.
        -11    1    3    3    0    0  0.10718801076E+03  0.91047597252E+02  0.82837235843E+02  0.16322053259E+03  0.00000000000E+00 0. -1.
          2    1    6    6  502    0  0.43410255199E+02 -0.14679121800E+03  0.47918960666E+02  0.16040055713E+03  0.00000000000E+00 0. -1.
          3    1    5    5  503    0 -0.29863316060E+03  0.31876331342E+01  0.12154241982E+03  0.32243524223E+03  0.00000000000E+00 0. -1.
         -4    1    5    5    0  503 -0.29562801536E+03  0.31313287118E+02  0.21564819554E+03  0.36726092858E+03  0.00000000000E+00 0.  1.
         -1    1    6    6    0  502  0.68507099435E+02 -0.31753277712E+03 -0.13778229165E+02  0.32513093796E+03  0.00000000000E+00 0.  1.
<mgrwt>
<rscale>  0 0.18167702E+04</rscale>
<asrwt>0</asrwt>
<pdfrwt beam="1">  1        1 0.84002693E-01 0.18167702E+04</pdfrwt>
<pdfrwt beam="2">  1       -1 0.23249846E+00 0.18167702E+04</pdfrwt>
<totfact> 0.33550689E+00</totfact>
</mgrwt>
</event>
<event>
12    1  0.1549527E-007  0.2738707E+04  0.7818608E-02  0.8322554E-01
          1   -1    0    0  501    0  0.00000000000E+00  0.00000000000E+00  0.10709777355E+04  0.10709777355E+04  0.00000000000E+00 0. -1.
         -1   -1    0    0    0  501 -0.00000000000E+00 -0.00000000000E+00 -0.17508566895E+04  0.17508566895E+04  0.00000000000E+00 0.  1.
         23    2    1    2    0    0 -0.22735986792E+03  0.24535705560E+03 -0.15102314558E+04  0.15495227331E+04  0.91263661826E+02 0.  0.
        254    2    1    2    0    0  0.22735986792E+03 -0.24535705560E+03  0.83035250181E+03  0.12723116919E+04  0.90410130500E+03 0.  0.
        -24    2    4    4    0    0  0.48768599214E+01  0.89851998208E+02 -0.15889059914E+03  0.20179081547E+03  0.85884488528E+02 0.  0.
         24    2    4    4    0    0  0.22248300800E+03 -0.33520905381E+03  0.98924310094E+03  0.10705208764E+04  0.74493190297E+02 0.  0.
         13    1    3    3    0    0 -0.29672177404E+02  0.39681050295E+01 -0.22389010573E+03  0.22588263194E+03  0.00000000000E+00 0. -1.
        -13    1    3    3    0    0 -0.19768769051E+03  0.24138895057E+03 -0.12863413501E+04  0.13236401012E+04  0.00000000000E+00 0.  1.
          2    1    6    6  502    0  0.15280300882E+03 -0.20102584885E+03  0.69987425659E+03  0.74403234234E+03  0.00000000000E+00 0. -1.
          3    1    5    5  503    0  0.25719560241E+01  0.48525887240E+02 -0.15231825507E+03  0.15988191742E+03  0.00000000000E+00 0. -1.
         -4    1    5    5    0  503  0.23049038973E+01  0.41326110967E+02 -0.65723440718E+01  0.41908898056E+02  0.00000000000E+00 0.  1.
         -1    1    6    6    0  502  0.69679999178E+02 -0.13418320496E+03  0.28936884436E+03  0.32648853405E+03  0.00000000000E+00 0.  1.
<mgrwt>
<rscale>  0 0.27387067E+04</rscale>
<asrwt>0</asrwt>
<pdfrwt beam="1">  1        1 0.16476580E+00 0.27387067E+04</pdfrwt>
<pdfrwt beam="2">  1       -1 0.26936257E+00 0.27387067E+04</pdfrwt>
<totfact> 0.60543202E-01</totfact>
</mgrwt>
</event>
<event>
12    1  0.1549527E-007  0.1544395E+04  0.7818608E-02  0.8855456E-01
         -1   -1    0    0    0  501 -0.00000000000E+00  0.00000000000E+00  0.93480932966E+03  0.93480932966E+03  0.00000000000E+00 0.  1.
          1   -1    0    0  501    0  0.00000000000E+00 -0.00000000000E+00 -0.63787246437E+03  0.63787246437E+03  0.00000000000E+00 0. -1.
         23    2    1    2    0    0 -0.44318382811E+03  0.17995541403E+03 -0.57639653114E+02  0.48931376080E+03  0.85497195028E+02 0.  0.
        254    2    1    2    0    0  0.44318382811E+03 -0.17995541403E+03  0.35457651840E+03  0.10833680332E+04  0.90507785935E+03 0.  0.
        -24    2    4    4    0    0  0.18651560254E+03  0.29185200457E+03 -0.10599045822E+03  0.37061413982E+03  0.78455088045E+02 0.  0.
         24    2    4    4    0    0  0.25666822556E+03 -0.47180741860E+03  0.46056697662E+03  0.71275389341E+03  0.86112451796E+02 0.  0.
         11    1    3    3    0    0 -0.44146850937E+03  0.18580240355E+03 -0.60123237001E+02  0.48273365489E+03  0.00000000000E+00 0. -1.
        -11    1    3    3    0    0 -0.17153187396E+01 -0.58469895246E+01  0.24835838868E+01  0.65801059112E+01  0.00000000000E+00 0.  1.
          4    1    6    6  502    0 -0.20896160565E+01 -0.40254200434E+02  0.42288986862E+02  0.58421961262E+02  0.00000000000E+00 0. -1.
          1    1    5    5  503    0  0.38402563929E+02  0.15746428261E+02 -0.75203176077E+01  0.42181300314E+02  0.00000000000E+00 0. -1.
         -2    1    5    5    0  503  0.14811303862E+03  0.27610557630E+03 -0.98470140612E+02  0.32843283951E+03  0.00000000000E+00 0.  1.
         -3    1    6    6    0  502  0.25875784162E+03 -0.43155321816E+03  0.41827798976E+03  0.65433193215E+03  0.00000000000E+00 0.  1.
<mgrwt>
<rscale>  0 0.15443952E+04</rscale>
<asrwt>0</asrwt>
<pdfrwt beam="1">  1        1 0.98134225E-01 0.15443952E+04</pdfrwt>
<pdfrwt beam="2">  1       -1 0.14381682E+00 0.15443952E+04</pdfrwt>
<totfact> 0.11788750E+01</totfact>
</mgrwt>
</event>
<event>
12    1  0.1549527E-007  0.2064649E+04  0.7818608E-02  0.8576978E-01
          2   -1    0    0  501    0  0.00000000000E+00  0.00000000000E+00  0.16965167844E+04  0.16965167844E+04  0.00000000000E+00 0. -1.
         -2   -1    0    0    0  501 -0.00000000000E+00 -0.00000000000E+00 -0.62816574492E+03  0.62816574492E+03  0.00000000000E+00 0.  1.
         23    2    1    2    0    0  0.55204061834E+02  0.66886950574E+03  0.95812089471E+03  0.11734503620E+04  0.92499724631E+02 0.  0.
        254    2    1    2    0    0 -0.55204061834E+02 -0.66886950574E+03  0.11023014479E+03  0.11512321673E+04  0.92884385885E+03 0.  0.
        -24    2    4    4    0    0 -0.39554869257E+03 -0.67055361006E+03  0.15808024331E+03  0.79840807869E+03  0.79782107291E+02 0.  0.
         24    2    4    4    0    0  0.34034463073E+03  0.16841043185E+01 -0.47850098522E+02  0.35282408864E+03  0.79736451647E+02 0.  0.
         13    1    3    3    0    0 -0.17710697491E+02  0.49705250285E+02  0.95710578509E+02  0.10929224835E+03  0.00000000000E+00 0.  1.
        -13    1    3    3    0    0  0.72914759325E+02  0.61916425546E+03  0.86241031620E+03  0.10641581137E+04  0.00000000000E+00 0. -1.
          2    1    6    6  502    0  0.47281715669E+01  0.82797280004E+00 -0.14828352457E+02  0.15585928972E+02  0.00000000000E+00 0. -1.
          1    1    5    5  503    0 -0.14591281504E+03 -0.31693158672E+03  0.88914946295E+02  0.36005839517E+03  0.00000000000E+00 0. -1.
         -4    1    5    5    0  503 -0.24963587752E+03 -0.35362202333E+03  0.69165297012E+02  0.43834968352E+03  0.00000000000E+00 0.  1.
         -1    1    6    6    0  502  0.33561645916E+03  0.85613151850E+00 -0.33021746065E+02  0.33723815967E+03  0.00000000000E+00 0.  1.
<mgrwt>
<rscale>  0 0.20646489E+04</rscale>
<asrwt>0</asrwt>
<pdfrwt beam="1">  1        2 0.26100258E+00 0.20646489E+04</pdfrwt>
<pdfrwt beam="2">  1       -2 0.96640885E-01 0.20646489E+04</pdfrwt>
<totfact> 0.81515302E+00</totfact>
</mgrwt>
</event>
<event>
12    1  0.1549527E-007  0.1900074E+04  0.7818608E-02  0.8654820E-01
         -3   -1    0    0    0  501 -0.00000000000E+00  0.00000000000E+00  0.31900905904E+04  0.31900905904E+04  0.00000000000E+00 0.  1.
          3   -1    0    0  501    0  0.00000000000E+00 -0.00000000000E+00 -0.28292924783E+03  0.28292924783E+03  0.00000000000E+00 0. -1.
         23    2    1    2    0    0  0.70979681245E+02  0.59848947190E+03  0.36014874187E+03  0.70752663272E+03  0.87516036315E+02 0.  0.
        254    2    1    2    0    0 -0.70979681245E+02 -0.59848947190E+03  0.25470126007E+04  0.27654932055E+04  0.89300152210E+03 0.  0.
        -24    2    4    4    0    0 -0.18523784545E+03 -0.36523695815E+02  0.18423649050E+04  0.18536252912E+04  0.77273781177E+02 0.  0.
         24    2    4    4    0    0  0.11425816421E+03 -0.56196577609E+03  0.70464769570E+03  0.91186791431E+03  0.78193711454E+02 0.  0.
         11    1    3    3    0    0 -0.16665247890E+01  0.41661082154E+02  0.53107458297E+02  0.67519072845E+02  0.00000000000E+00 0.  1.
        -11    1    3    3    0    0  0.72646206034E+02  0.55682838975E+03  0.30704128358E+03  0.64000755988E+03  0.00000000000E+00 0. -1.
          4    1    6    6  502    0  0.38059723984E+02 -0.86240573073E+02  0.84761248911E+02  0.12676927211E+03  0.00000000000E+00 0. -1.
          1    1    5    5  503    0 -0.13291984578E+02  0.10016460756E+02  0.39338068650E+03  0.39373261340E+03  0.00000000000E+00 0. -1.
         -2    1    5    5    0  503 -0.17194586087E+03 -0.46540156571E+02  0.14489842185E+04  0.14598926778E+04  0.00000000000E+00 0.  1.
         -3    1    6    6    0  502  0.76198440223E+02 -0.47572520302E+03  0.61988644678E+03  0.78509864220E+03  0.00000000000E+00 0.  1.
<mgrwt>
<rscale>  0 0.19000736E+04</rscale>
<asrwt>0</asrwt>
<pdfrwt beam="1">  1        3 0.43527579E-01 0.19000736E+04</pdfrwt>
<pdfrwt beam="2">  1       -3 0.49078314E+00 0.19000736E+04</pdfrwt>
<totfact> 0.43990108E-02</totfact>
</mgrwt>
</event>
<event>
12    1  0.1549527E-007  0.1547996E+04  0.7818608E-02  0.8853149E-01
         -2   -1    0    0    0  501 -0.00000000000E+00  0.00000000000E+00  0.18878639037E+03  0.18878639037E+03  0.00000000000E+00 0.  1.
          2   -1    0    0  501    0  0.00000000000E+00 -0.00000000000E+00 -0.31732829899E+04  0.31732829899E+04  0.00000000000E+00 0. -1.
         23    2    1    2    0    0 -0.49051794724E+03  0.12051670809E+03 -0.85023727784E+03  0.99331209190E+03  0.92915821022E+02 0.  0.
        254    2    1    2    0    0  0.49051794724E+03 -0.12051670809E+03 -0.21342593217E+04  0.23687572884E+04  0.89488329154E+03 0.  0.
        -24    2    4    4    0    0  0.18875963923E+03  0.94399916510E+02 -0.19209131543E+04  0.19341449934E+04  0.80423649185E+02 0.  0.
         24    2    4    4    0    0  0.30175830801E+03 -0.21491662460E+03 -0.21334616742E+03  0.43461229503E+03  0.78256168165E+02 0.  0.
         11    1    3    3    0    0 -0.64893579945E+02  0.10960162615E+02 -0.18167559327E+03  0.19322868077E+03  0.00000000000E+00 0. -1.
        -11    1    3    3    0    0 -0.42562436729E+03  0.10955654547E+03 -0.66856168457E+03  0.80008341113E+03  0.00000000000E+00 0.  1.
          4    1    6    6  502    0  0.12811514481E+03 -0.78074067232E+02 -0.44696468922E+02  0.15654655741E+03  0.00000000000E+00 0. -1.
          1    1    5    5  503    0  0.10021338377E+03  0.57720925269E+02 -0.13773759609E+04  0.13822224731E+04  0.00000000000E+00 0. -1.
         -2    1    5    5    0  503  0.88546255461E+02  0.36678991241E+02 -0.54353719339E+03  0.55192252024E+03  0.00000000000E+00 0.  1.
         -3    1    6    6    0  502  0.17364316321E+03 -0.13684255736E+03 -0.16864969850E+03  0.27806573762E+03  0.00000000000E+00 0.  1.
<mgrwt>
<rscale>  0 0.15479957E+04</rscale>
<asrwt>0</asrwt>
<pdfrwt beam="1">  1        2 0.48819742E+00 0.15479957E+04</pdfrwt>
<pdfrwt beam="2">  1       -2 0.29044058E-01 0.15479957E+04</pdfrwt>
<totfact> 0.14276011E+01</totfact>
</mgrwt>
</event>
<event>
12    1  0.1549527E-007  0.1557668E+04  0.7818608E-02  0.8846985E-01
         -2   -1    0    0    0  501 -0.00000000000E+00  0.00000000000E+00  0.40895974054E+03  0.40895974054E+03  0.00000000000E+00 0. -1.
          2   -1    0    0  501    0  0.00000000000E+00 -0.00000000000E+00 -0.14832317421E+04  0.14832317421E+04  0.00000000000E+00 0.  1.
         23    2    1    2    0    0 -0.47985527855E+02 -0.43355084062E+03 -0.30622950847E+02  0.44678351210E+03  0.91699505340E+02 0.  0.
        254    2    1    2    0    0  0.47985527855E+02  0.43355084062E+03 -0.10436490507E+04  0.14454079706E+04  0.89985105323E+03 0.  0.
        -24    2    4    4    0    0 -0.34128451032E+03  0.46704136155E+03 -0.48616397100E+03  0.75947430126E+03  0.76439892680E+02 0.  0.
         24    2    4    4    0    0  0.38927003818E+03 -0.33490520934E+02 -0.55748507974E+03  0.68593366931E+03  0.84039317863E+02 0.  0.
         13    1    3    3    0    0 -0.74466132757E+02 -0.35805080686E+03 -0.23912955556E+02  0.36649340330E+03  0.00000000000E+00 0. -1.
        -13    1    3    3    0    0  0.26480604903E+02 -0.75500033757E+02 -0.67099952915E+01  0.80290108794E+02  0.00000000000E+00 0.  1.
          4    1    6    6  502    0  0.59021215739E+02  0.24978127769E+00 -0.40638701204E+02  0.71659405060E+02  0.00000000000E+00 0. -1.
          1    1    5    5  503    0 -0.20155608224E+03  0.21432341123E+03 -0.26096097593E+03  0.39326836873E+03  0.00000000000E+00 0. -1.
         -2    1    5    5    0  503 -0.13972842808E+03  0.25271795033E+03 -0.22520299506E+03  0.36620593253E+03  0.00000000000E+00 0.  1.
         -3    1    6    6    0  502  0.33024882244E+03 -0.33740302212E+02 -0.51684637854E+03  0.61427426425E+03  0.00000000000E+00 0.  1.
<mgrwt>
<rscale>  0 0.15576676E+04</rscale>
<asrwt>0</asrwt>
<pdfrwt beam="1">  1        2 0.22818950E+00 0.15576676E+04</pdfrwt>
<pdfrwt beam="2">  1       -2 0.62916883E-01 0.15576676E+04</pdfrwt>
<totfact> 0.29217728E+01</totfact>
</mgrwt>
</event>
<event>
12    1  0.1549527E-007  0.2647110E+04  0.7818608E-02  0.8352373E-01
          1   -1    0    0  501    0  0.00000000000E+00  0.00000000000E+00  0.13160987701E+04  0.13160987701E+04  0.00000000000E+00 0. -1.
         -1   -1    0    0    0  501 -0.00000000000E+00 -0.00000000000E+00 -0.13310533438E+04  0.13310533438E+04  0.00000000000E+00 0.  1.
         23    2    1    2    0    0  0.10732842864E+04  0.90131707684E+01  0.44313014281E+03  0.11647229940E+04  0.90525866339E+02 0.  0.
        254    2    1    2    0    0 -0.10732842864E+04 -0.90131707684E+01 -0.45808471647E+03  0.14824291199E+04  0.91418493282E+03 0.  0.
        -24    2    4    4    0    0  0.15906867967E+02  0.26270374429E+03 -0.23635637487E+02  0.27609528362E+03  0.80022975223E+02 0.  0.
         24    2    4    4    0    0 -0.10891911544E+04 -0.27171691506E+03 -0.43444907899E+03  0.12063338363E+04  0.79547907849E+02 0.  0.
         11    1    3    3    0    0  0.46821820236E+03  0.46880430678E+02  0.17949845397E+03  0.50363255929E+03  0.00000000000E+00 0.  1.
        -11    1    3    3    0    0  0.60506608409E+03 -0.37867259909E+02  0.26363168884E+03  0.66109043470E+03  0.00000000000E+00 0. -1.
          4    1    6    6  502    0 -0.17279406898E+03 -0.15495680551E+02 -0.56116543554E+02  0.18233752452E+03  0.00000000000E+00 0. -1.
          1    1    5    5  503    0  0.19992246704E+02  0.75387639839E+02 -0.40672619513E+02  0.87961628832E+02  0.00000000000E+00 0. -1.
         -2    1    5    5    0  503 -0.40853787376E+01  0.18731610445E+03  0.17036982026E+02  0.18813365479E+03  0.00000000000E+00 0.  1.
         -3    1    6    6    0  502 -0.91639708544E+03 -0.25622123451E+03 -0.37833253543E+03  0.10239963118E+04  0.00000000000E+00 0.  1.
<mgrwt>
<rscale>  0 0.26471099E+04</rscale>
<asrwt>0</asrwt>
<pdfrwt beam="1">  1        1 0.20247673E+00 0.26471099E+04</pdfrwt>
<pdfrwt beam="2">  1       -1 0.20477744E+00 0.26471099E+04</pdfrwt>
<totfact> 0.10782710E+00</totfact>
</mgrwt>
</event>
<event>
12    1  0.1549527E-007  0.1507607E+04  0.7818608E-02  0.8879410E-01
         -1   -1    0    0    0  501 -0.00000000000E+00  0.00000000000E+00  0.31270997006E+03  0.31270997006E+03  0.00000000000E+00 0.  1.
          1   -1    0    0  501    0  0.00000000000E+00 -0.00000000000E+00 -0.18170818043E+04  0.18170818043E+04  0.00000000000E+00 0. -1.
         23    2    1    2    0    0  0.26169011373E+02  0.11688745947E+03 -0.11398707735E+04  0.11496546763E+04  0.89738504900E+02 0.  0.
        254    2    1    2    0    0 -0.26169011373E+02 -0.11688745947E+03 -0.36450106083E+03  0.98013709808E+03  0.90192029157E+03 0.  0.
        -24    2    4    4    0    0  0.23021034600E+03  0.62645356221E+02  0.20532735888E+03  0.32506844922E+03  0.81172213912E+02 0.  0.
         24    2    4    4    0    0 -0.25637935737E+03 -0.17953281569E+03 -0.56982841971E+03  0.65506864886E+03  0.80300062356E+02 0.  0.
         13    1    3    3    0    0 -0.46268241666E+01 -0.32895657155E+01 -0.38027812901E+01  0.68330000736E+01  0.00000000000E+00 0.  1.
        -13    1    3    3    0    0  0.30795835539E+02  0.12017702519E+03 -0.11360679922E+04  0.11428216762E+04  0.00000000000E+00 0. -1.
          4    1    6    6  502    0 -0.10289834412E+03 -0.27313213576E+02 -0.17120706938E+03  0.20160838639E+03  0.00000000000E+00 0. -1.
          3    1    5    5  503    0  0.29798439858E+02 -0.10473067414E+02  0.57233400609E+02  0.65370439071E+02  0.00000000000E+00 0. -1.
         -4    1    5    5    0  503  0.20041190614E+03  0.73118423635E+02  0.14809395827E+03  0.25969801015E+03  0.00000000000E+00 0.  1.
         -3    1    6    6    0  502 -0.15348101325E+03 -0.15221960212E+03 -0.39862135033E+03  0.45346026247E+03  0.00000000000E+00 0.  1.
<mgrwt>
<rscale>  0 0.15076068E+04</rscale>
<asrwt>0</asrwt>
<pdfrwt beam="1">  1        1 0.27955105E+00 0.15076068E+04</pdfrwt>
<pdfrwt beam="2">  1       -1 0.48109226E-01 0.15076068E+04</pdfrwt>
<totfact> 0.16565120E+01</totfact>
</mgrwt>
</event>
<event>
12    1  0.1549527E-007  0.1712922E+04  0.7818608E-02  0.8754029E-01
         -1   -1    0    0    0  501 -0.00000000000E+00  0.00000000000E+00  0.16678671684E+04  0.16678671684E+04  0.00000000000E+00 0.  1.
          1   -1    0    0  501    0  0.00000000000E+00 -0.00000000000E+00 -0.43979845558E+03  0.43979845558E+03  0.00000000000E+00 0. -1.
         23    2    1    2    0    0  0.52118945512E+03  0.97691115500E+02  0.47185627943E+02  0.54017824281E+03  0.91564449160E+02 0.  0.
        254    2    1    2    0    0 -0.52118945512E+03 -0.97691115500E+02  0.11808830849E+04  0.15674873812E+04  0.88393994583E+03 0.  0.
        -24    2    4    4    0    0  0.12728936983E+03 -0.28286128440E+03  0.57147341259E+03  0.65502570048E+03  0.79143648545E+02 0.  0.
         24    2    4    4    0    0 -0.64847882495E+03  0.18517016890E+03  0.60940967230E+03  0.91246168071E+03  0.79958690654E+02 0.  0.
         11    1    3    3    0    0  0.17733790180E+03  0.16429552948E+02 -0.24145051340E+02  0.17972658436E+03  0.00000000000E+00 0. -1.
        -11    1    3    3    0    0  0.34385155332E+03  0.81261562552E+02  0.71330679283E+02  0.36045165845E+03  0.00000000000E+00 0.  1.
          2    1    6    6  502    0 -0.93178234108E+02  0.52795216256E+02  0.77467520478E+02  0.13217690759E+03  0.00000000000E+00 0. -1.
          3    1    5    5  503    0 -0.67377443486E+01 -0.38119045478E+01  0.42634982277E+01  0.88377164656E+01  0.00000000000E+00 0. -1.
         -4    1    5    5    0  503  0.13402711418E+03 -0.27904937985E+03  0.56720991436E+03  0.64618798401E+03  0.00000000000E+00 0.  1.
         -1    1    6    6    0  502 -0.55530059084E+03  0.13237495264E+03  0.53194215183E+03  0.78028477312E+03  0.00000000000E+00 0.  1.
<mgrwt>
<rscale>  0 0.17129220E+04</rscale>
<asrwt>0</asrwt>
<pdfrwt beam="1">  1        1 0.67661302E-01 0.17129220E+04</pdfrwt>
<pdfrwt beam="2">  1       -1 0.25659495E+00 0.17129220E+04</pdfrwt>
<totfact> 0.31713964E+00</totfact>
</mgrwt>
</event>
<event>
12    1  0.1549527E-007  0.1601481E+04  0.7818608E-02  0.8819639E-01
         -1   -1    0    0    0  501 -0.00000000000E+00  0.00000000000E+00  0.86342940050E+03  0.86342940050E+03  0.00000000000E+00 0.  1.
          1   -1    0    0  501    0  0.00000000000E+00 -0.00000000000E+00 -0.74260310360E+03  0.74260310360E+03  0.00000000000E+00 0. -1.
         23    2    1    2    0    0  0.48262363091E+03 -0.17645063092E+03  0.22188515894E+03  0.56714143912E+03  0.91411125907E+02 0.  0.
        254    2    1    2    0    0 -0.48262363091E+03  0.17645063092E+03 -0.10105886204E+03  0.10388910650E+04  0.89722982398E+03 0.  0.
        -24    2    4    4    0    0 -0.13116197352E+02  0.25349011258E+03 -0.39324334683E+03  0.47484906254E+03  0.80075155710E+02 0.  0.
         24    2    4    4    0    0 -0.46950743356E+03 -0.77039481658E+02  0.29218448479E+03  0.56404200244E+03  0.79995596505E+02 0.  0.
         13    1    3    3    0    0 -0.41156668321E+01 -0.32498505634E+01  0.30701449330E+01  0.60766793619E+01  0.00000000000E+00 0. -1.
        -13    1    3    3    0    0  0.48673929775E+03 -0.17320078036E+03  0.21881501400E+03  0.56106475976E+03  0.00000000000E+00 0.  1.
          4    1    6    6  502    0 -0.11210080160E+03  0.11521936417E+02  0.88172996687E+02  0.14308676418E+03  0.00000000000E+00 0. -1.
          1    1    5    5  503    0 -0.23251549950E+02  0.38723474574E+02 -0.35424788681E+02  0.57402593244E+02  0.00000000000E+00 0. -1.
         -2    1    5    5    0  503  0.10135352598E+02  0.21476663801E+03 -0.35781855815E+03  0.41744646930E+03  0.00000000000E+00 0.  1.
         -3    1    6    6    0  502 -0.35740663196E+03 -0.88561418075E+02  0.20401148811E+03  0.42095523826E+03  0.00000000000E+00 0.  1.
<mgrwt>
<rscale>  0 0.16014810E+04</rscale>
<asrwt>0</asrwt>
<pdfrwt beam="1">  1        1 0.11424663E+00 0.16014810E+04</pdfrwt>
<pdfrwt beam="2">  1       -1 0.13283529E+00 0.16014810E+04</pdfrwt>
<totfact> 0.11459749E+01</totfact>
</mgrwt>
</event>
<event>
12    1  0.1549527E-007  0.1757613E+04  0.7818608E-02  0.8729171E-01
          2   -1    0    0  501    0  0.00000000000E+00  0.00000000000E+00  0.12286756781E+04  0.12286756781E+04  0.00000000000E+00 0. -1.
         -2   -1    0    0    0  501 -0.00000000000E+00 -0.00000000000E+00 -0.62856368075E+03  0.62856368075E+03  0.00000000000E+00 0.  1.
         23    2    1    2    0    0 -0.29692001644E+03  0.11220469178E+03 -0.37560814222E+03  0.50032182236E+03  0.92136097237E+02 0.  0.
        254    2    1    2    0    0  0.29692001644E+03 -0.11220469178E+03  0.97572013952E+03  0.13569175364E+04  0.88794370375E+03 0.  0.
        -24    2    4    4    0    0  0.17386468444E+03  0.13421167674E+03 -0.93912358005E+02  0.24951354491E+03  0.72081727486E+02 0.  0.
         24    2    4    4    0    0  0.12305533199E+03 -0.24641636852E+03  0.10696324975E+04  0.11074039915E+04  0.79788967290E+02 0.  0.
         13    1    3    3    0    0 -0.25744251827E+03  0.70789890404E+02 -0.26716417258E+03  0.37770961585E+03  0.00000000000E+00 0.  1.
        -13    1    3    3    0    0 -0.39477498165E+02  0.41414801379E+02 -0.10844396964E+03  0.12261220651E+03  0.00000000000E+00 0. -1.
          2    1    6    6  502    0 -0.72628922668E+01 -0.49896869939E+02  0.16398280408E+03  0.17155992326E+03  0.00000000000E+00 0. -1.
          3    1    5    5  503    0 -0.47228235443E+01  0.11140296925E+02  0.21760135358E+01  0.12294157666E+02  0.00000000000E+00 0. -1.
         -4    1    5    5    0  503  0.17858750799E+03  0.12307137982E+03 -0.96088371541E+02  0.23721938724E+03  0.00000000000E+00 0.  1.
         -1    1    6    6    0  502  0.13031822426E+03 -0.19651949858E+03  0.90564969344E+03  0.93584406828E+03  0.00000000000E+00 0.  1.
<mgrwt>
<rscale>  0 0.17576130E+04</rscale>
<asrwt>0</asrwt>
<pdfrwt beam="1">  1        2 0.18902703E+00 0.17576130E+04</pdfrwt>
<pdfrwt beam="2">  1       -2 0.96702105E-01 0.17576130E+04</pdfrwt>
<totfact> 0.15423360E+01</totfact>
</mgrwt>
</event>
<event>
12    1  0.1549527E-007  0.3752582E+04  0.7818608E-02  0.8056408E-01
         -2   -1    0    0    0  501 -0.00000000000E+00  0.00000000000E+00  0.25138837411E+04  0.25138837411E+04  0.00000000000E+00 0.  1.
          2   -1    0    0  501    0  0.00000000000E+00 -0.00000000000E+00 -0.14004097635E+04  0.14004097635E+04  0.00000000000E+00 0. -1.
         23    2    1    2    0    0  0.15698362772E+04 -0.39739929867E+03  0.12647565616E+04  0.20568152419E+04  0.92561543873E+02 0.  0.
        254    2    1    2    0    0 -0.15698362772E+04  0.39739929867E+03 -0.15128258394E+03  0.18574782626E+04  0.89723293300E+03 0.  0.
        -24    2    4    4    0    0 -0.52433595637E+03  0.14933580712E+02  0.34835472409E+03  0.63469647837E+03  0.79607781517E+02 0.  0.
         24    2    4    4    0    0 -0.10455003209E+04  0.38246571795E+03 -0.49963730803E+03  0.12227817843E+04  0.78783919907E+02 0.  0.
         13    1    3    3    0    0  0.76077874338E+02 -0.24145865807E+02  0.39236141198E+02  0.88940095432E+02  0.00000000000E+00 0. -1.
        -13    1    3    3    0    0  0.14937584029E+04 -0.37325343286E+03  0.12255204204E+04  0.19678751465E+04  0.00000000000E+00 0.  1.
          2    1    6    6  502    0 -0.41624702670E+03  0.12211498088E+03 -0.22297812252E+03  0.48774265644E+03  0.00000000000E+00 0. -1.
          1    1    5    5  503    0 -0.43051555076E+02 -0.82017723416E+01  0.55960149891E+02  0.71079137866E+02  0.00000000000E+00 0. -1.
         -2    1    5    5    0  503 -0.48128440130E+03  0.23135353053E+02  0.29239457420E+03  0.56361734050E+03  0.00000000000E+00 0.  1.
         -3    1    6    6    0  502 -0.62925329416E+03  0.26035073708E+03 -0.27665918551E+03  0.73503912783E+03  0.00000000000E+00 0.  1.
<mgrwt>
<rscale>  0 0.37525817E+04</rscale>
<asrwt>0</asrwt>
<pdfrwt beam="1">  1        2 0.21544766E+00 0.37525817E+04</pdfrwt>
<pdfrwt beam="2">  1       -2 0.38675134E+00 0.37525817E+04</pdfrwt>
<totfact> 0.10533706E-01</totfact>
</mgrwt>
</event>
<event>
12    1  0.1549527E-007  0.2880204E+04  0.7818608E-02  0.8278792E-01
          1   -1    0    0  501    0  0.00000000000E+00  0.00000000000E+00  0.13246399862E+04  0.13246399862E+04  0.00000000000E+00 0. -1.
         -1   -1    0    0    0  501 -0.00000000000E+00 -0.00000000000E+00 -0.15656283778E+04  0.15656283778E+04  0.00000000000E+00 0.  1.
         23    2    1    2    0    0 -0.13907348634E+02 -0.41950541193E+02  0.11865228504E+04  0.11907354790E+04  0.89784431744E+02 0.  0.
        254    2    1    2    0    0  0.13907348634E+02  0.41950541193E+02 -0.14275112419E+04  0.16995328851E+04  0.92123309715E+03 0.  0.
        -24    2    4    4    0    0 -0.33046499503E+02 -0.19355174210E+03  0.35139650700E+02  0.21525564354E+03  0.80906421425E+02 0.  0.
         24    2    4    4    0    0  0.46953848137E+02  0.23550228329E+03 -0.14626508926E+04  0.14842772415E+04  0.77880078662E+02 0.  0.
         13    1    3    3    0    0  0.87557113997E+01  0.18689988021E+02  0.91420148609E+02  0.93720977940E+02  0.00000000000E+00 0.  1.
        -13    1    3    3    0    0 -0.22663060034E+02 -0.60640529214E+02  0.10951027018E+04  0.10970145010E+04  0.00000000000E+00 0. -1.
          4    1    6    6  502    0  0.51228125588E+02  0.76360643303E+02 -0.60999441594E+03  0.61688609660E+03  0.00000000000E+00 0. -1.
          1    1    5    5  503    0 -0.26939944817E+02 -0.17904720829E+03  0.55633018743E+02  0.18941672629E+03  0.00000000000E+00 0. -1.
         -2    1    5    5    0  503 -0.61065546861E+01 -0.14504533801E+02 -0.20493368042E+02  0.25838917249E+02  0.00000000000E+00 0.  1.
         -3    1    6    6    0  502 -0.42742774501E+01  0.15914163999E+03 -0.85265647670E+03  0.86739114492E+03  0.00000000000E+00 0.  1.
<mgrwt>
<rscale>  0 0.28802041E+04</rscale>
<asrwt>0</asrwt>
<pdfrwt beam="1">  1        1 0.20379077E+00 0.28802041E+04</pdfrwt>
<pdfrwt beam="2">  1       -1 0.24086590E+00 0.28802041E+04</pdfrwt>
<totfact> 0.59763446E-01</totfact>
</mgrwt>
</event>
<event>
12    1  0.1549527E-007  0.2315264E+04  0.7818608E-02  0.8471927E-01
          1   -1    0    0  501    0  0.00000000000E+00  0.00000000000E+00  0.25270255530E+04  0.25270255530E+04  0.00000000000E+00 0. -1.
         -1   -1    0    0    0  501 -0.00000000000E+00 -0.00000000000E+00 -0.53031177439E+03  0.53031177439E+03  0.00000000000E+00 0.  1.
         23    2    1    2    0    0 -0.26862228173E+02 -0.79717331747E+03  0.16066177341E+04  0.17959513149E+04  0.89519295411E+02 0.  0.
        254    2    1    2    0    0  0.26862228173E+02  0.79717331747E+03  0.39009604446E+03  0.12613860125E+04  0.89594244868E+03 0.  0.
        -24    2    4    4    0    0 -0.24196164082E+03 -0.22839912693E+02 -0.89000479736E+02  0.27114378304E+03  0.80813170000E+02 0.  0.
         24    2    4    4    0    0  0.26882386900E+03  0.82001323016E+03  0.47909652420E+03  0.99024222951E+03  0.79738468835E+02 0.  0.
         13    1    3    3    0    0 -0.58462459838E+02 -0.58955535304E+03  0.12025892632E+04  0.13406022190E+04  0.00000000000E+00 0. -1.
        -13    1    3    3    0    0  0.31600231665E+02 -0.20761796443E+03  0.40402847090E+03  0.45534909586E+03  0.00000000000E+00 0.  1.
          4    1    6    6  502    0  0.13142711496E+03  0.52199212202E+03  0.28788986079E+03  0.61043380799E+03  0.00000000000E+00 0. -1.
          3    1    5    5  503    0 -0.21874132553E+03 -0.20715016509E+02 -0.10433724377E+03  0.24323474226E+03  0.00000000000E+00 0. -1.
         -4    1    5    5    0  503 -0.23220315291E+02 -0.21248961837E+01  0.15336764037E+02  0.27909040778E+02  0.00000000000E+00 0.  1.
         -3    1    6    6    0  502  0.13739675404E+03  0.29802110815E+03  0.19120666341E+03  0.37980842151E+03  0.00000000000E+00 0.  1.
<mgrwt>
<rscale>  0 0.23152636E+04</rscale>
<asrwt>0</asrwt>
<pdfrwt beam="1">  1        1 0.38877316E+00 0.23152636E+04</pdfrwt>
<pdfrwt beam="2">  1       -1 0.81586428E-01 0.23152636E+04</pdfrwt>
<totfact> 0.17515380E+00</totfact>
</mgrwt>
</event>
<event>
12    1  0.1549527E-007  0.1113462E+04  0.7818608E-02  0.9192170E-01
         -2   -1    0    0    0  501 -0.00000000000E+00  0.00000000000E+00  0.20488190507E+03  0.20488190507E+03  0.00000000000E+00 0.  1.
          2   -1    0    0  501    0  0.00000000000E+00 -0.00000000000E+00 -0.15128186761E+04  0.15128186761E+04  0.00000000000E+00 0. -1.
         23    2    1    2    0    0  0.64640684758E+02 -0.84230077391E+02 -0.48685073255E+03  0.51279851148E+03  0.12110141835E+03 0.  0.
        254    2    1    2    0    0 -0.64640684758E+02  0.84230077391E+02 -0.82108603848E+03  0.12049020697E+04  0.87540481545E+03 0.  0.
        -24    2    4    4    0    0 -0.86839513821E+02  0.26060442888E+03  0.68986356403E+02  0.29383023785E+03  0.78238876481E+02 0.  0.
         24    2    4    4    0    0  0.22198829063E+02 -0.17637435149E+03 -0.89007239488E+03  0.91107183185E+03  0.78881650424E+02 0.  0.
         11    1    3    3    0    0  0.54905637475E+01 -0.89657403516E+02 -0.38075431157E+03  0.39120639319E+03  0.00000000000E+00 0. -1.
        -11    1    3    3    0    0  0.59150121011E+02  0.54273261246E+01 -0.10609642098E+03  0.12159211828E+03  0.00000000000E+00 0.  1.
          2    1    6    6  502    0  0.16051047730E+02 -0.17452006951E+03 -0.72527052667E+03  0.74614491062E+03  0.00000000000E+00 0. -1.
          1    1    5    5  503    0 -0.78325913523E+02  0.14519364933E+03  0.67081849061E+02  0.17809019908E+03  0.00000000000E+00 0. -1.
         -2    1    5    5    0  503 -0.85136002980E+01  0.11541077955E+03  0.19045073416E+01  0.11574003877E+03  0.00000000000E+00 0.  1.
         -1    1    6    6    0  502  0.61477813326E+01 -0.18542819838E+01 -0.16480186821E+03  0.16492692122E+03  0.00000000000E+00 0.  1.
<mgrwt>
<rscale>  0 0.11134616E+04</rscale>
<asrwt>0</asrwt>
<pdfrwt beam="1">  1        2 0.23274134E+00 0.11134616E+04</pdfrwt>
<pdfrwt beam="2">  1       -2 0.31520293E-01 0.11134616E+04</pdfrwt>
<totfact> 0.11567283E+02</totfact>
</mgrwt>
</event>
<event>
12    1  0.1549527E-007  0.1775478E+04  0.7818608E-02  0.8719450E-01
          1   -1    0    0  501    0  0.00000000000E+00  0.00000000000E+00  0.15544220747E+04  0.15544220747E+04  0.00000000000E+00 0. -1.
         -1   -1    0    0    0  501 -0.00000000000E+00 -0.00000000000E+00 -0.50699288992E+03  0.50699288992E+03  0.00000000000E+00 0.  1.
         23    2    1    2    0    0 -0.93292118103E+02  0.62223928997E+03  0.32236640842E+03  0.71274443628E+03  0.90550410827E+02 0.  0.
        254    2    1    2    0    0  0.93292118103E+02 -0.62223928997E+03  0.72506277634E+03  0.13486705283E+04  0.94726501627E+03 0.  0.
        -24    2    4    4    0    0 -0.21618569040E+03 -0.96255140353E+02  0.68808580235E+03  0.73200869641E+03  0.79833297790E+02 0.  0.
         24    2    4    4    0    0  0.30947780850E+03 -0.52598414961E+03  0.36976973991E+02  0.61666183192E+03  0.80428096706E+02 0.  0.
         13    1    3    3    0    0 -0.10166216026E+03  0.60209495245E+03  0.29616526754E+03  0.67865115655E+03  0.00000000000E+00 0.  1.
        -13    1    3    3    0    0  0.83700421542E+01  0.20144337517E+02  0.26201140875E+02  0.34093279731E+02  0.00000000000E+00 0. -1.
          2    1    6    6  502    0  0.24938608558E+03 -0.35191951697E+03  0.21290878505E+02  0.43184958911E+03  0.00000000000E+00 0. -1.
          1    1    5    5  503    0 -0.19963913319E+03 -0.99464039168E+02  0.67430685183E+03  0.71023841702E+03  0.00000000000E+00 0. -1.
         -2    1    5    5    0  503 -0.16546557205E+02  0.32088988149E+01  0.13778950527E+02  0.21770279386E+02  0.00000000000E+00 0.  1.
         -1    1    6    6    0  502  0.60091722920E+02 -0.17406463264E+03  0.15686095486E+02  0.18481224281E+03  0.00000000000E+00 0.  1.
<mgrwt>
<rscale>  0 0.17754785E+04</rscale>
<asrwt>0</asrwt>
<pdfrwt beam="1">  1        1 0.23914186E+00 0.17754785E+04</pdfrwt>
<pdfrwt beam="2">  1       -1 0.77998907E-01 0.17754785E+04</pdfrwt>
<totfact> 0.93364584E+00</totfact>
</mgrwt>
</event>
<event>
12    1  0.1549527E-007  0.1132643E+04  0.7818608E-02  0.9173947E-01
         -2   -1    0    0    0  501 -0.00000000000E+00  0.00000000000E+00  0.74606020470E+02  0.74606020470E+02  0.00000000000E+00 0.  1.
          2   -1    0    0  501    0  0.00000000000E+00 -0.00000000000E+00 -0.42988518918E+04  0.42988518918E+04  0.00000000000E+00 0. -1.
         23    2    1    2    0    0 -0.14010122006E+03  0.11981293075E+03 -0.10163210016E+04  0.10367939265E+04  0.89720551939E+02 0.  0.
        254    2    1    2    0    0  0.14010122006E+03 -0.11981293075E+03 -0.32079248697E+04  0.33366639858E+04  0.89920025247E+03 0.  0.
        -24    2    4    4    0    0  0.34942659857E+03 -0.34542390207E+02 -0.48935429878E+03  0.60764794792E+03  0.80475302803E+02 0.  0.
         24    2    4    4    0    0 -0.20932537851E+03 -0.85270540542E+02 -0.27185705710E+04  0.27290160379E+04  0.76252256394E+02 0.  0.
         11    1    3    3    0    0 -0.29562238654E+02 -0.12908198589E+02 -0.15278485250E+03  0.15615299773E+03  0.00000000000E+00 0.  1.
        -11    1    3    3    0    0 -0.11053898141E+03  0.13272112934E+03 -0.86353614909E+03  0.88064092874E+03  0.00000000000E+00 0. -1.
          4    1    6    6  502    0 -0.78856134610E+02 -0.11730374656E+02 -0.13311913484E+04  0.13335765061E+04  0.00000000000E+00 0. -1.
          3    1    5    5  503    0  0.10706662078E+03 -0.28498543959E+02 -0.10150585725E+03  0.15026266119E+03  0.00000000000E+00 0. -1.
         -4    1    5    5    0  503  0.24235997779E+03 -0.60438462480E+01 -0.38784844153E+03  0.45738528672E+03  0.00000000000E+00 0.  1.
         -3    1    6    6    0  502 -0.13046924390E+03 -0.73540165886E+02 -0.13873792226E+04  0.13954395318E+04  0.00000000000E+00 0.  1.
<mgrwt>
<rscale>  0 0.11326433E+04</rscale>
<asrwt>0</asrwt>
<pdfrwt beam="1">  1        2 0.66136189E+00 0.11326433E+04</pdfrwt>
<pdfrwt beam="2">  1       -2 0.11477848E-01 0.11326433E+04</pdfrwt>
<totfact> 0.10941503E+01</totfact>
</mgrwt>
</event>
<event>
12    1  0.1549527E-007  0.1973580E+04  0.7818608E-02  0.8619074E-01
          1   -1    0    0  501    0  0.00000000000E+00  0.00000000000E+00  0.17789268546E+04  0.17789268546E+04  0.00000000000E+00 0. -1.
         -1   -1    0    0    0  501 -0.00000000000E+00 -0.00000000000E+00 -0.54738301827E+03  0.54738301827E+03  0.00000000000E+00 0.  1.
         23    2    1    2    0    0 -0.63090218681E+03 -0.26236570361E+03  0.45073381979E+02  0.69073214277E+03  0.90586707313E+02 0.  0.
        254    2    1    2    0    0  0.63090218681E+03  0.26236570361E+03  0.11864704544E+04  0.16355777301E+04  0.89472288469E+03 0.  0.
        -24    2    4    4    0    0  0.23928368158E+03  0.11043569595E+02  0.11329319560E+04  0.11607120623E+04  0.79618050255E+02 0.  0.
         24    2    4    4    0    0  0.39161850523E+03  0.25132213402E+03  0.53538498367E+02  0.47486566782E+03  0.78122743047E+02 0.  0.
         11    1    3    3    0    0 -0.52200016650E+03 -0.18277076322E+03  0.19340538697E+02  0.55341068128E+03  0.00000000000E+00 0.  1.
        -11    1    3    3    0    0 -0.10890202031E+03 -0.79594940394E+02  0.25732843282E+02  0.13732146149E+03  0.00000000000E+00 0. -1.
          2    1    6    6  502    0  0.18232078924E+03  0.75323263402E+02  0.64005504405E+01  0.19737130299E+03  0.00000000000E+00 0. -1.
          3    1    5    5  503    0  0.10938786323E+03  0.40957256690E+02  0.45139899800E+03  0.46626629397E+03  0.00000000000E+00 0. -1.
         -2    1    5    5    0  503  0.12989581835E+03 -0.29913687095E+02  0.68153295800E+03  0.69444576833E+03  0.00000000000E+00 0.  1.
         -1    1    6    6    0  502  0.20929771598E+03  0.17599887062E+03  0.47137947926E+02  0.27749436482E+03  0.00000000000E+00 0.  1.
<mgrwt>
<rscale>  0 0.19735798E+04</rscale>
<asrwt>0</asrwt>
<pdfrwt beam="1">  1        1 0.27368105E+00 0.19735798E+04</pdfrwt>
<pdfrwt beam="2">  1       -1 0.84212773E-01 0.19735798E+04</pdfrwt>
<totfact> 0.54686274E+00</totfact>
</mgrwt>
</event>
<event>
12    1  0.1549527E-007  0.1915598E+04  0.7818608E-02  0.8647131E-01
          2   -1    0    0  501    0  0.00000000000E+00  0.00000000000E+00  0.10512670926E+04  0.10512670926E+04  0.00000000000E+00 0. -1.
         -2   -1    0    0    0  501 -0.00000000000E+00 -0.00000000000E+00 -0.87264141779E+03  0.87264141779E+03  0.00000000000E+00 0.  1.
         23    2    1    2    0    0 -0.67770417299E+03  0.17921610907E+03  0.32170533334E+03  0.77645412442E+03  0.89360651199E+02 0.  0.
        254    2    1    2    0    0  0.67770417299E+03 -0.17921610907E+03 -0.14307965849E+03  0.11474543860E+04  0.89709443175E+03 0.  0.
        -24    2    4    4    0    0  0.39524680793E+03 -0.41232889626E+03 -0.39210638424E+03  0.69737470801E+03  0.79680041030E+02 0.  0.
         24    2    4    4    0    0  0.28245736506E+03  0.23311278718E+03  0.24902672575E+03  0.45007967801E+03  0.80210172600E+02 0.  0.
         11    1    3    3    0    0 -0.21815954735E+03  0.77059378192E+02  0.14805626750E+03  0.27468599202E+03  0.00000000000E+00 0.  1.
        -11    1    3    3    0    0 -0.45954462564E+03  0.10215673088E+03  0.17364906585E+03  0.50176813240E+03  0.00000000000E+00 0. -1.
          4    1    6    6  502    0  0.85526868667E+02  0.90092775346E+02  0.12761202969E+03  0.17809094181E+03  0.00000000000E+00 0. -1.
          3    1    5    5  503    0  0.38026773259E+03 -0.37945415178E+03 -0.38403548457E+03  0.66035767215E+03  0.00000000000E+00 0. -1.
         -4    1    5    5    0  503  0.14979075342E+02 -0.32874744480E+02 -0.80708996709E+01  0.37017035865E+02  0.00000000000E+00 0.  1.
         -3    1    6    6    0  502  0.19693049640E+03  0.14302001184E+03  0.12141469606E+03  0.27198873619E+03  0.00000000000E+00 0.  1.
<mgrwt>
<rscale>  0 0.19155983E+04</rscale>
<asrwt>0</asrwt>
<pdfrwt beam="1">  1        2 0.16173340E+00 0.19155983E+04</pdfrwt>
<pdfrwt beam="2">  1       -2 0.13425253E+00 0.19155983E+04</pdfrwt>
<totfact> 0.87459065E+00</totfact>
</mgrwt>
</event>
<event>
12    1  0.1549527E-007  0.1300476E+04  0.7818608E-02  0.9029188E-01
          2   -1    0    0  501    0  0.00000000000E+00  0.00000000000E+00  0.12534437714E+04  0.12534437714E+04  0.00000000000E+00 0. -1.
         -2   -1    0    0    0  501 -0.00000000000E+00 -0.00000000000E+00 -0.33731805645E+03  0.33731805645E+03  0.00000000000E+00 0.  1.
         23    2    1    2    0    0 -0.82117759481E+02  0.15439014898E+03  0.53507798080E+03  0.57089623780E+03  0.95049588468E+02 0.  0.
        254    2    1    2    0    0  0.82117759481E+02 -0.15439014898E+03  0.38104773417E+03  0.10198655901E+04  0.92970360954E+03 0.  0.
        -24    2    4    4    0    0  0.30297825818E+03  0.29993419414E+03  0.15017486742E+03  0.45869663729E+03  0.78062593505E+02 0.  0.
         24    2    4    4    0    0 -0.22086049870E+03 -0.45432434312E+03  0.23087286675E+03  0.56116895280E+03  0.80114570106E+02 0.  0.
         11    1    3    3    0    0 -0.12455077043E+02  0.79872532984E+02  0.35351207020E+03  0.36263691793E+03  0.00000000000E+00 0. -1.
        -11    1    3    3    0    0 -0.69662682438E+02  0.74517615998E+02  0.18156591060E+03  0.20825931986E+03  0.00000000000E+00 0.  1.
          4    1    6    6  502    0 -0.10214980156E+03 -0.17568262790E+03  0.13299278806E+03  0.24287043744E+03  0.00000000000E+00 0. -1.
          3    1    5    5  503    0  0.26538940147E+03  0.23321980735E+03  0.14514821042E+03  0.38195682471E+03  0.00000000000E+00 0. -1.
         -2    1    5    5    0  503  0.37588856717E+02  0.66714386790E+02  0.50266570024E+01  0.76739812579E+02  0.00000000000E+00 0.  1.
         -3    1    6    6    0  502 -0.11871069714E+03 -0.27864171522E+03  0.97880078692E+02  0.31829851536E+03  0.00000000000E+00 0.  1.
<mgrwt>
<rscale>  0 0.13004756E+04</rscale>
<asrwt>0</asrwt>
<pdfrwt beam="1">  1        2 0.19283750E+00 0.13004756E+04</pdfrwt>
<pdfrwt beam="2">  1       -2 0.51895086E-01 0.13004756E+04</pdfrwt>
<totfact> 0.60490465E+01</totfact>
</mgrwt>
</event>
<event>
12    1  0.1549527E-007  0.2628342E+04  0.7818608E-02  0.8358637E-01
          2   -1    0    0  501    0  0.00000000000E+00  0.00000000000E+00  0.15499413949E+04  0.15499413949E+04  0.00000000000E+00 0. -1.
         -2   -1    0    0    0  501 -0.00000000000E+00 -0.00000000000E+00 -0.11142646664E+04  0.11142646664E+04  0.00000000000E+00 0.  1.
         23    2    1    2    0    0 -0.30238706743E+03 -0.76495466532E+03 -0.63529116542E+03  0.10433762080E+04  0.91899226933E+02 0.  0.
        254    2    1    2    0    0  0.30238706743E+03  0.76495466532E+03  0.10709678939E+04  0.16208298533E+04  0.89639478191E+03 0.  0.
        -24    2    4    4    0    0  0.40015684876E+03  0.39071526935E+02  0.13960428342E+03  0.43335812777E+03  0.81595484729E+02 0.  0.
         24    2    4    4    0    0 -0.97769781321E+02  0.72588313838E+03  0.93136361052E+03  0.11874717256E+04  0.78648987733E+02 0.  0.
         13    1    3    3    0    0 -0.22241388375E+03 -0.56409700042E+03 -0.41537881673E+03  0.73499178428E+03  0.00000000000E+00 0.  1.
        -13    1    3    3    0    0 -0.79973183683E+02 -0.20085766490E+03 -0.21991234869E+03  0.30838442368E+03  0.00000000000E+00 0. -1.
          4    1    6    6  502    0 -0.16366042635E+02  0.17983904229E+03  0.28538215570E+03  0.33771719422E+03  0.00000000000E+00 0. -1.
          1    1    5    5  503    0  0.13055957980E+03  0.24145799295E+02  0.80828057002E+01  0.13301937922E+03  0.00000000000E+00 0. -1.
         -2    1    5    5    0  503  0.26959726896E+03  0.14925727640E+02  0.13152147772E+03  0.30033874855E+03  0.00000000000E+00 0.  1.
         -3    1    6    6    0  502 -0.81403738686E+02  0.54604409609E+03  0.64598145482E+03  0.84975453133E+03  0.00000000000E+00 0.  1.
<mgrwt>
<rscale>  0 0.26283416E+04</rscale>
<asrwt>0</asrwt>
<pdfrwt beam="1">  1        2 0.23845252E+00 0.26283416E+04</pdfrwt>
<pdfrwt beam="2">  1       -2 0.17142533E+00 0.26283416E+04</pdfrwt>
<totfact> 0.21864822E+00</totfact>
</mgrwt>
</event>
<event>
12    1  0.1549527E-007  0.2361525E+04  0.7818608E-02  0.8454050E-01
          1   -1    0    0  501    0  0.00000000000E+00  0.00000000000E+00  0.57099071234E+03  0.57099071234E+03  0.00000000000E+00 0. -1.
         -1   -1    0    0    0  501 -0.00000000000E+00 -0.00000000000E+00 -0.24417204934E+04  0.24417204934E+04  0.00000000000E+00 0.  1.
         23    2    1    2    0    0  0.76547745209E+03 -0.47941790927E+02 -0.16277336028E+04  0.18016884782E+04  0.91162196053E+02 0.  0.
        254    2    1    2    0    0 -0.76547745209E+03  0.47941790927E+02 -0.24299617829E+03  0.12110227275E+04  0.90513797786E+03 0.  0.
        -24    2    4    4    0    0  0.19303346272E+02 -0.23685697917E+03  0.14242840800E+03  0.28807373397E+03  0.78909929894E+02 0.  0.
         24    2    4    4    0    0 -0.78478079836E+03  0.28479877010E+03 -0.38542458629E+03  0.92294899356E+03  0.79318926372E+02 0.  0.
         13    1    3    3    0    0  0.16503954154E+03 -0.37734958323E+01 -0.27021327063E+03  0.31665044003E+03  0.00000000000E+00 0. -1.
        -13    1    3    3    0    0  0.60043791055E+03 -0.44168295094E+02 -0.13575203322E+04  0.14850380382E+04  0.00000000000E+00 0.  1.
          4    1    6    6  502    0 -0.12219160432E+03  0.21661803702E+02 -0.77916161870E+02  0.14652969046E+03  0.00000000000E+00 0. -1.
          3    1    5    5  503    0 -0.13040819419E+02 -0.77162650220E+02  0.84436049576E+02  0.11512421130E+03  0.00000000000E+00 0. -1.
         -4    1    5    5    0  503  0.32344165690E+02 -0.15969432895E+03  0.57992358422E+02  0.17294952266E+03  0.00000000000E+00 0.  1.
         -3    1    6    6    0  502 -0.66258919404E+03  0.26313696640E+03 -0.30750842442E+03  0.77641930310E+03  0.00000000000E+00 0.  1.
<mgrwt>
<rscale>  0 0.23615247E+04</rscale>
<asrwt>0</asrwt>
<pdfrwt beam="1">  1        1 0.87844726E-01 0.23615247E+04</pdfrwt>
<pdfrwt beam="2">  1       -1 0.37564930E+00 0.23615247E+04</pdfrwt>
<totfact> 0.34637944E-01</totfact>
</mgrwt>
</event>
<event>
12    1  0.1549527E-007  0.1935823E+04  0.7818608E-02  0.8637228E-01
          1   -1    0    0  501    0  0.00000000000E+00  0.00000000000E+00  0.11399711804E+04  0.11399711804E+04  0.00000000000E+00 0. -1.
         -1   -1    0    0    0  501 -0.00000000000E+00 -0.00000000000E+00 -0.82182139318E+03  0.82182139318E+03  0.00000000000E+00 0.  1.
         23    2    1    2    0    0 -0.66835253124E+03 -0.12470535012E+03 -0.17687462121E+03  0.70808592640E+03  0.88625714006E+02 0.  0.
        254    2    1    2    0    0  0.66835253124E+03  0.12470535012E+03  0.49502440841E+03  0.12537066472E+04  0.92977667311E+03 0.  0.
        -24    2    4    4    0    0  0.45578553386E+03  0.42899429489E+03  0.14321404063E+01  0.63102394972E+03  0.80078812205E+02 0.  0.
         24    2    4    4    0    0  0.21256699737E+03 -0.30428894477E+03  0.49359226801E+03  0.62268269745E+03  0.79523105946E+02 0.  0.
         13    1    3    3    0    0 -0.41444270284E+03 -0.34173769257E+02 -0.11612592906E+03  0.43175899741E+03  0.00000000000E+00 0.  1.
        -13    1    3    3    0    0 -0.25390982839E+03 -0.90531580864E+02 -0.60748692155E+02  0.27632692899E+03  0.00000000000E+00 0. -1.
          2    1    6    6  502    0  0.21047108906E+03 -0.30881249597E+03  0.48084514024E+03  0.60899530860E+03  0.00000000000E+00 0. -1.
          3    1    5    5  503    0  0.37235261641E+03  0.32483200017E+03  0.28108674029E+02  0.49492665804E+03  0.00000000000E+00 0. -1.
         -4    1    5    5    0  503  0.83432917451E+02  0.10416229472E+03 -0.26676533622E+02  0.13609729168E+03  0.00000000000E+00 0.  1.
         -1    1    6    6    0  502  0.20959083079E+01  0.45235512038E+01  0.12747127769E+02  0.13687388849E+02  0.00000000000E+00 0.  1.
<mgrwt>
<rscale>  0 0.19358230E+04</rscale>
<asrwt>0</asrwt>
<pdfrwt beam="1">  1        1 0.17538018E+00 0.19358230E+04</pdfrwt>
<pdfrwt beam="2">  1       -1 0.12643406E+00 0.19358230E+04</pdfrwt>
<totfact> 0.60044187E+00</totfact>
</mgrwt>
</event>
<event>
12    1  0.1549527E-007  0.2625587E+04  0.7818608E-02  0.8359562E-01
         -2   -1    0    0    0  501 -0.00000000000E+00  0.00000000000E+00  0.73566281856E+03  0.73566281856E+03  0.00000000000E+00 0.  1.
          2   -1    0    0  501    0  0.00000000000E+00 -0.00000000000E+00 -0.23426850076E+04  0.23426850076E+04  0.00000000000E+00 0. -1.
         23    2    1    2    0    0  0.25732262694E+03 -0.42743956597E+03  0.51291240625E+03  0.72132772651E+03  0.91186817328E+02 0.  0.
        254    2    1    2    0    0 -0.25732262694E+03  0.42743956597E+03 -0.21199345953E+04  0.23570200996E+04  0.90138867582E+03 0.  0.
        -24    2    4    4    0    0  0.18576814170E+03 -0.18274228618E+03 -0.55093006491E+03  0.61458062356E+03  0.79251882026E+02 0.  0.
         24    2    4    4    0    0 -0.44309076864E+03  0.61018185215E+03 -0.15690045304E+04  0.17424394761E+04  0.75291363932E+02 0.  0.
         13    1    3    3    0    0  0.16204416437E+03 -0.34455396086E+03  0.39244241858E+03  0.54679684989E+03  0.00000000000E+00 0.  1.
        -13    1    3    3    0    0  0.95278462565E+02 -0.82885605112E+02  0.12046998767E+03  0.17453087662E+03  0.00000000000E+00 0. -1.
          2    1    6    6  502    0 -0.24862788065E+02  0.72530509529E+02 -0.15749926939E+03  0.17517092481E+03  0.00000000000E+00 0. -1.
          3    1    5    5  503    0 -0.72285359511E+01 -0.19264396930E+01 -0.21639486098E+02  0.22896075220E+02  0.00000000000E+00 0. -1.
         -4    1    5    5    0  503  0.19299667766E+03 -0.18081584649E+03 -0.52929057881E+03  0.59168454834E+03  0.00000000000E+00 0.  1.
         -1    1    6    6    0  502 -0.41822798057E+03  0.53765134262E+03 -0.14115052610E+04  0.15672685513E+04  0.00000000000E+00 0.  1.
<mgrwt>
<rscale>  0 0.26255866E+04</rscale>
<asrwt>0</asrwt>
<pdfrwt beam="1">  1        2 0.36041308E+00 0.26255866E+04</pdfrwt>
<pdfrwt beam="2">  1       -2 0.11317889E+00 0.26255866E+04</pdfrwt>
<totfact> 0.23195656E+00</totfact>
</mgrwt>
</event>
<event>
12    1  0.1549527E-007  0.1472783E+04  0.7818608E-02  0.8902756E-01
          1   -1    0    0  501    0  0.00000000000E+00  0.00000000000E+00  0.14057734966E+04  0.14057734966E+04  0.00000000000E+00 0. -1.
         -1   -1    0    0    0  501 -0.00000000000E+00 -0.00000000000E+00 -0.38574687471E+03  0.38574687471E+03  0.00000000000E+00 0.  1.
         23    2    1    2    0    0 -0.49462854585E-01  0.37451263487E+03  0.79605386124E+03  0.88443483237E+03  0.90903831637E+02 0.  0.
        254    2    1    2    0    0  0.49462854585E-01 -0.37451263487E+03  0.22397276070E+03  0.90708553898E+03  0.79522365494E+03 0.  0.
        -24    2    4    4    0    0  0.28904371466E+03  0.88288869527E+02  0.16390142252E+03  0.35302296289E+03  0.80127040106E+02 0.  0.
         24    2    4    4    0    0 -0.28899425181E+03 -0.46280150439E+03  0.60071338175E+02  0.55406257609E+03  0.75325045690E+02 0.  0.
         11    1    3    3    0    0  0.33553703212E+02  0.31695494291E+03  0.66103422008E+03  0.73386138129E+03  0.00000000000E+00 0. -1.
        -11    1    3    3    0    0 -0.33603166066E+02  0.57557691960E+02  0.13501964115E+03  0.15057345108E+03  0.00000000000E+00 0.  1.
          4    1    6    6  502    0 -0.14352321897E+03 -0.16391116250E+03  0.35553323070E+02  0.22074832357E+03  0.00000000000E+00 0. -1.
          1    1    5    5  503    0  0.78996918663E+02  0.30566363807E+01  0.76697602460E+02  0.11014707625E+03  0.00000000000E+00 0. -1.
         -2    1    5    5    0  503  0.21004679600E+03  0.85232233146E+02  0.87203820060E+02  0.24287588664E+03  0.00000000000E+00 0.  1.
         -3    1    6    6    0  502 -0.14547103284E+03 -0.29889034189E+03  0.24518015105E+02  0.33331425252E+03  0.00000000000E+00 0.  1.
<mgrwt>
<rscale>  0 0.14727834E+04</rscale>
<asrwt>0</asrwt>
<pdfrwt beam="1">  1        1 0.21627284E+00 0.14727834E+04</pdfrwt>
<pdfrwt beam="2">  1       -1 0.59345674E-01 0.14727834E+04</pdfrwt>
<totfact> 0.21238052E+01</totfact>
</mgrwt>
</event>
<event>
12    1  0.1549527E-007  0.2227386E+04  0.7818608E-02  0.8507115E-01
          2   -1    0    0  501    0  0.00000000000E+00  0.00000000000E+00  0.31426063889E+04  0.31426063889E+04  0.00000000000E+00 0. -1.
         -2   -1    0    0    0  501 -0.00000000000E+00 -0.00000000000E+00 -0.39467618130E+03  0.39467618130E+03  0.00000000000E+00 0.  1.
         23    2    1    2    0    0  0.37242987454E+03 -0.84556955282E+03  0.10287851677E+04  0.13856816587E+04  0.89570408259E+02 0.  0.
        254    2    1    2    0    0 -0.37242987454E+03  0.84556955282E+03  0.17191450400E+04  0.21516009115E+04  0.90566822503E+03 0.  0.
        -24    2    4    4    0    0 -0.36676692040E+02  0.38362350354E+03  0.63729547432E+02  0.39856381790E+03  0.79243230098E+02 0.  0.
         24    2    4    4    0    0 -0.33575318250E+03  0.46194604928E+03  0.16554154925E+04  0.17530370936E+04  0.81328018702E+02 0.  0.
         13    1    3    3    0    0  0.46837237061E+02 -0.13121173141E+03  0.20368839103E+03  0.24677764460E+03  0.00000000000E+00 0. -1.
        -13    1    3    3    0    0  0.32559263748E+03 -0.71435782140E+03  0.82509677664E+03  0.11389040141E+04  0.00000000000E+00 0.  1.
          2    1    6    6  502    0 -0.10579482323E+03  0.95773525932E+02  0.47204971003E+03  0.49314910690E+03  0.00000000000E+00 0. -1.
          1    1    5    5  503    0  0.13924201935E+02  0.98390482727E+02  0.42570242122E+02  0.10810548555E+03  0.00000000000E+00 0. -1.
         -2    1    5    5    0  503 -0.50600893975E+02  0.28523302081E+03  0.21159305310E+02  0.29045833235E+03  0.00000000000E+00 0.  1.
         -3    1    6    6    0  502 -0.22995835927E+03  0.36617252335E+03  0.11833657825E+04  0.12598879867E+04  0.00000000000E+00 0.  1.
<mgrwt>
<rscale>  0 0.22273858E+04</rscale>
<asrwt>0</asrwt>
<pdfrwt beam="1">  1        2 0.48347789E+00 0.22273858E+04</pdfrwt>
<pdfrwt beam="2">  1       -2 0.60719415E-01 0.22273858E+04</pdfrwt>
<totfact> 0.32592586E+00</totfact>
</mgrwt>
</event>
<event>
12    1  0.1549527E-007  0.1486172E+04  0.7818608E-02  0.8893701E-01
         -1   -1    0    0    0  501 -0.00000000000E+00  0.00000000000E+00  0.14127745790E+04  0.14127745790E+04  0.00000000000E+00 0.  1.
          1   -1    0    0  501    0  0.00000000000E+00 -0.00000000000E+00 -0.39084579624E+03  0.39084579624E+03  0.00000000000E+00 0. -1.
         23    2    1    2    0    0  0.18494122689E+02  0.35372623241E+03 -0.41940796244E+02  0.36829650503E+03  0.91755136968E+02 0.  0.
        254    2    1    2    0    0 -0.18494122689E+02 -0.35372623241E+03  0.10638695790E+04  0.14353238702E+04  0.89603116641E+03 0.  0.
        -24    2    4    4    0    0 -0.96268337175E+02  0.23193459398E+03  0.67272931659E+03  0.72237008667E+03  0.78692821070E+02 0.  0.
         24    2    4    4    0    0  0.77774214485E+02 -0.58566082639E+03  0.39114026241E+03  0.71295378353E+03  0.79151503866E+02 0.  0.
         11    1    3    3    0    0 -0.17333945553E+02  0.22347364087E+03 -0.59917983583E+02  0.23201529817E+03  0.00000000000E+00 0.  1.
        -11    1    3    3    0    0  0.35828068242E+02  0.13025259155E+03  0.17977187339E+02  0.13628120686E+03  0.00000000000E+00 0. -1.
          2    1    6    6  502    0 -0.19423717503E+01  0.21430227712E+01  0.20787374601E+01  0.35618119044E+01  0.00000000000E+00 0. -1.
          3    1    5    5  503    0 -0.36869599315E+00  0.89109309873E+02  0.18882884711E+03  0.20879879919E+03  0.00000000000E+00 0. -1.
         -2    1    5    5    0  503 -0.95899641182E+02  0.14282528411E+03  0.48390046948E+03  0.51357128748E+03  0.00000000000E+00 0.  1.
         -1    1    6    6    0  502  0.79716586236E+02 -0.58780384916E+03  0.38906152495E+03  0.70939197163E+03  0.00000000000E+00 0.  1.
<mgrwt>
<rscale>  0 0.14861723E+04</rscale>
<asrwt>0</asrwt>
<pdfrwt beam="1">  1        1 0.60130123E-01 0.14861723E+04</pdfrwt>
<pdfrwt beam="2">  1       -1 0.21734993E+00 0.14861723E+04</pdfrwt>
<totfact> 0.68705370E+00</totfact>
</mgrwt>
</event>
<event>
12    1  0.1549527E-007  0.1539841E+04  0.7818608E-02  0.8858383E-01
          1   -1    0    0  501    0  0.00000000000E+00  0.00000000000E+00  0.13575013862E+04  0.13575013862E+04  0.00000000000E+00 0. -1.
         -1   -1    0    0    0  501 -0.00000000000E+00 -0.00000000000E+00 -0.43666821540E+03  0.43666821540E+03  0.00000000000E+00 0.  1.
         23    2    1    2    0    0 -0.11703453591E+03 -0.46652170898E+03  0.17650693492E+03  0.52026163197E+03  0.90431632064E+02 0.  0.
        254    2    1    2    0    0  0.11703453591E+03  0.46652170898E+03  0.74432623584E+03  0.12739079696E+04  0.91513954240E+03 0.  0.
        -24    2    4    4    0    0 -0.14796507165E+02  0.72050875673E+03  0.43579631752E+03  0.84593156635E+03  0.79561167879E+02 0.  0.
         24    2    4    4    0    0  0.13183104308E+03 -0.25398704775E+03  0.30852991832E+03  0.42797640323E+03  0.78001582597E+02 0.  0.
         13    1    3    3    0    0 -0.51982644085E+02 -0.23769379652E+03  0.13662645948E+03  0.27904717454E+03  0.00000000000E+00 0. -1.
        -13    1    3    3    0    0 -0.65051891827E+02 -0.22882791246E+03  0.39880475449E+02  0.24121445743E+03  0.00000000000E+00 0.  1.
          2    1    6    6  502    0 -0.99278835046E+01 -0.14574127344E+02  0.11874803549E+02  0.21259798166E+02  0.00000000000E+00 0. -1.
          1    1    5    5  503    0 -0.64162856200E+01  0.18375102693E+02 -0.79723666617E-01  0.19463285334E+02  0.00000000000E+00 0. -1.
         -2    1    5    5    0  503 -0.83802215445E+01  0.70213365404E+03  0.43587604119E+03  0.82646828102E+03  0.00000000000E+00 0.  1.
         -1    1    6    6    0  502  0.14175892658E+03 -0.23941292040E+03  0.29665511477E+03  0.40671660507E+03  0.00000000000E+00 0.  1.
<mgrwt>
<rscale>  0 0.15398412E+04</rscale>
<asrwt>0</asrwt>
<pdfrwt beam="1">  1        1 0.20884637E+00 0.15398412E+04</pdfrwt>
<pdfrwt beam="2">  1       -1 0.67179726E-01 0.15398412E+04</pdfrwt>
<totfact> 0.17814970E+01</totfact>
</mgrwt>
</event>
<event>
12    1  0.1549527E-007  0.2284629E+04  0.7818608E-02  0.8484007E-01
          1   -1    0    0  501    0  0.00000000000E+00  0.00000000000E+00  0.12577169629E+04  0.12577169629E+04  0.00000000000E+00 0. -1.
         -1   -1    0    0    0  501 -0.00000000000E+00 -0.00000000000E+00 -0.10375004397E+04  0.10375004397E+04  0.00000000000E+00 0.  1.
         23    2    1    2    0    0  0.28603547928E+03  0.64445779284E+03 -0.59440918214E+03  0.92676202304E+03  0.91779242665E+02 0.  0.
        254    2    1    2    0    0 -0.28603547928E+03 -0.64445779284E+03  0.81462570531E+03  0.13684553796E+04  0.84374933723E+03 0.  0.
        -24    2    4    4    0    0 -0.19773450491E+03  0.15231148004E+03  0.69231997261E+02  0.27081328446E+03  0.79050896307E+02 0.  0.
         24    2    4    4    0    0 -0.88300974362E+02 -0.79676927288E+03  0.74539370805E+03  0.10976420952E+04  0.81043523954E+02 0.  0.
         13    1    3    3    0    0 -0.45645759300E+01  0.86245991777E+00 -0.59709537311E+01  0.75651489734E+01  0.00000000000E+00 0. -1.
        -13    1    3    3    0    0  0.29060005521E+03  0.64359533292E+03 -0.58843822840E+03  0.91919687406E+03  0.00000000000E+00 0.  1.
          2    1    6    6  502    0 -0.92944463583E+02 -0.60765504521E+03  0.60056613688E+03  0.85939688855E+03  0.00000000000E+00 0. -1.
          1    1    5    5  503    0  0.41963701996E+01 -0.17014193146E+01  0.85935143150E+01  0.97135389441E+01  0.00000000000E+00 0. -1.
         -2    1    5    5    0  503 -0.20193087511E+03  0.15401289936E+03  0.60638482946E+02  0.26109974551E+03  0.00000000000E+00 0.  1.
         -1    1    6    6    0  502  0.46434892206E+01 -0.18911422767E+03  0.14482757117E+03  0.23824520660E+03  0.00000000000E+00 0.  1.
<mgrwt>
<rscale>  0 0.22846285E+04</rscale>
<asrwt>0</asrwt>
<pdfrwt beam="1">  1        1 0.19349492E+00 0.22846285E+04</pdfrwt>
<pdfrwt beam="2">  1       -1 0.15961545E+00 0.22846285E+04</pdfrwt>
<totfact> 0.25835372E+00</totfact>
</mgrwt>
</event>
<event>
12    1  0.2108413E-007  0.1714797E+04  0.7818608E-02  0.8752970E-01
         -1   -1    0    0    0  501 -0.00000000000E+00  0.00000000000E+00  0.54448652456E+03  0.54448652456E+03  0.00000000000E+00 0.  1.
          1   -1    0    0  501    0  0.00000000000E+00 -0.00000000000E+00 -0.13501386446E+04  0.13501386446E+04  0.00000000000E+00 0. -1.
         23    2    1    2    0    0 -0.27520216290E+03  0.13090351032E+03  0.30067549543E+03  0.43932649025E+03  0.98641025950E+02 0.  0.
        254    2    1    2    0    0  0.27520216290E+03 -0.13090351032E+03 -0.11063276155E+04  0.14552986789E+04  0.89502038671E+03 0.  0.
        -24    2    4    4    0    0 -0.13698290882E+03 -0.22657387804E+03 -0.92696301782E+01  0.27680007215E+03  0.80201710587E+02 0.  0.
         24    2    4    4    0    0  0.41218507172E+03  0.95670367720E+02 -0.10970579853E+04  0.11784986068E+04  0.79204737564E+02 0.  0.
         13    1    3    3    0    0 -0.25104553117E+03  0.10153519609E+03  0.29571974941E+03  0.40097808538E+03  0.00000000000E+00 0.  1.
        -13    1    3    3    0    0 -0.24156631733E+02  0.29368314225E+02  0.49557460221E+01  0.38348404866E+02  0.00000000000E+00 0. -1.
          4    1    6    6  502    0  0.85764215477E+01  0.24865653964E+01 -0.77415101552E+02  0.77928402796E+02  0.00000000000E+00 0. -1.
          1    1    5    5  503    0  0.22109048631E+01 -0.44973087962E+02 -0.16288472348E+02  0.47882993563E+02  0.00000000000E+00 0. -1.
         -2    1    5    5    0  503 -0.13919381368E+03 -0.18160079008E+03  0.70188421695E+01  0.22891707858E+03  0.00000000000E+00 0.  1.
         -1    1    6    6    0  502  0.40360865017E+03  0.93183802323E+02 -0.10196428838E+04  0.11005702040E+04  0.00000000000E+00 0.  1.
<mgrwt>
<rscale>  0 0.17147971E+04</rscale>
<asrwt>0</asrwt>
<pdfrwt beam="1">  1        1 0.20771363E+00 0.17147971E+04</pdfrwt>
<pdfrwt beam="2">  1       -1 0.83767159E-01 0.17147971E+04</pdfrwt>
<totfact> 0.11190216E+01</totfact>
</mgrwt>
</event>
<event>
12    1  0.1549527E-007  0.1367344E+04  0.7818608E-02  0.8977802E-01
         -2   -1    0    0    0  501 -0.00000000000E+00  0.00000000000E+00  0.22882591010E+04  0.22882591010E+04  0.00000000000E+00 0. -1.
          2   -1    0    0  501    0  0.00000000000E+00 -0.00000000000E+00 -0.20426330672E+03  0.20426330672E+03  0.00000000000E+00 0.  1.
         23    2    1    2    0    0 -0.32036830253E+03  0.20083807167E+03  0.71163273826E+03  0.81122261657E+03  0.93215874059E+02 0.  0.
        254    2    1    2    0    0  0.32036830253E+03 -0.20083807167E+03  0.13723630560E+04  0.16812997911E+04  0.89466018682E+03 0.  0.
        -24    2    4    4    0    0  0.37369399559E+03  0.22171420651E+03  0.32733162387E+03  0.55006263936E+03  0.81354308552E+02 0.  0.
         24    2    4    4    0    0 -0.53325693067E+02 -0.42255227818E+03  0.10450314321E+04  0.11312371518E+04  0.78820949434E+02 0.  0.
         11    1    3    3    0    0 -0.30580706855E+03  0.21107800228E+03  0.68186237028E+03  0.77653601219E+03  0.00000000000E+00 0.  1.
        -11    1    3    3    0    0 -0.14561233978E+02 -0.10239930612E+02  0.29770367974E+02  0.34686604377E+02  0.00000000000E+00 0. -1.
          2    1    6    6  502    0 -0.69177055305E+02 -0.36362711577E+03  0.85602426117E+03  0.93262408291E+03  0.00000000000E+00 0. -1.
          1    1    5    5  503    0  0.26163430867E+03  0.14768828897E+03  0.27035639653E+03  0.40417437241E+03  0.00000000000E+00 0. -1.
         -2    1    5    5    0  503  0.11205968692E+03  0.74025917545E+02  0.56975227341E+02  0.14588826695E+03  0.00000000000E+00 0.  1.
         -1    1    6    6    0  502  0.15851362238E+02 -0.58925162415E+02  0.18900717095E+03  0.19861306886E+03  0.00000000000E+00 0.  1.
<mgrwt>
<rscale>  0 0.13673440E+04</rscale>
<asrwt>0</asrwt>
<pdfrwt beam="1">  1        2 0.31425126E-01 0.13673440E+04</pdfrwt>
<pdfrwt beam="2">  1       -2 0.35203984E+00 0.13673440E+04</pdfrwt>
<totfact> 0.25143535E+00</totfact>
</mgrwt>
</event>
<event>
12    1  0.1549527E-007  0.2207842E+04  0.7818608E-02  0.8515171E-01
         -2   -1    0    0    0  501 -0.00000000000E+00  0.00000000000E+00  0.20718623984E+04  0.20718623984E+04  0.00000000000E+00 0.  1.
          2   -1    0    0  501    0  0.00000000000E+00 -0.00000000000E+00 -0.58818647882E+03  0.58818647882E+03  0.00000000000E+00 0. -1.
         23    2    1    2    0    0  0.80679218736E+03 -0.18915934101E+02  0.11055720954E+04  0.13716639995E+04  0.88887699539E+02 0.  0.
        254    2    1    2    0    0 -0.80679218736E+03  0.18915934101E+02  0.37810382414E+03  0.12883848777E+04  0.93043089221E+03 0.  0.
        -24    2    4    4    0    0 -0.31666589220E+02 -0.21301720262E+03 -0.18882574044E+03  0.29727330352E+03  0.79606251327E+02 0.  0.
         24    2    4    4    0    0 -0.77512559814E+03  0.23193313672E+03  0.56692956458E+03  0.99111157420E+03  0.79248649920E+02 0.  0.
         11    1    3    3    0    0  0.20596275819E+03  0.18970924860E+02  0.23295437949E+03  0.31152575604E+03  0.00000000000E+00 0. -1.
        -11    1    3    3    0    0  0.60082942917E+03 -0.37886858961E+02  0.87261771594E+03  0.10601382434E+04  0.00000000000E+00 0.  1.
          2    1    6    6  502    0 -0.59173819512E+03  0.16444404202E+03  0.46755613792E+03  0.77188384918E+03  0.00000000000E+00 0. -1.
          1    1    5    5  503    0 -0.16390207424E+02 -0.20501592584E+03 -0.18998407560E+03  0.27998949575E+03  0.00000000000E+00 0. -1.
         -2    1    5    5    0  503 -0.15276381796E+02 -0.80012767863E+01  0.11583351628E+01  0.17283807779E+02  0.00000000000E+00 0.  1.
         -1    1    6    6    0  502 -0.18338740302E+03  0.67489094701E+02  0.99373426657E+02  0.21922772502E+03  0.00000000000E+00 0.  1.
<mgrwt>
<rscale>  0 0.22078419E+04</rscale>
<asrwt>0</asrwt>
<pdfrwt beam="1">  1        2 0.90490229E-01 0.22078419E+04</pdfrwt>
<pdfrwt beam="2">  1       -2 0.31874806E+00 0.22078419E+04</pdfrwt>
<totfact> 0.11321210E+00</totfact>
</mgrwt>
</event>
<event>
12    1  0.1549527E-007  0.1317113E+04  0.7818608E-02  0.9016103E-01
         -2   -1    0    0    0  501 -0.00000000000E+00  0.00000000000E+00  0.36764753713E+03  0.36764753713E+03  0.00000000000E+00 0. -1.
          2   -1    0    0  501    0  0.00000000000E+00 -0.00000000000E+00 -0.11796539183E+04  0.11796539183E+04  0.00000000000E+00 0.  1.
         23    2    1    2    0    0  0.23512391529E+03  0.16533316901E+03 -0.43679917280E+03  0.53062778757E+03  0.90299608338E+02 0.  0.
        254    2    1    2    0    0 -0.23512391529E+03 -0.16533316901E+03 -0.37520720834E+03  0.10166736678E+04  0.90012587195E+03 0.  0.
        -24    2    4    4    0    0 -0.10507602810E+03 -0.49011005532E+03 -0.41454543185E+03  0.65533025867E+03  0.79755845272E+02 0.  0.
         24    2    4    4    0    0 -0.13004788720E+03  0.32477688632E+03  0.39338223513E+02  0.36134340916E+03  0.81419191001E+02 0.  0.
         11    1    3    3    0    0  0.74631177102E+02  0.64660628002E+02 -0.81751909183E+02  0.12819588162E+03  0.00000000000E+00 0. -1.
        -11    1    3    3    0    0  0.16049273819E+03  0.10067254100E+03 -0.35504726362E+03  0.40243190595E+03  0.00000000000E+00 0.  1.
          4    1    6    6  502    0 -0.77610724301E+02  0.11075890353E+03  0.39856028369E+02  0.14099454683E+03  0.00000000000E+00 0. -1.
          3    1    5    5  503    0 -0.33535414712E+02 -0.32073781886E+03 -0.28545812405E+03  0.43067820130E+03  0.00000000000E+00 0. -1.
         -4    1    5    5    0  503 -0.71540613383E+02 -0.16937223646E+03 -0.12908730780E+03  0.22465205738E+03  0.00000000000E+00 0.  1.
         -3    1    6    6    0  502 -0.52437162895E+02  0.21401798279E+03 -0.51780485667E+00  0.22034886233E+03  0.00000000000E+00 0.  1.
<mgrwt>
<rscale>  0 0.13171133E+04</rscale>
<asrwt>0</asrwt>
<pdfrwt beam="1">  1        2 0.18148522E+00 0.13171133E+04</pdfrwt>
<pdfrwt beam="2">  1       -2 0.56561159E-01 0.13171133E+04</pdfrwt>
<totfact> 0.55926571E+01</totfact>
</mgrwt>
</event>
<event>
12    1  0.1549527E-007  0.1392471E+04  0.7818608E-02  0.8959287E-01
          2   -1    0    0  501    0  0.00000000000E+00  0.00000000000E+00  0.82400550205E+03  0.82400550205E+03  0.00000000000E+00 0. -1.
         -2   -1    0    0    0  501 -0.00000000000E+00 -0.00000000000E+00 -0.58827747394E+03  0.58827747394E+03  0.00000000000E+00 0.  1.
         23    2    1    2    0    0  0.53082646475E+01 -0.13318993246E+03 -0.30869340604E+03  0.34822400618E+03  0.90557185041E+02 0.  0.
        254    2    1    2    0    0 -0.53082646475E+01  0.13318993246E+03  0.54442143416E+03  0.10640589698E+04  0.90446617266E+03 0.  0.
        -24    2    4    4    0    0  0.18233483953E+03  0.16185138244E+02 -0.20079018182E+03  0.28269194783E+03  0.78039014889E+02 0.  0.
         24    2    4    4    0    0 -0.18764310418E+03  0.11700479421E+03  0.74521161597E+03  0.78136702198E+03  0.79334822404E+02 0.  0.
         13    1    3    3    0    0  0.18882654863E+02 -0.81936655990E+02 -0.26943728082E+03  0.28225275649E+03  0.00000000000E+00 0.  1.
        -13    1    3    3    0    0 -0.13574390216E+02 -0.51253276466E+02 -0.39256125228E+02  0.65971249694E+02  0.00000000000E+00 0. -1.
          2    1    6    6  502    0 -0.13741841586E+03  0.80087837980E+02  0.39799857789E+03  0.42860325572E+03  0.00000000000E+00 0. -1.
          1    1    5    5  503    0 -0.44714078143E+01 -0.25060225912E+01  0.27279382800E+01  0.58064864014E+01  0.00000000000E+00 0. -1.
         -2    1    5    5    0  503  0.18680624735E+03  0.18691160835E+02 -0.20351812010E+03  0.27688546143E+03  0.00000000000E+00 0.  1.
         -3    1    6    6    0  502 -0.50224688322E+02  0.36916956232E+02  0.34721303809E+03  0.35276376627E+03  0.00000000000E+00 0.  1.
<mgrwt>
<rscale>  0 0.13924710E+04</rscale>
<asrwt>0</asrwt>
<pdfrwt beam="1">  1        2 0.12677008E+00 0.13924710E+04</pdfrwt>
<pdfrwt beam="2">  1       -2 0.90504227E-01 0.13924710E+04</pdfrwt>
<totfact> 0.33645771E+01</totfact>
</mgrwt>
</event>
<event>
12    1  0.1549527E-007  0.1646255E+04  0.7818608E-02  0.8792625E-01
         -2   -1    0    0    0  501 -0.00000000000E+00  0.00000000000E+00  0.29751175392E+03  0.29751175392E+03  0.00000000000E+00 0.  1.
          2   -1    0    0  501    0  0.00000000000E+00 -0.00000000000E+00 -0.22773513905E+04  0.22773513905E+04  0.00000000000E+00 0. -1.
         23    2    1    2    0    0  0.50856655016E+03  0.23773353178E+03 -0.89383155498E+03  0.10594594719E+04  0.91445917313E+02 0.  0.
        254    2    1    2    0    0 -0.50856655016E+03 -0.23773353178E+03 -0.10860080816E+04  0.15154036726E+04  0.89547616909E+03 0.  0.
        -24    2    4    4    0    0 -0.74122289698E+03 -0.29070419579E+03 -0.77553406815E+03  0.11145091601E+04  0.82202582851E+02 0.  0.
         24    2    4    4    0    0  0.23265634682E+03  0.52970664008E+02 -0.31047401346E+03  0.40089451246E+03  0.85950160690E+02 0.  0.
         11    1    3    3    0    0  0.10279652715E+03  0.84736044663E+02 -0.17478947758E+03  0.21976961740E+03  0.00000000000E+00 0. -1.
        -11    1    3    3    0    0  0.40577002301E+03  0.15299748712E+03 -0.71904207740E+03  0.83968985448E+03  0.00000000000E+00 0.  1.
          4    1    6    6  502    0  0.21655386293E+03  0.71698029391E+02 -0.26981496325E+03  0.35332180426E+03  0.00000000000E+00 0. -1.
          3    1    5    5  503    0 -0.73394376787E+03 -0.27730250475E+03 -0.76609978693E+03  0.10965760425E+04  0.00000000000E+00 0. -1.
         -4    1    5    5    0  503 -0.72791291131E+01 -0.13401691042E+02 -0.94342812245E+01  0.17933117567E+02  0.00000000000E+00 0.  1.
         -3    1    6    6    0  502  0.16102483889E+02 -0.18727365383E+02 -0.40659050210E+02  0.47572708201E+02  0.00000000000E+00 0.  1.
<mgrwt>
<rscale>  0 0.16462549E+04</rscale>
<asrwt>0</asrwt>
<pdfrwt beam="1">  1        2 0.35036175E+00 0.16462549E+04</pdfrwt>
<pdfrwt beam="2">  1       -2 0.45771040E-01 0.16462549E+04</pdfrwt>
<totfact> 0.20214797E+01</totfact>
</mgrwt>
</event>
<event>
12    1  0.1549527E-007  0.1203434E+04  0.7818608E-02  0.9109856E-01
         -1   -1    0    0    0  501 -0.00000000000E+00  0.00000000000E+00  0.24896709152E+03  0.24896709152E+03  0.00000000000E+00 0.  1.
          1   -1    0    0  501    0  0.00000000000E+00 -0.00000000000E+00 -0.14542624801E+04  0.14542624801E+04  0.00000000000E+00 0. -1.
         23    2    1    2    0    0 -0.10700250239E+03  0.17834202745E+03 -0.54301749991E+03  0.58934000729E+03  0.95907375703E+02 0.  0.
        254    2    1    2    0    0  0.10700250239E+03 -0.17834202745E+03 -0.66227788863E+03  0.11138895643E+04  0.87113864877E+03 0.  0.
        -24    2    4    4    0    0  0.26650455815E+03 -0.47473907586E+02  0.11543529190E+03  0.30505619732E+03  0.80346284898E+02 0.  0.
         24    2    4    4    0    0 -0.15950205575E+03 -0.13086811986E+03 -0.77771318052E+03  0.80883336696E+03  0.82500022787E+02 0.  0.
         13    1    3    3    0    0  0.18084755181E+02  0.27819209682E+02 -0.71869839365E+02  0.79159589486E+02  0.00000000000E+00 0.  1.
        -13    1    3    3    0    0 -0.12508725757E+03  0.15052281777E+03 -0.47114766054E+03  0.51018041780E+03  0.00000000000E+00 0. -1.
          2    1    6    6  502    0 -0.12279874076E+03 -0.13798535123E+03 -0.63747776607E+03  0.66369977409E+03  0.00000000000E+00 0. -1.
          3    1    5    5  503    0  0.26806883253E+03 -0.39993211161E+02  0.11971475506E+03  0.29629711185E+03  0.00000000000E+00 0. -1.
         -2    1    5    5    0  503 -0.15642743830E+01 -0.74806964243E+01 -0.42794631647E+01  0.87590854726E+01  0.00000000000E+00 0.  1.
         -1    1    6    6    0  502 -0.36703314992E+02  0.71172313650E+01 -0.14023541445E+03  0.14513359287E+03  0.00000000000E+00 0.  1.
<mgrwt>
<rscale>  0 0.12034343E+04</rscale>
<asrwt>0</asrwt>
<pdfrwt beam="1">  1        1 0.22373268E+00 0.12034343E+04</pdfrwt>
<pdfrwt beam="2">  1       -1 0.38302631E-01 0.12034343E+04</pdfrwt>
<totfact> 0.45905852E+01</totfact>
</mgrwt>
</event>
<event>
12    1  0.1549527E-007  0.1195644E+04  0.7818608E-02  0.9116678E-01
          1   -1    0    0  501    0  0.00000000000E+00  0.00000000000E+00  0.37526462754E+03  0.37526462754E+03  0.00000000000E+00 0. -1.
         -1   -1    0    0    0  501 -0.00000000000E+00 -0.00000000000E+00 -0.95237069660E+03  0.95237069660E+03  0.00000000000E+00 0.  1.
         23    2    1    2    0    0  0.66814920356E+02  0.22971928045E+03 -0.47854549474E+02  0.25733392118E+03  0.81826082002E+02 0.  0.
        254    2    1    2    0    0 -0.66814920356E+02 -0.22971928045E+03 -0.52925151959E+03  0.10703014030E+04  0.89900096818E+03 0.  0.
        -24    2    4    4    0    0 -0.31039495742E+02 -0.28501107122E+03  0.18392536250E+03  0.34971133185E+03  0.79213102710E+02 0.  0.
         24    2    4    4    0    0 -0.35775424613E+02  0.55291790770E+02 -0.71317688209E+03  0.72059007110E+03  0.79320377521E+02 0.  0.
         13    1    3    3    0    0  0.64244207988E+02  0.99063232402E+02 -0.45780642443E+02  0.12663613030E+03  0.00000000000E+00 0.  1.
        -13    1    3    3    0    0  0.25707123679E+01  0.13065604804E+03 -0.20739070312E+01  0.13069779089E+03  0.00000000000E+00 0. -1.
          2    1    6    6  502    0 -0.65624167363E+01  0.93952553084E+01 -0.97046500877E+01  0.15017202438E+02  0.00000000000E+00 0. -1.
          3    1    5    5  503    0  0.17802403094E+02 -0.31320887296E+02  0.40557866033E+02  0.54248170791E+02  0.00000000000E+00 0. -1.
         -4    1    5    5    0  503 -0.48841898837E+02 -0.25369018392E+03  0.14336749647E+03  0.29546316106E+03  0.00000000000E+00 0.  1.
         -1    1    6    6    0  502 -0.29213007877E+02  0.45896535461E+02 -0.70347223200E+03  0.70557286867E+03  0.00000000000E+00 0.  1.
<mgrwt>
<rscale>  0 0.11956438E+04</rscale>
<asrwt>0</asrwt>
<pdfrwt beam="1">  1        1 0.57733020E-01 0.11956438E+04</pdfrwt>
<pdfrwt beam="2">  1       -1 0.14651857E+00 0.11956438E+04</pdfrwt>
<totfact> 0.24031979E+01</totfact>
</mgrwt>
</event>
<event>
12    1  0.1549527E-007  0.4065165E+04  0.7818608E-02  0.7991528E-01
          2   -1    0    0  501    0  0.00000000000E+00  0.00000000000E+00  0.25420712543E+04  0.25420712543E+04  0.00000000000E+00 0. -1.
         -2   -1    0    0    0  501 -0.00000000000E+00 -0.00000000000E+00 -0.16252070386E+04  0.16252070386E+04  0.00000000000E+00 0.  1.
         23    2    1    2    0    0 -0.14270180629E+04  0.12261970040E+03 -0.88721484878E+03  0.16872609614E+04  0.91012204168E+02 0.  0.
        254    2    1    2    0    0  0.14270180629E+04 -0.12261970040E+03  0.18040790645E+04  0.24800173314E+04  0.91889528816E+03 0.  0.
        -24    2    4    4    0    0  0.10439483889E+04 -0.42966113003E+03  0.89128114010E+03  0.14405687698E+04  0.80121062237E+02 0.  0.
         24    2    4    4    0    0  0.38306967401E+03  0.30704142964E+03  0.91279792439E+03  0.10394485616E+04  0.78971177087E+02 0.  0.
         11    1    3    3    0    0 -0.11183401384E+04  0.98862066470E+02 -0.73840068701E+03  0.13437611201E+04  0.00000000000E+00 0.  1.
        -11    1    3    3    0    0 -0.30867792451E+03  0.23757633927E+02 -0.14881416176E+03  0.34349984132E+03  0.00000000000E+00 0. -1.
          4    1    6    6  502    0  0.17148344947E+03  0.13727423454E+03  0.49172140283E+03  0.53855429337E+03  0.00000000000E+00 0. -1.
          3    1    5    5  503    0  0.92703027286E+03 -0.35379953736E+03  0.77435044670E+03  0.12586412729E+04  0.00000000000E+00 0. -1.
         -4    1    5    5    0  503  0.11691811601E+03 -0.75861592676E+02  0.11693069340E+03  0.18192749697E+03  0.00000000000E+00 0.  1.
         -3    1    6    6    0  502  0.21158622453E+03  0.16976719510E+03  0.42107652156E+03  0.50089426824E+03  0.00000000000E+00 0.  1.
<mgrwt>
<rscale>  0 0.40651652E+04</rscale>
<asrwt>0</asrwt>
<pdfrwt beam="1">  1        2 0.39108788E+00 0.40651652E+04</pdfrwt>
<pdfrwt beam="2">  1       -2 0.25003185E+00 0.40651652E+04</pdfrwt>
<totfact> 0.16585453E-01</totfact>
</mgrwt>
</event>
<event>
12    1  0.1549527E-007  0.1730243E+04  0.7818608E-02  0.8744301E-01
          1   -1    0    0  501    0  0.00000000000E+00  0.00000000000E+00  0.90621576290E+03  0.90621576290E+03  0.00000000000E+00 0. -1.
         -1   -1    0    0    0  501 -0.00000000000E+00 -0.00000000000E+00 -0.82589029451E+03  0.82589029451E+03  0.00000000000E+00 0.  1.
         23    2    1    2    0    0 -0.23253276895E+03  0.37331478182E+03 -0.40736937048E+03  0.60630267719E+03  0.90651626608E+02 0.  0.
        254    2    1    2    0    0  0.23253276895E+03 -0.37331478182E+03  0.48769483887E+03  0.11258033802E+04  0.91441324360E+03 0.  0.
        -24    2    4    4    0    0  0.18489117921E+03 -0.64375668462E+03  0.50086681586E+03  0.84042532491E+03  0.82702735047E+02 0.  0.
         24    2    4    4    0    0  0.47641589742E+02  0.27044190280E+03 -0.13171976988E+02  0.28537805530E+03  0.76541424112E+02 0.  0.
         13    1    3    3    0    0 -0.89763069852E+02  0.18968922277E+03 -0.14178444206E+03  0.25326317923E+03  0.00000000000E+00 0. -1.
        -13    1    3    3    0    0 -0.14276969910E+03  0.18362555905E+03 -0.26558492842E+03  0.35303949796E+03  0.00000000000E+00 0.  1.
          4    1    6    6  502    0  0.16736349816E+02  0.78446507834E+01 -0.98569794140E+01  0.20947648896E+02  0.00000000000E+00 0. -1.
          1    1    5    5  503    0  0.29475972746E+02 -0.20593554336E+03  0.18723562660E+03  0.27988472781E+03  0.00000000000E+00 0. -1.
         -2    1    5    5    0  503  0.15541520646E+03 -0.43782114126E+03  0.31363118926E+03  0.56054059711E+03  0.00000000000E+00 0.  1.
         -3    1    6    6    0  502  0.30905239925E+02  0.26259725202E+03 -0.33149975745E+01  0.26443040640E+03  0.00000000000E+00 0.  1.
<mgrwt>
<rscale>  0 0.17302425E+04</rscale>
<asrwt>0</asrwt>
<pdfrwt beam="1">  1        1 0.13941781E+00 0.17302425E+04</pdfrwt>
<pdfrwt beam="2">  1       -1 0.12706005E+00 0.17302425E+04</pdfrwt>
<totfact> 0.91724271E+00</totfact>
</mgrwt>
</event>
<event>
12    1  0.1549527E-007  0.1936424E+04  0.7818608E-02  0.8636935E-01
         -1   -1    0    0    0  501 -0.00000000000E+00  0.00000000000E+00  0.52547242169E+03  0.52547242169E+03  0.00000000000E+00 0.  1.
          1   -1    0    0  501    0  0.00000000000E+00 -0.00000000000E+00 -0.17839847867E+04  0.17839847867E+04  0.00000000000E+00 0. -1.
         23    2    1    2    0    0  0.19623448505E+03  0.56291676281E+03  0.58956858101E+02  0.60581054245E+03  0.90262103065E+02 0.  0.
        254    2    1    2    0    0 -0.19623448505E+03 -0.56291676281E+03 -0.13174692231E+04  0.17036466660E+04  0.90072390530E+03 0.  0.
        -24    2    4    4    0    0  0.26890531461E+03 -0.50943403432E+03 -0.89932789687E+03  0.10710212960E+04  0.80391833101E+02 0.  0.
         24    2    4    4    0    0 -0.46513979966E+03 -0.53482728495E+02 -0.41814132626E+03  0.63262536998E+03  0.78468175303E+02 0.  0.
         11    1    3    3    0    0  0.17514119019E+03  0.52141697370E+03  0.77932389062E+02  0.55553897634E+03  0.00000000000E+00 0. -1.
        -11    1    3    3    0    0  0.21093294854E+02  0.41499789111E+02 -0.18975530962E+02  0.50271566112E+02  0.00000000000E+00 0.  1.
          4    1    6    6  502    0 -0.70186075822E+02  0.15547680881E+02 -0.85148693463E+02  0.11143659910E+03  0.00000000000E+00 0. -1.
          3    1    5    5  503    0  0.60119870211E+02 -0.12881223447E+03 -0.16330640286E+03  0.21650859511E+03  0.00000000000E+00 0. -1.
         -4    1    5    5    0  503  0.20878544440E+03 -0.38062179984E+03 -0.73602149402E+03  0.85451270088E+03  0.00000000000E+00 0.  1.
         -3    1    6    6    0  502 -0.39495372384E+03 -0.69030409375E+02 -0.33299263280E+03  0.52118877088E+03  0.00000000000E+00 0.  1.
<mgrwt>
<rscale>  0 0.19364243E+04</rscale>
<asrwt>0</asrwt>
<pdfrwt beam="1">  1        1 0.27445919E+00 0.19364243E+04</pdfrwt>
<pdfrwt beam="2">  1       -1 0.80841913E-01 0.19364243E+04</pdfrwt>
<totfact> 0.59430396E+00</totfact>
</mgrwt>
</event>
<event>
12    1  0.1549527E-007  0.1374726E+04  0.7818608E-02  0.8972319E-01
         -1   -1    0    0    0  501 -0.00000000000E+00  0.00000000000E+00  0.18976928941E+03  0.18976928941E+03  0.00000000000E+00 0.  1.
          1   -1    0    0  501    0  0.00000000000E+00 -0.00000000000E+00 -0.24896965016E+04  0.24896965016E+04  0.00000000000E+00 0. -1.
         23    2    1    2    0    0  0.95660617045E+02  0.13969109493E+03  0.15747948460E+02  0.20982658058E+03  0.12294161371E+03 0.  0.
        254    2    1    2    0    0 -0.95660617045E+02 -0.13969109493E+03 -0.23156751607E+04  0.24696392104E+04  0.84148786345E+03 0.  0.
        -24    2    4    4    0    0 -0.17487378437E+03  0.29486602120E+03 -0.14751122207E+04  0.15165753198E+04  0.80733055436E+02 0.  0.
         24    2    4    4    0    0  0.79213167324E+02 -0.43455711613E+03 -0.84056293999E+03  0.95306389059E+03  0.81670743937E+02 0.  0.
         13    1    3    3    0    0  0.76894910958E+02  0.18254152111E+02 -0.20623331209E+02  0.81678413247E+02  0.00000000000E+00 0. -1.
        -13    1    3    3    0    0  0.18765706087E+02  0.12143694282E+03  0.36371279669E+02  0.12814816734E+03  0.00000000000E+00 0.  1.
          2    1    6    6  502    0  0.46955733907E+02 -0.19863423329E+03 -0.30552996826E+03  0.36743565571E+03  0.00000000000E+00 0. -1.
          1    1    5    5  503    0 -0.11982932889E+03  0.16614036730E+03 -0.10220229671E+04  0.10423495743E+04  0.00000000000E+00 0. -1.
         -2    1    5    5    0  503 -0.55044455474E+02  0.12872565390E+03 -0.45308925358E+03  0.47422574557E+03  0.00000000000E+00 0.  1.
         -1    1    6    6    0  502  0.32257433417E+02 -0.23592288284E+03 -0.53503297173E+03  0.58562823488E+03  0.00000000000E+00 0.  1.
<mgrwt>
<rscale>  0 0.13747261E+04</rscale>
<asrwt>0</asrwt>
<pdfrwt beam="1">  1        1 0.38303024E+00 0.13747261E+04</pdfrwt>
<pdfrwt beam="2">  1       -1 0.29195275E-01 0.13747261E+04</pdfrwt>
<totfact> 0.14453885E+01</totfact>
</mgrwt>
</event>
<event>
12    1  0.1549527E-007  0.2513754E+04  0.7818608E-02  0.8398102E-01
         -2   -1    0    0    0  501 -0.00000000000E+00  0.00000000000E+00  0.13742573302E+04  0.13742573302E+04  0.00000000000E+00 0.  1.
          2   -1    0    0  501    0  0.00000000000E+00 -0.00000000000E+00 -0.11495229428E+04  0.11495229428E+04  0.00000000000E+00 0. -1.
         23    2    1    2    0    0 -0.85427867155E+03 -0.57668505864E+03  0.47520912362E+03  0.11385870698E+04  0.90548875402E+02 0.  0.
        254    2    1    2    0    0  0.85427867155E+03  0.57668505864E+03 -0.25047473628E+03  0.13851932032E+04  0.89087872979E+03 0.  0.
        -24    2    4    4    0    0  0.17726182007E+03  0.63036952778E+03 -0.23830883080E+03  0.70138442636E+03  0.79759139274E+02 0.  0.
         24    2    4    4    0    0  0.67701685148E+03 -0.53684469134E+02 -0.12165905481E+02  0.68380877685E+03  0.78820014156E+02 0.  0.
         13    1    3    3    0    0 -0.15907456465E+03 -0.12285337170E+03  0.13052518405E+03  0.23965494305E+03  0.00000000000E+00 0. -1.
        -13    1    3    3    0    0 -0.69520410690E+03 -0.45383168694E+03  0.34468393957E+03  0.89893212675E+03  0.00000000000E+00 0.  1.
          2    1    6    6  502    0  0.37754087664E+03  0.62897213802E+01 -0.21940149312E+02  0.37823014724E+03  0.00000000000E+00 0. -1.
          1    1    5    5  503    0 -0.35683087372E+00  0.22793987936E+02 -0.23958702682E+02  0.33071326681E+02  0.00000000000E+00 0. -1.
         -2    1    5    5    0  503  0.17761865094E+03  0.60757553984E+03 -0.21435012811E+03  0.66831309968E+03  0.00000000000E+00 0.  1.
         -1    1    6    6    0  502  0.29947597484E+03 -0.59974190514E+02  0.97742438308E+01  0.30557862962E+03  0.00000000000E+00 0.  1.
<mgrwt>
<rscale>  0 0.25137544E+04</rscale>
<asrwt>0</asrwt>
<pdfrwt beam="1">  1        2 0.17684968E+00 0.25137544E+04</pdfrwt>
<pdfrwt beam="2">  1       -2 0.21142421E+00 0.25137544E+04</pdfrwt>
<totfact> 0.20290417E+00</totfact>
</mgrwt>
</event>
<event>
12    1  0.1643011E-007  0.2289908E+04  0.7818608E-02  0.8481911E-01
         -2   -1    0    0    0  501 -0.00000000000E+00  0.00000000000E+00  0.80139129004E+03  0.80139129004E+03  0.00000000000E+00 0. -1.
          2   -1    0    0  501    0  0.00000000000E+00 -0.00000000000E+00 -0.16358045864E+04  0.16358045864E+04  0.00000000000E+00 0.  1.
         23    2    1    2    0    0 -0.27739301481E+03 -0.91681858877E+03 -0.48181158863E+03  0.10758951439E+04  0.88908629054E+02 0.  0.
        254    2    1    2    0    0  0.27739301481E+03  0.91681858877E+03 -0.35260170772E+03  0.13613007325E+04  0.90072665707E+03 0.  0.
        -24    2    4    4    0    0  0.50007716408E+03  0.90676163732E+03 -0.14885490602E+03  0.10491380910E+04  0.78988062297E+02 0.  0.
         24    2    4    4    0    0 -0.22268414927E+03  0.10056951452E+02 -0.20374680170E+03  0.31216264155E+03  0.79015080617E+02 0.  0.
         11    1    3    3    0    0 -0.24480168397E+03 -0.83389845383E+03 -0.40751554652E+03  0.95988718943E+03  0.00000000000E+00 0.  1.
        -11    1    3    3    0    0 -0.32591330832E+02 -0.82920134944E+02 -0.74296042108E+02  0.11600795446E+03  0.00000000000E+00 0. -1.
          2    1    6    6  502    0 -0.19151473531E+03  0.33611626806E+02 -0.14930024234E+03  0.24514933746E+03  0.00000000000E+00 0. -1.
          3    1    5    5  503    0  0.46300462894E+03  0.80396244503E+03 -0.15029046634E+03  0.93984898985E+03  0.00000000000E+00 0. -1.
         -4    1    5    5    0  503  0.37072535138E+02  0.10279919229E+03  0.14355603232E+01  0.10928910115E+03  0.00000000000E+00 0.  1.
         -1    1    6    6    0  502 -0.31169413965E+02 -0.23554675354E+02 -0.54446559360E+02  0.67013304082E+02  0.00000000000E+00 0.  1.
<mgrwt>
<rscale>  0 0.22899079E+04</rscale>
<asrwt>0</asrwt>
<pdfrwt beam="1">  1        2 0.25166224E+00 0.22899079E+04</pdfrwt>
<pdfrwt beam="2">  1       -2 0.12329097E+00 0.22899079E+04</pdfrwt>
<totfact> 0.47966015E+00</totfact>
</mgrwt>
</event>
<event>
12    1  0.1549527E-007  0.2651604E+04  0.7818608E-02  0.8350881E-01
         -2   -1    0    0    0  501 -0.00000000000E+00  0.00000000000E+00  0.38808869725E+03  0.38808869725E+03  0.00000000000E+00 0.  1.
          2   -1    0    0  501    0  0.00000000000E+00 -0.00000000000E+00 -0.45292507619E+04  0.45292507619E+04  0.00000000000E+00 0. -1.
         23    2    1    2    0    0 -0.81252288526E+03  0.83589527213E+03 -0.19913527753E+04  0.23092582281E+04  0.90957918913E+02 0.  0.
        254    2    1    2    0    0  0.81252288526E+03 -0.83589527213E+03 -0.21498092893E+04  0.26080812310E+04  0.90636272124E+03 0.  0.
        -24    2    4    4    0    0 -0.16196956386E+03 -0.16411179266E+03 -0.15997498756E+03  0.29147915078E+03  0.78748197333E+02 0.  0.
         24    2    4    4    0    0  0.97449244912E+03 -0.67178347946E+03 -0.19898343017E+04  0.23166020803E+04  0.79221672473E+02 0.  0.
         13    1    3    3    0    0 -0.32018850073E+02  0.42234270069E+02 -0.13093597560E+03  0.14125569028E+03  0.00000000000E+00 0. -1.
        -13    1    3    3    0    0 -0.78050403519E+03  0.79366100206E+03 -0.18604167997E+04  0.21680025378E+04  0.00000000000E+00 0.  1.
          2    1    6    6  502    0  0.16301891830E+03 -0.80562382531E+02 -0.32754122903E+03  0.37463144812E+03  0.00000000000E+00 0. -1.
          1    1    5    5  503    0 -0.10453003741E+03 -0.15179925630E+03 -0.11232365856E+03  0.21583824315E+03  0.00000000000E+00 0. -1.
         -2    1    5    5    0  503 -0.57439526450E+02 -0.12312536363E+02 -0.47651329006E+02  0.75640907626E+02  0.00000000000E+00 0.  1.
         -1    1    6    6    0  502  0.81147353082E+03 -0.59122109693E+03 -0.16622930727E+04  0.19419706321E+04  0.00000000000E+00 0.  1.
<mgrwt>
<rscale>  0 0.26516041E+04</rscale>
<asrwt>0</asrwt>
<pdfrwt beam="1">  1        2 0.69680780E+00 0.26516041E+04</pdfrwt>
<pdfrwt beam="2">  1       -2 0.59705954E-01 0.26516041E+04</pdfrwt>
<totfact> 0.26642149E-01</totfact>
</mgrwt>
</event>
<event>
12    1  0.1549527E-007  0.1389870E+04  0.7818608E-02  0.8961184E-01
          1   -1    0    0  501    0  0.00000000000E+00  0.00000000000E+00  0.68040051851E+03  0.68040051851E+03  0.00000000000E+00 0. -1.
         -1   -1    0    0    0  501 -0.00000000000E+00 -0.00000000000E+00 -0.70978034660E+03  0.70978034660E+03  0.00000000000E+00 0.  1.
         23    2    1    2    0    0 -0.38223168289E+03 -0.92156135856E+02 -0.55300646814E+02  0.40771519074E+03  0.92626683205E+02 0.  0.
        254    2    1    2    0    0  0.38223168289E+03  0.92156135856E+02  0.25920818726E+02  0.98246567438E+03  0.89998505528E+03 0.  0.
        -24    2    4    4    0    0  0.50707486730E+03  0.27335638075E+03  0.27273917057E+03  0.64243582251E+03  0.80551219326E+02 0.  0.
         24    2    4    4    0    0 -0.12484318441E+03 -0.18120024490E+03 -0.24681835185E+03  0.34002985188E+03  0.79256872979E+02 0.  0.
         11    1    3    3    0    0 -0.33248967562E+03 -0.54906595207E+02 -0.69228709682E+02  0.34403013361E+03  0.00000000000E+00 0.  1.
        -11    1    3    3    0    0 -0.49742007268E+02 -0.37249540648E+02  0.13928062867E+02  0.63685057123E+02  0.00000000000E+00 0. -1.
          2    1    6    6  502    0 -0.61035323567E+02 -0.14056936041E+03 -0.13053603561E+03  0.20130750707E+03  0.00000000000E+00 0. -1.
          3    1    5    5  503    0  0.39919784516E+03  0.24916423298E+03  0.23151759382E+03  0.52444459272E+03  0.00000000000E+00 0. -1.
         -4    1    5    5    0  503  0.10787702213E+03  0.24192147773E+02  0.41221576748E+02  0.11799122979E+03  0.00000000000E+00 0.  1.
         -1    1    6    6    0  502 -0.63807860844E+02 -0.40630884485E+02 -0.11628231624E+03  0.13872234481E+03  0.00000000000E+00 0.  1.
<mgrwt>
<rscale>  0 0.13898704E+04</rscale>
<asrwt>0</asrwt>
<pdfrwt beam="1">  1        1 0.10467700E+00 0.13898704E+04</pdfrwt>
<pdfrwt beam="2">  1       -1 0.10919698E+00 0.13898704E+04</pdfrwt>
<totfact> 0.21561702E+01</totfact>
</mgrwt>
</event>
<event>
12    1  0.1549527E-007  0.2344729E+04  0.7818608E-02  0.8460491E-01
         -3   -1    0    0    0  501 -0.00000000000E+00  0.00000000000E+00  0.14160282448E+04  0.14160282448E+04  0.00000000000E+00 0.  1.
          3   -1    0    0  501    0  0.00000000000E+00 -0.00000000000E+00 -0.97062945383E+03  0.97062945383E+03  0.00000000000E+00 0. -1.
         23    2    1    2    0    0 -0.65694419875E+03 -0.58670178482E+03 -0.27826023641E+03  0.92807585220E+03  0.90007575757E+02 0.  0.
        254    2    1    2    0    0  0.65694419875E+03  0.58670178482E+03  0.72365902741E+03  0.14585818465E+04  0.90993623418E+03 0.  0.
        -24    2    4    4    0    0  0.45432404847E+03  0.43363954711E+03  0.92765906339E+03  0.11231813156E+04  0.80816656636E+02 0.  0.
         24    2    4    4    0    0  0.20262015028E+03  0.15306223771E+03 -0.20400003598E+03  0.33540053085E+03  0.79965789589E+02 0.  0.
         11    1    3    3    0    0 -0.51195611618E+03 -0.41824412370E+03 -0.23526291498E+03  0.70169498435E+03  0.00000000000E+00 0. -1.
        -11    1    3    3    0    0 -0.14498808257E+03 -0.16845766113E+03 -0.42997321429E+02  0.22638086785E+03  0.00000000000E+00 0.  1.
          4    1    6    6  502    0  0.13664912298E+03  0.14363207142E+03 -0.16675836567E+03  0.25905888766E+03  0.00000000000E+00 0. -1.
          3    1    5    5  503    0  0.45495814526E+03  0.41953577137E+03  0.90196086618E+03  0.10938604031E+04  0.00000000000E+00 0. -1.
         -4    1    5    5    0  503 -0.63409678671E+00  0.14103775738E+02  0.25698197212E+02  0.29320912482E+02  0.00000000000E+00 0.  1.
         -3    1    6    6    0  502  0.65971027292E+02  0.94301662901E+01 -0.37241670313E+02  0.76341643197E+02  0.00000000000E+00 0.  1.
<mgrwt>
<rscale>  0 0.23447292E+04</rscale>
<asrwt>0</asrwt>
<pdfrwt beam="1">  1        3 0.14932761E+00 0.23447292E+04</pdfrwt>
<pdfrwt beam="2">  1       -3 0.21785050E+00 0.23447292E+04</pdfrwt>
<totfact> 0.87446063E-02</totfact>
</mgrwt>
</event>
<event>
12    1  0.1549527E-007  0.1332588E+04  0.7818608E-02  0.9004114E-01
          2   -1    0    0  501    0  0.00000000000E+00  0.00000000000E+00  0.92635666482E+03  0.92635666482E+03  0.00000000000E+00 0. -1.
         -2   -1    0    0    0  501 -0.00000000000E+00 -0.00000000000E+00 -0.47924080950E+03  0.47924080950E+03  0.00000000000E+00 0.  1.
         23    2    1    2    0    0  0.23899888431E+03  0.27440814481E+03  0.17660752604E+03  0.41485125682E+03  0.92146895704E+02 0.  0.
        254    2    1    2    0    0 -0.23899888431E+03 -0.27440814481E+03  0.27050832928E+03  0.99074621751E+03  0.88089898096E+03 0.  0.
        -24    2    4    4    0    0 -0.31635912963E+03 -0.21742677075E+03  0.55534497461E+03  0.67990733248E+03  0.80674905621E+02 0.  0.
         24    2    4    4    0    0  0.77360245318E+02 -0.56981374062E+02 -0.28483664532E+03  0.31083888503E+03  0.79103813947E+02 0.  0.
         13    1    3    3    0    0  0.11253036103E+03  0.15573810998E+03  0.45525004747E+02  0.19745877319E+03  0.00000000000E+00 0.  1.
        -13    1    3    3    0    0  0.12646852329E+03  0.11867003483E+03  0.13108252129E+03  0.21739248363E+03  0.00000000000E+00 0. -1.
          2    1    6    6  502    0  0.85800623884E+02 -0.68535792287E+02 -0.25869497684E+03  0.28103735148E+03  0.00000000000E+00 0. -1.
          1    1    5    5  503    0 -0.24520470893E+03 -0.18869497112E+03  0.39166111780E+03  0.49912881364E+03  0.00000000000E+00 0. -1.
         -2    1    5    5    0  503 -0.71154420703E+02 -0.28731799631E+02  0.16368385680E+03  0.18077851884E+03  0.00000000000E+00 0.  1.
         -1    1    6    6    0  502 -0.84403785664E+01  0.11554418225E+02 -0.26141668482E+02  0.29801533549E+02  0.00000000000E+00 0.  1.
<mgrwt>
<rscale>  0 0.13325883E+04</rscale>
<asrwt>0</asrwt>
<pdfrwt beam="1">  1        2 0.14251641E+00 0.13325883E+04</pdfrwt>
<pdfrwt beam="2">  1       -2 0.73729355E-01 0.13325883E+04</pdfrwt>
<totfact> 0.45668054E+01</totfact>
</mgrwt>
</event>
<event>
12    1  0.1549527E-007  0.1747646E+04  0.7818608E-02  0.8734647E-01
         -2   -1    0    0    0  501 -0.00000000000E+00  0.00000000000E+00  0.36569396084E+03  0.36569396084E+03  0.00000000000E+00 0. -1.
          2   -1    0    0  501    0  0.00000000000E+00 -0.00000000000E+00 -0.20879932693E+04  0.20879932693E+04  0.00000000000E+00 0.  1.
         23    2    1    2    0    0 -0.89602546937E+02  0.60766940423E+03 -0.86768262878E+03  0.10672897461E+04  0.94570272802E+02 0.  0.
        254    2    1    2    0    0  0.89602546937E+02 -0.60766940423E+03 -0.85461667966E+03  0.13863974841E+04  0.90246196230E+03 0.  0.
        -24    2    4    4    0    0  0.43099830690E+03 -0.64183817494E+02 -0.38257000440E+03  0.58538547479E+03  0.80232430111E+02 0.  0.
         24    2    4    4    0    0 -0.34139575996E+03 -0.54348558674E+03 -0.47204667526E+03  0.80101200928E+03  0.82852443960E+02 0.  0.
         11    1    3    3    0    0 -0.58328055551E+02  0.42900553238E+03 -0.53366194005E+03  0.68719937073E+03  0.00000000000E+00 0. -1.
        -11    1    3    3    0    0 -0.31274491387E+02  0.17866387185E+03 -0.33402068872E+03  0.38009037532E+03  0.00000000000E+00 0.  1.
          4    1    6    6  502    0 -0.92869064469E+02 -0.22121683763E+03 -0.16428206684E+03  0.29077508469E+03  0.00000000000E+00 0. -1.
          1    1    5    5  503    0  0.90469102837E+02  0.19011781669E+02 -0.75190795572E+02  0.11916275487E+03  0.00000000000E+00 0. -1.
         -2    1    5    5    0  503  0.34052920406E+03 -0.83195599163E+02 -0.30737920883E+03  0.46622271991E+03  0.00000000000E+00 0.  1.
         -3    1    6    6    0  502 -0.24852669549E+03 -0.32226874910E+03 -0.30776460841E+03  0.51023692459E+03  0.00000000000E+00 0.  1.
<mgrwt>
<rscale>  0 0.17476459E+04</rscale>
<asrwt>0</asrwt>
<pdfrwt beam="1">  1        2 0.32122973E+00 0.17476459E+04</pdfrwt>
<pdfrwt beam="2">  1       -2 0.56260609E-01 0.17476459E+04</pdfrwt>
<totfact> 0.16778464E+01</totfact>
</mgrwt>
</event>
<event>
12    1  0.1549527E-007  0.1449777E+04  0.7818608E-02  0.8918555E-01
          2   -1    0    0  501    0  0.00000000000E+00  0.00000000000E+00  0.11326378191E+04  0.11326378191E+04  0.00000000000E+00 0.  1.
         -2   -1    0    0    0  501 -0.00000000000E+00 -0.00000000000E+00 -0.46392898267E+03  0.46392898267E+03  0.00000000000E+00 0. -1.
         23    2    1    2    0    0  0.36482549964E+03  0.14821244661E+03  0.15942731864E+02  0.40448599573E+03  0.91050401005E+02 0.  0.
        254    2    1    2    0    0 -0.36482549964E+03 -0.14821244661E+03  0.65276610456E+03  0.11920808060E+04  0.91645430127E+03 0.  0.
        -24    2    4    4    0    0  0.18483050535E+02 -0.40450417686E+03  0.32871416668E+02  0.41562759395E+03  0.87752575832E+02 0.  0.
         24    2    4    4    0    0 -0.38330855018E+03  0.25629173025E+03  0.61989468789E+03  0.77645321207E+03  0.77454960005E+02 0.  0.
         13    1    3    3    0    0  0.31269121629E+03  0.14162031092E+03 -0.14834263818E+02  0.34358720086E+03  0.00000000000E+00 0. -1.
        -13    1    3    3    0    0  0.52134283353E+02  0.65921356861E+01  0.30776995682E+02  0.60898794872E+02  0.00000000000E+00 0.  1.
          4    1    6    6  502    0 -0.35807272776E+03  0.24277860140E+03  0.54212745135E+03  0.69358467484E+03  0.00000000000E+00 0. -1.
          1    1    5    5  503    0  0.34745369284E+02 -0.60026534083E+02  0.19798275765E+01  0.69385482617E+02  0.00000000000E+00 0. -1.
         -2    1    5    5    0  503 -0.16262318749E+02 -0.34447764278E+03  0.30891589092E+02  0.34624211134E+03  0.00000000000E+00 0.  1.
         -3    1    6    6    0  502 -0.25235822416E+02  0.13513128857E+02  0.77767236539E+02  0.82868537235E+02  0.00000000000E+00 0.  1.
<mgrwt>
<rscale>  0 0.14497772E+04</rscale>
<asrwt>0</asrwt>
<pdfrwt beam="1">  1        2 0.17425197E+00 0.14497772E+04</pdfrwt>
<pdfrwt beam="2">  1       -2 0.71373690E-01 0.14497772E+04</pdfrwt>
<totfact> 0.35944583E+01</totfact>
</mgrwt>
</event>
<event>
12    1  0.1549527E-007  0.2241370E+04  0.7818608E-02  0.8501404E-01
          3   -1    0    0  501    0  0.00000000000E+00  0.00000000000E+00  0.10642913350E+04  0.10642913350E+04  0.00000000000E+00 0. -1.
         -3   -1    0    0    0  501 -0.00000000000E+00 -0.00000000000E+00 -0.11800663940E+04  0.11800663940E+04  0.00000000000E+00 0.  1.
         23    2    1    2    0    0 -0.36935190684E+03  0.79617377695E+03  0.27981431381E+03  0.92602014730E+03  0.94359677863E+02 0.  0.
        254    2    1    2    0    0  0.36935190684E+03 -0.79617377695E+03 -0.39558937282E+03  0.13183375818E+04  0.90067170128E+03 0.  0.
        -24    2    4    4    0    0 -0.95239187908E+02 -0.77450093765E+03 -0.28086673190E+03  0.83338249929E+03  0.81963795102E+02 0.  0.
         24    2    4    4    0    0  0.46459109474E+03 -0.21672839295E+02 -0.11472264092E+03  0.48495508249E+03  0.75535093936E+02 0.  0.
         11    1    3    3    0    0 -0.23061087416E+03  0.46223960580E+03  0.21057016589E+03  0.55784103758E+03  0.00000000000E+00 0.  1.
        -11    1    3    3    0    0 -0.13874103268E+03  0.33393417115E+03  0.69244147923E+02  0.36817910972E+03  0.00000000000E+00 0. -1.
          2    1    6    6  502    0  0.29361731296E+03  0.22528266599E+02 -0.66524619492E+02  0.30190093452E+03  0.00000000000E+00 0. -1.
          3    1    5    5  503    0 -0.96216734733E+02 -0.77646612706E+03 -0.28044251016E+03  0.83114698340E+03  0.00000000000E+00 0. -1.
         -2    1    5    5    0  503  0.97754682573E+00  0.19651894107E+01 -0.42422174361E+00  0.22355158922E+01  0.00000000000E+00 0.  1.
         -1    1    6    6    0  502  0.17097378179E+03 -0.44201105894E+02 -0.48198021426E+02  0.18305414797E+03  0.00000000000E+00 0.  1.
<mgrwt>
<rscale>  0 0.22413696E+04</rscale>
<asrwt>0</asrwt>
<pdfrwt beam="1">  1        3 0.16373713E+00 0.22413696E+04</pdfrwt>
<pdfrwt beam="2">  1       -3 0.18154867E+00 0.22413696E+04</pdfrwt>
<totfact> 0.11784323E-01</totfact>
</mgrwt>
</event>
<event>
12    1  0.1549527E-007  0.1925658E+04  0.7818608E-02  0.8642189E-01
         -2   -1    0    0    0  501 -0.00000000000E+00  0.00000000000E+00  0.33041630714E+03  0.33041630714E+03  0.00000000000E+00 0.  1.
          2   -1    0    0  501    0  0.00000000000E+00 -0.00000000000E+00 -0.28056711268E+04  0.28056711268E+04  0.00000000000E+00 0. -1.
         23    2    1    2    0    0  0.59878727706E+03  0.31433006383E+03 -0.45660838981E+03  0.82139657909E+03  0.94082550429E+02 0.  0.
        254    2    1    2    0    0 -0.59878727706E+03 -0.31433006383E+03 -0.20186464298E+04  0.23146908548E+04  0.90857622278E+03 0.  0.
        -24    2    4    4    0    0 -0.52713008978E+03 -0.12956031908E+03 -0.39327911888E+03  0.67519847597E+03  0.81071010711E+02 0.  0.
         24    2    4    4    0    0 -0.71657187284E+02 -0.18476974475E+03 -0.16253673110E+04  0.16394923789E+04  0.82714894617E+02 0.  0.
         13    1    3    3    0    0  0.23157752474E+03  0.92340419360E+02 -0.12374173426E+03  0.27832879803E+03  0.00000000000E+00 0.  1.
        -13    1    3    3    0    0  0.36720975232E+03  0.22198964447E+03 -0.33286665555E+03  0.54306778106E+03  0.00000000000E+00 0. -1.
          4    1    6    6  502    0 -0.87291008253E+02 -0.16467943482E+03 -0.15024513841E+04  0.15139680307E+04  0.00000000000E+00 0. -1.
          3    1    5    5  503    0 -0.49082092044E+03 -0.11656998779E+03 -0.33592402763E+03  0.60608472208E+03  0.00000000000E+00 0. -1.
         -4    1    5    5    0  503 -0.36309169332E+02 -0.12990331290E+02 -0.57355091249E+02  0.69113753890E+02  0.00000000000E+00 0.  1.
         -3    1    6    6    0  502  0.15633820969E+02 -0.20090309934E+02 -0.12291592689E+03  0.12552434821E+03  0.00000000000E+00 0.  1.
<mgrwt>
<rscale>  0 0.19256578E+04</rscale>
<asrwt>0</asrwt>
<pdfrwt beam="1">  1        2 0.43164170E+00 0.19256578E+04</pdfrwt>
<pdfrwt beam="2">  1       -2 0.50833279E-01 0.19256578E+04</pdfrwt>
<totfact> 0.78593561E+00</totfact>
</mgrwt>
</event>
<event>
12    1  0.1549527E-007  0.1803202E+04  0.7818608E-02  0.8704599E-01
          3   -1    0    0  501    0  0.00000000000E+00  0.00000000000E+00  0.11857606400E+04  0.11857606400E+04  0.00000000000E+00 0. -1.
         -3   -1    0    0    0  501 -0.00000000000E+00 -0.00000000000E+00 -0.68553824096E+03  0.68553824096E+03  0.00000000000E+00 0.  1.
         23    2    1    2    0    0 -0.40029772451E+03  0.48630037555E+03  0.43775068440E+03  0.77236337658E+03  0.90516298449E+02 0.  0.
        254    2    1    2    0    0  0.40029772451E+03 -0.48630037555E+03  0.62471714656E+02  0.10989355044E+04  0.89834859836E+03 0.  0.
        -24    2    4    4    0    0  0.52590189467E+03 -0.55050719937E+03  0.29064142133E+03  0.81900676872E+03  0.81661937558E+02 0.  0.
         24    2    4    4    0    0 -0.12560417016E+03  0.64206823825E+02 -0.22816970667E+03  0.27992873567E+03  0.79998488871E+02 0.  0.
         11    1    3    3    0    0  0.42431268963E+01  0.63555757306E+01  0.10780044531E+01  0.77174841967E+01  0.00000000000E+00 0.  1.
        -11    1    3    3    0    0 -0.40454085141E+03  0.47994479982E+03  0.43667267994E+03  0.76464589238E+03  0.00000000000E+00 0. -1.
          4    1    6    6  502    0 -0.11882044358E+03  0.71651498512E+02 -0.16332516209E+03  0.21430665791E+03  0.00000000000E+00 0. -1.
          1    1    5    5  503    0  0.35379360145E+03 -0.42235916462E+03  0.20150993090E+03  0.58665443714E+03  0.00000000000E+00 0. -1.
         -2    1    5    5    0  503  0.17210829322E+03 -0.12814803475E+03  0.89131490425E+02  0.23235233158E+03  0.00000000000E+00 0.  1.
         -3    1    6    6    0  502 -0.67837265827E+01 -0.74446746869E+01 -0.64844544582E+02  0.65622077761E+02  0.00000000000E+00 0.  1.
<mgrwt>
<rscale>  0 0.18032019E+04</rscale>
<asrwt>0</asrwt>
<pdfrwt beam="1">  1        3 0.18242471E+00 0.18032019E+04</pdfrwt>
<pdfrwt beam="2">  1       -3 0.10546742E+00 0.18032019E+04</pdfrwt>
<totfact> 0.36407962E-01</totfact>
</mgrwt>
</event>
<event>
12    1  0.1549527E-007  0.2326474E+04  0.7818608E-02  0.8467555E-01
          1   -1    0    0  501    0  0.00000000000E+00  0.00000000000E+00  0.75576498185E+03  0.75576498185E+03  0.00000000000E+00 0. -1.
         -1   -1    0    0    0  501 -0.00000000000E+00 -0.00000000000E+00 -0.17903985812E+04  0.17903985812E+04  0.00000000000E+00 0.  1.
         23    2    1    2    0    0  0.13272651943E+03 -0.20003949020E+03  0.60653042029E+03  0.66022436959E+03  0.10190653009E+03 0.  0.
        254    2    1    2    0    0 -0.13272651943E+03  0.20003949020E+03 -0.16411640196E+04  0.18859391934E+04  0.89761638545E+03 0.  0.
        -24    2    4    4    0    0  0.32135894073E+03  0.21704783992E+03 -0.40989819932E+03  0.57107013186E+03  0.87881898579E+02 0.  0.
         24    2    4    4    0    0 -0.45408546016E+03 -0.17008349721E+02 -0.12312658203E+04  0.13148690616E+04  0.79888921315E+02 0.  0.
         13    1    3    3    0    0  0.11537593317E+03 -0.21067689361E+03  0.56641468518E+03  0.61524137950E+03  0.00000000000E+00 0. -1.
        -13    1    3    3    0    0  0.17350586255E+02  0.10637403418E+02  0.40115735107E+02  0.44982990097E+02  0.00000000000E+00 0.  1.
          2    1    6    6  502    0 -0.27303433655E+03  0.28949700416E+02 -0.72750637416E+03  0.77759331179E+03  0.00000000000E+00 0. -1.
          3    1    5    5  503    0 -0.43198956032E+01  0.11668506509E+02 -0.15736355461E+02  0.20061117252E+02  0.00000000000E+00 0. -1.
         -4    1    5    5    0  503  0.32567883633E+03  0.20537933341E+03 -0.39416184385E+03  0.55100901461E+03  0.00000000000E+00 0.  1.
         -1    1    6    6    0  502 -0.18105112361E+03 -0.45958050137E+02 -0.50375944613E+03  0.53727574978E+03  0.00000000000E+00 0.  1.
<mgrwt>
<rscale>  0 0.23264742E+04</rscale>
<asrwt>0</asrwt>
<pdfrwt beam="1">  1        1 0.11627154E+00 0.23264742E+04</pdfrwt>
<pdfrwt beam="2">  1       -1 0.27544593E+00 0.23264742E+04</pdfrwt>
<totfact> 0.10396723E+00</totfact>
</mgrwt>
</event>
<event>
12    1  0.1549527E-007  0.1878088E+04  0.7818608E-02  0.8665841E-01
          2   -1    0    0  501    0  0.00000000000E+00  0.00000000000E+00  0.81309266458E+03  0.81309266458E+03  0.00000000000E+00 0.  1.
         -2   -1    0    0    0  501 -0.00000000000E+00 -0.00000000000E+00 -0.10845053839E+04  0.10845053839E+04  0.00000000000E+00 0. -1.
         23    2    1    2    0    0 -0.69431660885E+03 -0.95275995443E+02 -0.23652443083E+03  0.74511251168E+03  0.89976552736E+02 0.  0.
        254    2    1    2    0    0  0.69431660885E+03  0.95275995443E+02 -0.34888288529E+02  0.11524855368E+04  0.91424977513E+03 0.  0.
        -24    2    4    4    0    0  0.56641492925E+03 -0.19020830091E+03  0.31144656283E+03  0.67871399669E+03  0.81539303368E+02 0.  0.
         24    2    4    4    0    0  0.12790167960E+03  0.28548429635E+03 -0.34633485136E+03  0.47377154015E+03  0.81556850601E+02 0.  0.
         11    1    3    3    0    0 -0.67173979131E+03 -0.78475100404E+02 -0.23791678555E+03  0.71693590052E+03  0.00000000000E+00 0.  1.
        -11    1    3    3    0    0 -0.22576817542E+02 -0.16800895039E+02  0.13923547195E+01  0.28176611153E+02  0.00000000000E+00 0. -1.
          4    1    6    6  502    0  0.12486783929E+03  0.20956972012E+03 -0.23311351039E+03  0.33742162587E+03  0.00000000000E+00 0. -1.
          1    1    5    5  503    0  0.13959305946E+03 -0.80213547562E+02  0.10314309439E+03  0.19120390525E+03  0.00000000000E+00 0. -1.
         -2    1    5    5    0  503  0.42682186979E+03 -0.10999475335E+03  0.20830346845E+03  0.48751009145E+03  0.00000000000E+00 0.  1.
         -3    1    6    6    0  502  0.30338403075E+01  0.75914576232E+02 -0.11322134098E+03  0.13634991428E+03  0.00000000000E+00 0.  1.
<mgrwt>
<rscale>  0 0.18780877E+04</rscale>
<asrwt>0</asrwt>
<pdfrwt beam="1">  1        2 0.12509118E+00 0.18780877E+04</pdfrwt>
<pdfrwt beam="2">  1       -2 0.16684698E+00 0.18780877E+04</pdfrwt>
<totfact> 0.70964295E+00</totfact>
</mgrwt>
</event>
<event>
12    1  0.1682662E-007  0.1472395E+04  0.7818608E-02  0.8903020E-01
          1   -1    0    0  501    0  0.00000000000E+00  0.00000000000E+00  0.62760440622E+03  0.62760440622E+03  0.00000000000E+00 0. -1.
         -1   -1    0    0    0  501 -0.00000000000E+00 -0.00000000000E+00 -0.86358073914E+03  0.86358073914E+03  0.00000000000E+00 0.  1.
         23    2    1    2    0    0 -0.30560867303E+03 -0.20870665458E+03 -0.33758578059E+03  0.50875773468E+03  0.88967098649E+02 0.  0.
        254    2    1    2    0    0  0.30560867303E+03  0.20870665458E+03  0.10160944768E+03  0.98242741068E+03  0.90436939836E+03 0.  0.
        -24    2    4    4    0    0 -0.22992615946E+03  0.33099485160E+03  0.11619035956E+03  0.42714040001E+03  0.80778035852E+02 0.  0.
         24    2    4    4    0    0  0.53553483249E+03 -0.12228819702E+03 -0.14580911876E+02  0.55528701066E+03  0.79869276201E+02 0.  0.
         13    1    3    3    0    0 -0.10031262105E+02  0.69351272104E+01 -0.21438063438E+01  0.12382169215E+02  0.00000000000E+00 0. -1.
        -13    1    3    3    0    0 -0.29557741092E+03 -0.21564178179E+03 -0.33544197425E+03  0.49637556547E+03  0.00000000000E+00 0.  1.
          4    1    6    6  502    0  0.53680009835E+03 -0.12208135206E+03 -0.10071981062E+02  0.55059935244E+03  0.00000000000E+00 0. -1.
          1    1    5    5  503    0 -0.23049294912E+03  0.30350833953E+03  0.11960526853E+03  0.39943676849E+03  0.00000000000E+00 0. -1.
         -2    1    5    5    0  503  0.56678966166E+00  0.27486512075E+02 -0.34149089670E+01  0.27703631528E+02  0.00000000000E+00 0.  1.
         -3    1    6    6    0  502 -0.12652658571E+01 -0.20684495981E+00 -0.45089308144E+01  0.46876582230E+01  0.00000000000E+00 0.  1.
<mgrwt>
<rscale>  0 0.14723954E+04</rscale>
<asrwt>0</asrwt>
<pdfrwt beam="1">  1        1 0.96554524E-01 0.14723954E+04</pdfrwt>
<pdfrwt beam="2">  1       -1 0.13285857E+00 0.14723954E+04</pdfrwt>
<totfact> 0.14925928E+01</totfact>
</mgrwt>
</event>
<event>
12    1  0.1549527E-007  0.3638180E+04  0.7818608E-02  0.8081802E-01
         -2   -1    0    0    0  501 -0.00000000000E+00  0.00000000000E+00  0.10852294782E+04  0.10852294782E+04  0.00000000000E+00 0.  1.
          2   -1    0    0  501    0  0.00000000000E+00 -0.00000000000E+00 -0.30492068203E+04  0.30492068203E+04  0.00000000000E+00 0. -1.
         23    2    1    2    0    0  0.13900638309E+04  0.94729262163E+03 -0.12272303416E+04  0.20841831712E+04  0.89913372404E+02 0.  0.
        254    2    1    2    0    0 -0.13900638309E+04 -0.94729262163E+03 -0.73674700042E+03  0.20502531274E+04  0.91164739819E+03 0.  0.
        -24    2    4    4    0    0 -0.11309091031E+04 -0.96131221949E+03 -0.89611806620E+03  0.17357059775E+04  0.81062129934E+02 0.  0.
         24    2    4    4    0    0 -0.25915472783E+03  0.14019597863E+02  0.15937106578E+03  0.31454714988E+03  0.78632377609E+02 0.  0.
         13    1    3    3    0    0  0.72685054195E+03  0.46517073903E+03 -0.58300021130E+03  0.10414339985E+04  0.00000000000E+00 0. -1.
        -13    1    3    3    0    0  0.66321328898E+03  0.48212188260E+03 -0.64423013035E+03  0.10427491727E+04  0.00000000000E+00 0.  1.
          4    1    6    6  502    0 -0.21839637239E+03  0.18621930982E+02  0.16331379519E+03  0.27334071684E+03  0.00000000000E+00 0. -1.
          1    1    5    5  503    0 -0.70914911246E+03 -0.57058548860E+03 -0.58513663458E+03  0.10820559804E+04  0.00000000000E+00 0. -1.
         -2    1    5    5    0  503 -0.42175999064E+03 -0.39072673089E+03 -0.31098143162E+03  0.65364999713E+03  0.00000000000E+00 0.  1.
         -3    1    6    6    0  502 -0.40758355445E+02 -0.46023331194E+01 -0.39427294048E+01  0.41206433040E+02  0.00000000000E+00 0.  1.
<mgrwt>
<rscale>  0 0.36381804E+04</rscale>
<asrwt>0</asrwt>
<pdfrwt beam="1">  1        2 0.46910873E+00 0.36381804E+04</pdfrwt>
<pdfrwt beam="2">  1       -2 0.16695838E+00 0.36381804E+04</pdfrwt>
<totfact> 0.29494318E-01</totfact>
</mgrwt>
</event>
<event>
12    1  0.1549527E-007  0.2854824E+04  0.7818608E-02  0.8286447E-01
         -2   -1    0    0    0  501 -0.00000000000E+00  0.00000000000E+00  0.70643969076E+03  0.70643969076E+03  0.00000000000E+00 0. -1.
          2   -1    0    0  501    0  0.00000000000E+00 -0.00000000000E+00 -0.28841872844E+04  0.28841872844E+04  0.00000000000E+00 0.  1.
         23    2    1    2    0    0 -0.43783824739E+03  0.10769069338E+04 -0.18194665172E+04  0.21611512592E+04  0.93195938574E+02 0.  0.
        254    2    1    2    0    0  0.43783824739E+03 -0.10769069338E+04 -0.35828107650E+03  0.14294757160E+04  0.75073605069E+03 0.  0.
        -24    2    4    4    0    0 -0.15351114666E+03 -0.80566336988E+02 -0.16171977797E+03  0.25185477773E+03  0.84976088836E+02 0.  0.
         24    2    4    4    0    0  0.59134939406E+03 -0.99634059685E+03 -0.19656129852E+03  0.11776209383E+04  0.75934441233E+02 0.  0.
         13    1    3    3    0    0 -0.37714349631E+03  0.89390259483E+03 -0.15743575937E+04  0.18492974067E+04  0.00000000000E+00 0.  1.
        -13    1    3    3    0    0 -0.60694751088E+02  0.18300433901E+03 -0.24510892352E+03  0.31185385246E+03  0.00000000000E+00 0. -1.
          2    1    6    6  502    0  0.87068579065E+02 -0.15601480758E+03 -0.58034652539E+02  0.18785520632E+03  0.00000000000E+00 0. -1.
          3    1    5    5  503    0 -0.25683362903E+02 -0.30810657242E+02 -0.86656315069E+02  0.95489521263E+02  0.00000000000E+00 0. -1.
         -4    1    5    5    0  503 -0.12782778376E+03 -0.49755679746E+02 -0.75063462904E+02  0.15636525647E+03  0.00000000000E+00 0.  1.
         -1    1    6    6    0  502  0.50428081499E+03 -0.84032578927E+03 -0.13852664598E+03  0.98976573194E+03  0.00000000000E+00 0.  1.
<mgrwt>
<rscale>  0 0.28548235E+04</rscale>
<asrwt>0</asrwt>
<pdfrwt beam="1">  1        2 0.44372113E+00 0.28548235E+04</pdfrwt>
<pdfrwt beam="2">  1       -2 0.10868303E+00 0.28548235E+04</pdfrwt>
<totfact> 0.12034285E+00</totfact>
</mgrwt>
</event>
<event>
12    1  0.1549527E-007  0.1593588E+04  0.7818608E-02  0.8824497E-01
         -2   -1    0    0    0  501 -0.00000000000E+00  0.00000000000E+00  0.77240327161E+03  0.77240327161E+03  0.00000000000E+00 0.  1.
          2   -1    0    0  501    0  0.00000000000E+00 -0.00000000000E+00 -0.82195493000E+03  0.82195493000E+03  0.00000000000E+00 0. -1.
         23    2    1    2    0    0  0.17502687932E+02  0.38023711125E+03  0.35907920546E+03  0.53064767256E+03  0.88104890577E+02 0.  0.
        254    2    1    2    0    0 -0.17502687932E+02 -0.38023711125E+03 -0.40863086385E+03  0.10637105291E+04  0.90532552260E+03 0.  0.
        -24    2    4    4    0    0  0.66769848837E+02 -0.71525787069E+02 -0.64609230245E+03  0.65719147244E+03  0.69937237767E+02 0.  0.
         24    2    4    4    0    0 -0.84272536769E+02 -0.30871132418E+03  0.23746143860E+03  0.40651905662E+03  0.80406880574E+02 0.  0.
         13    1    3    3    0    0  0.12647640735E+02  0.32889968800E+01  0.70008251463E+01  0.14825379232E+02  0.00000000000E+00 0. -1.
        -13    1    3    3    0    0  0.48550471970E+01  0.37694811437E+03  0.35207838031E+03  0.51582229332E+03  0.00000000000E+00 0.  1.
          2    1    6    6  502    0 -0.18828051629E+02 -0.17623310903E+03  0.94218372505E+02  0.20072295824E+03  0.00000000000E+00 0. -1.
          1    1    5    5  503    0  0.74624517848E+01 -0.37032369789E+02 -0.39794987094E+03  0.39973889525E+03  0.00000000000E+00 0. -1.
         -2    1    5    5    0  503  0.59307397052E+02 -0.34493417280E+02 -0.24814243151E+03  0.25745257718E+03  0.00000000000E+00 0.  1.
         -1    1    6    6    0  502 -0.65444485140E+02 -0.13247821514E+03  0.14324306610E+03  0.20579609838E+03  0.00000000000E+00 0.  1.
<mgrwt>
<rscale>  0 0.15935880E+04</rscale>
<asrwt>0</asrwt>
<pdfrwt beam="1">  1        2 0.12645460E+00 0.15935880E+04</pdfrwt>
<pdfrwt beam="2">  1       -2 0.11883127E+00 0.15935880E+04</pdfrwt>
<totfact> 0.17338912E+01</totfact>
</mgrwt>
</event>
<event>
12    1  0.1549527E-007  0.2591950E+04  0.7818608E-02  0.8370941E-01
         -2   -1    0    0    0  501 -0.00000000000E+00  0.00000000000E+00  0.63315930772E+03  0.63315930772E+03  0.00000000000E+00 0.  1.
          2   -1    0    0  501    0  0.00000000000E+00 -0.00000000000E+00 -0.26526517183E+04  0.26526517183E+04  0.00000000000E+00 0. -1.
         23    2    1    2    0    0 -0.63374093793E+03  0.94915668828E+03 -0.86672172918E+03  0.14359794743E+04  0.91129025728E+02 0.  0.
        254    2    1    2    0    0  0.63374093793E+03 -0.94915668828E+03 -0.11527706814E+04  0.18498315518E+04  0.88908409656E+03 0.  0.
        -24    2    4    4    0    0  0.57804260042E+03 -0.72178473353E+03 -0.12716071836E+04  0.15745594856E+04  0.84535761490E+02 0.  0.
         24    2    4    4    0    0  0.55698337514E+02 -0.22737195475E+03  0.11883650213E+03  0.27527206619E+03  0.82778533303E+02 0.  0.
         13    1    3    3    0    0 -0.60302783616E+03  0.90144652052E+03 -0.79601547706E+03  0.13453211662E+04  0.00000000000E+00 0.  1.
        -13    1    3    3    0    0 -0.30713101770E+02  0.47710167760E+02 -0.70706252118E+02  0.90658308040E+02  0.00000000000E+00 0. -1.
          2    1    6    6  502    0  0.56896584765E+02 -0.20820613044E+03  0.76868981995E+02  0.22911973836E+03  0.00000000000E+00 0. -1.
          1    1    5    5  503    0  0.32372934571E+03 -0.35226909026E+03 -0.70201603004E+03  0.84954146906E+03  0.00000000000E+00 0. -1.
         -2    1    5    5    0  503  0.25431325471E+03 -0.36951564326E+03 -0.56959115354E+03  0.72501801655E+03  0.00000000000E+00 0.  1.
         -1    1    6    6    0  502 -0.11982472515E+01 -0.19165824313E+02  0.41967520140E+02  0.46152327836E+02  0.00000000000E+00 0.  1.
<mgrwt>
<rscale>  0 0.25919499E+04</rscale>
<asrwt>0</asrwt>
<pdfrwt beam="1">  1        2 0.40810026E+00 0.25919499E+04</pdfrwt>
<pdfrwt beam="2">  1       -2 0.97409124E-01 0.25919499E+04</pdfrwt>
<totfact> 0.22034403E+00</totfact>
</mgrwt>
</event>
<event>
12    1  0.1549527E-007  0.1637049E+04  0.7818608E-02  0.8798105E-01
          1   -1    0    0  501    0  0.00000000000E+00  0.00000000000E+00  0.93580598730E+03  0.93580598730E+03  0.00000000000E+00 0.  1.
         -1   -1    0    0    0  501 -0.00000000000E+00 -0.00000000000E+00 -0.71594121752E+03  0.71594121752E+03  0.00000000000E+00 0. -1.
         23    2    1    2    0    0  0.52056108919E+02  0.24659980891E+03 -0.42947928446E+03  0.51402969611E+03  0.12748634622E+03 0.  0.
        254    2    1    2    0    0 -0.52056108919E+02 -0.24659980891E+03  0.64934405424E+03  0.11377175087E+04  0.89957330142E+03 0.  0.
        -24    2    4    4    0    0  0.16200369175E+03 -0.32030410133E+03  0.78144837450E+03  0.86364715523E+03  0.79905777447E+02 0.  0.
         24    2    4    4    0    0 -0.21405980067E+03  0.73704292415E+02 -0.13210432026E+03  0.27407035348E+03  0.80056768857E+02 0.  0.
         11    1    3    3    0    0 -0.16749210193E+02  0.16858054713E+03 -0.20022521969E+03  0.26227862191E+03  0.00000000000E+00 0. -1.
        -11    1    3    3    0    0  0.68805319112E+02  0.78019261787E+02 -0.22925406477E+03  0.25175107420E+03  0.00000000000E+00 0.  1.
          2    1    6    6  502    0 -0.83019449438E+01  0.14092924641E+02 -0.35478750498E+02  0.39067563934E+02  0.00000000000E+00 0. -1.
          3    1    5    5  503    0  0.35228505902E+02 -0.17583425406E+02  0.91903029247E+02  0.99981954681E+02  0.00000000000E+00 0. -1.
         -4    1    5    5    0  503  0.12677518585E+03 -0.30272067592E+03  0.68954534525E+03  0.76366520055E+03  0.00000000000E+00 0.  1.
         -1    1    6    6    0  502 -0.20575785573E+03  0.59611367774E+02 -0.96625569762E+02  0.23500278954E+03  0.00000000000E+00 0.  1.
<mgrwt>
<rscale>  0 0.16370487E+04</rscale>
<asrwt>0</asrwt>
<pdfrwt beam="1">  1        1 0.14397015E+00 0.16370487E+04</pdfrwt>
<pdfrwt beam="2">  1       -1 0.11014480E+00 0.16370487E+04</pdfrwt>
<totfact> 0.12387090E+01</totfact>
</mgrwt>
</event>
<event>
12    1  0.1549527E-007  0.2079276E+04  0.7818608E-02  0.8570428E-01
         -4   -1    0    0    0  501 -0.00000000000E+00  0.00000000000E+00  0.17721604846E+04  0.17721604846E+04  0.00000000000E+00 0.  1.
          4   -1    0    0  501    0  0.00000000000E+00 -0.00000000000E+00 -0.60990390987E+03  0.60990390987E+03  0.00000000000E+00 0. -1.
         23    2    1    2    0    0  0.60724072879E+03 -0.19074841071E+03 -0.15417035113E+03  0.66134988686E+03  0.92135317819E+02 0.  0.
        254    2    1    2    0    0 -0.60724072879E+03  0.19074841071E+03  0.13164269259E+04  0.17207145076E+04  0.90705694788E+03 0.  0.
        -24    2    4    4    0    0 -0.15233835570E+03  0.29930370347E+03  0.26461221635E+02  0.34629468529E+03  0.80188099360E+02 0.  0.
         24    2    4    4    0    0 -0.45490237309E+03 -0.10855529276E+03  0.12899657042E+04  0.13744198223E+04  0.79359368004E+02 0.  0.
         13    1    3    3    0    0  0.53491645863E+03 -0.18680701654E+03 -0.15979755708E+03  0.58870004110E+03  0.00000000000E+00 0. -1.
        -13    1    3    3    0    0  0.72324270156E+02 -0.39413941712E+01  0.56272059458E+01  0.72649845756E+02  0.00000000000E+00 0.  1.
          2    1    6    6  502    0 -0.17940932072E+03 -0.26167471541E+02  0.40046669778E+03  0.43959756251E+03  0.00000000000E+00 0. -1.
          1    1    5    5  503    0  0.72995702168E+01  0.40715729098E+02  0.44582705438E+01  0.41604452858E+02  0.00000000000E+00 0. -1.
         -2    1    5    5    0  503 -0.15963792592E+03  0.25858797438E+03  0.22002951091E+02  0.30469023243E+03  0.00000000000E+00 0.  1.
         -1    1    6    6    0  502 -0.27549305237E+03 -0.82387821219E+02  0.88949900645E+03  0.93482225982E+03  0.00000000000E+00 0.  1.
<mgrwt>
<rscale>  0 0.20792764E+04</rscale>
<asrwt>0</asrwt>
<pdfrwt beam="1">  1        4 0.93831371E-01 0.20792764E+04</pdfrwt>
<pdfrwt beam="2">  1       -4 0.27264007E+00 0.20792764E+04</pdfrwt>
<totfact> 0.81030244E-02</totfact>
</mgrwt>
</event>
<event>
12    1  0.1549527E-007  0.1202304E+04  0.7818608E-02  0.9110842E-01
          2   -1    0    0  501    0  0.00000000000E+00  0.00000000000E+00  0.23320155511E+03  0.23320155511E+03  0.00000000000E+00 0. -1.
         -2   -1    0    0    0  501 -0.00000000000E+00 -0.00000000000E+00 -0.15496625381E+04  0.15496625381E+04  0.00000000000E+00 0.  1.
         23    2    1    2    0    0  0.51272493442E+02 -0.10680987979E+03  0.35907952158E+02  0.15312419455E+03  0.90113367059E+02 0.  0.
        254    2    1    2    0    0 -0.51272493442E+02  0.10680987979E+03 -0.13523689351E+04  0.16297398986E+04  0.90172788664E+03 0.  0.
        -24    2    4    4    0    0 -0.36037121150E+03  0.34564533135E+03 -0.66115587961E+03  0.83212293822E+03  0.77222937083E+02 0.  0.
         24    2    4    4    0    0  0.30909871805E+03 -0.23883545156E+03 -0.69121305549E+03  0.79761696040E+03  0.76373667032E+02 0.  0.
         11    1    3    3    0    0  0.71766986215E+02 -0.10431338355E+03  0.38440902622E+02  0.13232341174E+03  0.00000000000E+00 0. -1.
        -11    1    3    3    0    0 -0.20494492773E+02 -0.24964962349E+01 -0.25329504640E+01  0.20800782810E+02  0.00000000000E+00 0.  1.
          4    1    6    6  502    0  0.10044509220E+02 -0.27737656488E+02 -0.78822234353E+02  0.84161834470E+02  0.00000000000E+00 0. -1.
          1    1    5    5  503    0 -0.25327475894E+02  0.85172748476E+01 -0.60676360261E+02  0.66299665915E+02  0.00000000000E+00 0. -1.
         -4    1    5    5    0  503 -0.33504373560E+03  0.33712805650E+03 -0.60047951935E+03  0.76582327231E+03  0.00000000000E+00 0.  1.
         -3    1    6    6    0  502  0.29905420883E+03 -0.21109779508E+03 -0.61239082113E+03  0.71345512593E+03  0.00000000000E+00 0.  1.
<mgrwt>
<rscale>  0 0.12023040E+04</rscale>
<asrwt>0</asrwt>
<pdfrwt beam="1">  1        2 0.35877162E-01 0.12023040E+04</pdfrwt>
<pdfrwt beam="2">  1       -2 0.23840962E+00 0.12023040E+04</pdfrwt>
<totfact> 0.10898442E+01</totfact>
</mgrwt>
</event>
<event>
12    1  0.1549527E-007  0.1675751E+04  0.7818608E-02  0.8775317E-01
          2   -1    0    0  501    0  0.00000000000E+00  0.00000000000E+00  0.10229414726E+04  0.10229414726E+04  0.00000000000E+00 0. -1.
         -2   -1    0    0    0  501 -0.00000000000E+00 -0.00000000000E+00 -0.68629079903E+03  0.68629079903E+03  0.00000000000E+00 0.  1.
         23    2    1    2    0    0 -0.42429149657E+03  0.53687405583E+02  0.53461835484E+03  0.69081142712E+03  0.92184765183E+02 0.  0.
        254    2    1    2    0    0  0.42429149657E+03 -0.53687405583E+02 -0.19796768130E+03  0.10184208445E+04  0.90282013826E+03 0.  0.
        -24    2    4    4    0    0  0.31028448544E+03 -0.33425522519E+03  0.20664659128E+03  0.50669141312E+03  0.77655373125E+02 0.  0.
         24    2    4    4    0    0  0.11400701113E+03  0.28056781960E+03 -0.40461427258E+03  0.51172943136E+03  0.80239649555E+02 0.  0.
         11    1    3    3    0    0 -0.60957448981E+01 -0.81509242082E+01  0.34449864672E+02  0.35921982786E+02  0.00000000000E+00 0.  1.
        -11    1    3    3    0    0 -0.41819575167E+03  0.61838329791E+02  0.50016849017E+03  0.65488944434E+03  0.00000000000E+00 0. -1.
          2    1    6    6  502    0  0.12665068387E+03  0.25806067764E+03 -0.36982338094E+03  0.46840691942E+03  0.00000000000E+00 0. -1.
          3    1    5    5  503    0  0.18065648432E+03 -0.22764260177E+03  0.16326754540E+03  0.33333798291E+03  0.00000000000E+00 0. -1.
         -4    1    5    5    0  503  0.12962800112E+03 -0.10661262341E+03  0.43379045880E+02  0.17335343021E+03  0.00000000000E+00 0.  1.
         -1    1    6    6    0  502 -0.12643672743E+02  0.22507141968E+02 -0.34790891635E+02  0.43322511940E+02  0.00000000000E+00 0.  1.
<mgrwt>
<rscale>  0 0.16757510E+04</rscale>
<asrwt>0</asrwt>
<pdfrwt beam="1">  1        2 0.15737561E+00 0.16757510E+04</pdfrwt>
<pdfrwt beam="2">  1       -2 0.10558320E+00 0.16757510E+04</pdfrwt>
<totfact> 0.16841815E+01</totfact>
</mgrwt>
</event>
<event>
12    1  0.1549527E-007  0.1601881E+04  0.7818608E-02  0.8819393E-01
         -1   -1    0    0    0  501 -0.00000000000E+00  0.00000000000E+00  0.46823146123E+03  0.46823146123E+03  0.00000000000E+00 0.  1.
          1   -1    0    0  501    0  0.00000000000E+00 -0.00000000000E+00 -0.13700608521E+04  0.13700608521E+04  0.00000000000E+00 0. -1.
         23    2    1    2    0    0  0.45708183384E+03  0.19100987445E+03 -0.55512013803E+03  0.74973999408E+03  0.92428978705E+02 0.  0.
        254    2    1    2    0    0 -0.45708183384E+03 -0.19100987445E+03 -0.34670925283E+03  0.10885523192E+04  0.90516864216E+03 0.  0.
        -24    2    4    4    0    0  0.14391918265E+03 -0.13347765105E+03  0.18406673703E+03  0.28075677643E+03  0.80092380191E+02 0.  0.
         24    2    4    4    0    0 -0.60100101649E+03 -0.57532223400E+02 -0.53077598985E+03  0.80779554281E+03  0.79361886512E+02 0.  0.
         11    1    3    3    0    0  0.42142343160E+03  0.19593014919E+03 -0.49005609832E+03  0.67538234472E+03  0.00000000000E+00 0. -1.
        -11    1    3    3    0    0  0.35658402245E+02 -0.49202747381E+01 -0.65064039711E+02  0.74357649356E+02  0.00000000000E+00 0.  1.
          2    1    6    6  502    0 -0.68099680606E+02  0.77907966752E+01 -0.34781457092E+02  0.76863598464E+02  0.00000000000E+00 0. -1.
          1    1    5    5  503    0  0.55983931115E+02 -0.68922171221E+02  0.33671123858E+02  0.94964260703E+02  0.00000000000E+00 0. -1.
         -2    1    5    5    0  503  0.87935251536E+02 -0.64555479832E+02  0.15039561317E+03  0.18579251572E+03  0.00000000000E+00 0.  1.
         -1    1    6    6    0  502 -0.53290133589E+03 -0.65323020075E+02 -0.49599453276E+03  0.73093194435E+03  0.00000000000E+00 0.  1.
<mgrwt>
<rscale>  0 0.16018809E+04</rscale>
<asrwt>0</asrwt>
<pdfrwt beam="1">  1        1 0.21077859E+00 0.16018809E+04</pdfrwt>
<pdfrwt beam="2">  1       -1 0.72035611E-01 0.16018809E+04</pdfrwt>
<totfact> 0.15047123E+01</totfact>
</mgrwt>
</event>
<event>
12    1  0.1549527E-007  0.2110304E+04  0.7818608E-02  0.8556718E-01
          2   -1    0    0  501    0  0.00000000000E+00  0.00000000000E+00  0.10810088152E+04  0.10810088152E+04  0.00000000000E+00 0. -1.
         -2   -1    0    0    0  501 -0.00000000000E+00 -0.00000000000E+00 -0.10299131835E+04  0.10299131835E+04  0.00000000000E+00 0.  1.
         23    2    1    2    0    0  0.66243435634E+03 -0.17761334090E+03  0.50091658414E+03  0.85411961589E+03  0.90758573460E+02 0.  0.
        254    2    1    2    0    0 -0.66243435634E+03  0.17761334090E+03 -0.44982095247E+03  0.12568023829E+04  0.95228544301E+03 0.  0.
        -24    2    4    4    0    0 -0.22027133971E+03  0.45453396967E+02  0.29295585248E+03  0.37887688037E+03  0.84493103753E+02 0.  0.
         24    2    4    4    0    0 -0.44216301662E+03  0.13215994393E+03 -0.74277680495E+03  0.87792550250E+03  0.77855134140E+02 0.  0.
         13    1    3    3    0    0  0.57168277004E+03 -0.18301846755E+03  0.42231333347E+03  0.73393834936E+03  0.00000000000E+00 0. -1.
        -13    1    3    3    0    0  0.90751586293E+02  0.54051266549E+01  0.78603250675E+02  0.12018126653E+03  0.00000000000E+00 0.  1.
          4    1    6    6  502    0 -0.64443349115E+02  0.44282510932E+02 -0.15725613515E+03  0.17562282899E+03  0.00000000000E+00 0. -1.
          3    1    5    5  503    0 -0.12027994346E+03  0.66016023348E+02  0.15098163161E+03  0.20401184579E+03  0.00000000000E+00 0. -1.
         -4    1    5    5    0  503 -0.99991396249E+02 -0.20562626381E+02  0.14197422087E+03  0.17486503458E+03  0.00000000000E+00 0.  1.
         -3    1    6    6    0  502 -0.37771966751E+03  0.87877432996E+02 -0.58552066980E+03  0.70230267351E+03  0.00000000000E+00 0.  1.
<mgrwt>
<rscale>  0 0.21103035E+04</rscale>
<asrwt>0</asrwt>
<pdfrwt beam="1">  1        2 0.16630905E+00 0.21103035E+04</pdfrwt>
<pdfrwt beam="2">  1       -2 0.15844818E+00 0.21103035E+04</pdfrwt>
<totfact> 0.53311553E+00</totfact>
</mgrwt>
</event>
<event>
12    1  0.1549527E-007  0.1687455E+04  0.7818608E-02  0.8768552E-01
          1   -1    0    0  501    0  0.00000000000E+00  0.00000000000E+00  0.22463351577E+04  0.22463351577E+04  0.00000000000E+00 0. -1.
         -1   -1    0    0    0  501 -0.00000000000E+00 -0.00000000000E+00 -0.31690549906E+03  0.31690549906E+03  0.00000000000E+00 0.  1.
         23    2    1    2    0    0  0.93765426557E+02 -0.16921727355E+03 -0.14222528202E+03  0.25386728533E+03  0.82426493485E+02 0.  0.
        254    2    1    2    0    0 -0.93765426557E+02  0.16921727355E+03  0.20716549406E+04  0.23093733714E+04  0.10020103466E+04 0.  0.
        -24    2    4    4    0    0 -0.62892548806E+02 -0.32748168045E+03  0.26417965098E+03  0.43281762212E+03  0.79627145467E+02 0.  0.
         24    2    4    4    0    0 -0.30872877751E+02  0.49669895400E+03  0.18074752896E+04  0.18765557493E+04  0.82653324239E+02 0.  0.
         11    1    3    3    0    0 -0.10243037913E+02 -0.24810255203E+01  0.11585238849E+01  0.10602711489E+02  0.00000000000E+00 0. -1.
        -11    1    3    3    0    0  0.10400846447E+03 -0.16673624803E+03 -0.14338380591E+03  0.24326457384E+03  0.00000000000E+00 0.  1.
          4    1    6    6  502    0 -0.43973520007E+02  0.48474071713E+03  0.17455405411E+04  0.18121310697E+04  0.00000000000E+00 0. -1.
          1    1    5    5  503    0 -0.43783011058E+02 -0.30679077281E+03  0.25963727002E+03  0.40428831584E+03  0.00000000000E+00 0. -1.
         -2    1    5    5    0  503 -0.19109537748E+02 -0.20690907637E+02  0.45423809612E+01  0.28529306276E+02  0.00000000000E+00 0.  1.
         -3    1    6    6    0  502  0.13100642256E+02  0.11958236869E+02  0.61934748543E+02  0.64424679539E+02  0.00000000000E+00 0.  1.
<mgrwt>
<rscale>  0 0.16874548E+04</rscale>
<asrwt>0</asrwt>
<pdfrwt beam="1">  1        1 0.34559001E+00 0.16874548E+04</pdfrwt>
<pdfrwt beam="2">  1       -1 0.48754694E-01 0.16874548E+04</pdfrwt>
<totfact> 0.81317071E+00</totfact>
</mgrwt>
</event>
<event>
12    1  0.1549527E-007  0.1599756E+04  0.7818608E-02  0.8820698E-01
          1   -1    0    0  501    0  0.00000000000E+00  0.00000000000E+00  0.20962562493E+04  0.20962562493E+04  0.00000000000E+00 0. -1.
         -1   -1    0    0    0  501 -0.00000000000E+00 -0.00000000000E+00 -0.30521314990E+03  0.30521314990E+03  0.00000000000E+00 0.  1.
         23    2    1    2    0    0  0.22598631475E+03 -0.12093641046E+03 -0.97889937318E+02  0.28909652935E+03  0.91098483109E+02 0.  0.
        254    2    1    2    0    0 -0.22598631475E+03  0.12093641046E+03  0.18889330368E+04  0.21123728699E+04  0.91014048053E+03 0.  0.
        -24    2    4    4    0    0 -0.54650212895E+03  0.42035155935E+02  0.80887029037E+03  0.98023873989E+03  0.78519483207E+02 0.  0.
         24    2    4    4    0    0  0.32051581421E+03  0.78901254527E+02  0.10800627464E+04  0.11321341300E+04  0.78970608946E+02 0.  0.
         11    1    3    3    0    0  0.12464166158E+03 -0.15591681783E+02 -0.51136656451E+02  0.13562301418E+03  0.00000000000E+00 0. -1.
        -11    1    3    3    0    0  0.10134465316E+03 -0.10534472868E+03 -0.46753280867E+02  0.15347351516E+03  0.00000000000E+00 0.  1.
          4    1    6    6  502    0  0.26727533864E+03  0.73655206700E+02  0.79139045748E+03  0.83854639246E+03  0.00000000000E+00 0. -1.
          3    1    5    5  503    0 -0.50741036054E+03  0.56157645761E+02  0.76597760078E+03  0.92051107547E+03  0.00000000000E+00 0. -1.
         -4    1    5    5    0  503 -0.39091768415E+02 -0.14122489826E+02  0.42892689591E+02  0.59727664420E+02  0.00000000000E+00 0.  1.
         -3    1    6    6    0  502  0.53240475571E+02  0.52460478267E+01  0.28867228891E+03  0.29358773755E+03  0.00000000000E+00 0.  1.
<mgrwt>
<rscale>  0 0.15997562E+04</rscale>
<asrwt>0</asrwt>
<pdfrwt beam="1">  1        1 0.32250095E+00 0.15997562E+04</pdfrwt>
<pdfrwt beam="2">  1       -1 0.46955871E-01 0.15997562E+04</pdfrwt>
<totfact> 0.11128803E+01</totfact>
</mgrwt>
</event>
<event>
12    1  0.1549527E-007  0.1913175E+04  0.7818608E-02  0.8648326E-01
          1   -1    0    0  501    0  0.00000000000E+00  0.00000000000E+00  0.18597246528E+04  0.18597246528E+04  0.00000000000E+00 0. -1.
         -1   -1    0    0    0  501 -0.00000000000E+00 -0.00000000000E+00 -0.49204060569E+03  0.49204060569E+03  0.00000000000E+00 0.  1.
         23    2    1    2    0    0 -0.69091744117E+02 -0.64962799962E+03  0.11455470149E+03  0.66926300837E+03  0.89442650625E+02 0.  0.
        254    2    1    2    0    0  0.69091744117E+02  0.64962799962E+03  0.12531293456E+04  0.16825022501E+04  0.91306651335E+03 0.  0.
        -24    2    4    4    0    0  0.14188340138E+03 -0.18296182335E+03  0.12119510574E+03  0.27335210855E+03  0.80169777370E+02 0.  0.
         24    2    4    4    0    0 -0.72791657262E+02  0.83258982297E+03  0.11319342399E+04  0.14091501416E+04  0.76971159332E+02 0.  0.
         11    1    3    3    0    0 -0.36030566806E+02 -0.25679426180E+03  0.89212271767E+02  0.27422677490E+03  0.00000000000E+00 0.  1.
        -11    1    3    3    0    0 -0.33061177311E+02 -0.39283373782E+03  0.25342429722E+02  0.39503623348E+03  0.00000000000E+00 0. -1.
          2    1    6    6  502    0 -0.81611017783E+02  0.71423512813E+03  0.10015338421E+04  0.12328269195E+04  0.00000000000E+00 0. -1.
          1    1    5    5  503    0  0.13493907517E+03 -0.15693372883E+03  0.13070211306E+03  0.24478519483E+03  0.00000000000E+00 0. -1.
         -2    1    5    5    0  503  0.69443262113E+01 -0.26028094526E+02 -0.95070073239E+01  0.28566913719E+02  0.00000000000E+00 0.  1.
         -1    1    6    6    0  502  0.88193605210E+01  0.11835469485E+03  0.13040039781E+03  0.17632322212E+03  0.00000000000E+00 0.  1.
<mgrwt>
<rscale>  0 0.19131754E+04</rscale>
<asrwt>0</asrwt>
<pdfrwt beam="1">  1        1 0.28611148E+00 0.19131754E+04</pdfrwt>
<pdfrwt beam="2">  1       -1 0.75698556E-01 0.19131754E+04</pdfrwt>
<totfact> 0.60801298E+00</totfact>
</mgrwt>
</event>
<event>
12    1  0.1549527E-007  0.1353069E+04  0.7818608E-02  0.8988508E-01
         -2   -1    0    0    0  501 -0.00000000000E+00  0.00000000000E+00  0.80010064550E+03  0.80010064550E+03  0.00000000000E+00 0.  1.
          2   -1    0    0  501    0  0.00000000000E+00 -0.00000000000E+00 -0.57205180955E+03  0.57205180955E+03  0.00000000000E+00 0. -1.
         23    2    1    2    0    0  0.44788833208E+02 -0.35367393111E+03  0.18218974484E+03  0.40797428694E+03  0.78476917354E+02 0.  0.
        254    2    1    2    0    0 -0.44788833208E+02  0.35367393111E+03  0.45859091115E+02  0.96417816811E+03  0.89467602768E+03 0.  0.
        -24    2    4    4    0    0  0.30044415768E+03  0.48902075477E+03 -0.15738680138E+02  0.57926635488E+03  0.76771175356E+02 0.  0.
         24    2    4    4    0    0 -0.34523299089E+03 -0.13534682366E+03  0.61597771253E+02  0.38491181323E+03  0.82814478622E+02 0.  0.
         11    1    3    3    0    0  0.32662933622E+02 -0.33381642405E+03  0.18728452872E+03  0.38415591483E+03  0.00000000000E+00 0.  1.
        -11    1    3    3    0    0  0.12125899587E+02 -0.19857507058E+02 -0.50947838867E+01  0.23818372114E+02  0.00000000000E+00 0. -1.
          4    1    6    6  502    0 -0.26820047879E+02 -0.24408672170E+02  0.28466495909E+02  0.46102490548E+02  0.00000000000E+00 0. -1.
          3    1    5    5  503    0  0.14283678128E+02  0.66594215793E+02  0.74319062221E+01  0.68513110190E+02  0.00000000000E+00 0. -1.
         -4    1    5    5    0  503  0.28616047956E+03  0.42242653897E+03 -0.23170586360E+02  0.51075324469E+03  0.00000000000E+00 0.  1.
         -3    1    6    6    0  502 -0.31841294301E+03 -0.11093815149E+03  0.33131275344E+02  0.33880932269E+03  0.00000000000E+00 0.  1.
<mgrwt>
<rscale>  0 0.13530691E+04</rscale>
<asrwt>0</asrwt>
<pdfrwt beam="1">  1        2 0.88007970E-01 0.13530691E+04</pdfrwt>
<pdfrwt beam="2">  1       -2 0.12309241E+00 0.13530691E+04</pdfrwt>
<totfact> 0.25556514E+01</totfact>
</mgrwt>
</event>
<event>
12    1  0.1549527E-007  0.1492887E+04  0.7818608E-02  0.8889197E-01
          2   -1    0    0  501    0  0.00000000000E+00  0.00000000000E+00  0.51123627633E+04  0.51123627633E+04  0.00000000000E+00 0.  1.
         -2   -1    0    0    0  501 -0.00000000000E+00 -0.00000000000E+00 -0.10898634438E+03  0.10898634438E+03  0.00000000000E+00 0. -1.
         23    2    1    2    0    0 -0.21124536251E+03  0.35979716345E+03  0.25092422232E+04  0.25454368266E+04  0.94199265284E+02 0.  0.
        254    2    1    2    0    0  0.21124536251E+03 -0.35979716345E+03  0.24941341958E+04  0.26759122811E+04  0.87505573975E+03 0.  0.
        -24    2    4    4    0    0  0.16616786131E+03  0.15735659496E+03  0.18068799475E+03  0.30365242870E+03  0.84757240967E+02 0.  0.
         24    2    4    4    0    0  0.45077501192E+02 -0.51715375841E+03  0.23134462010E+04  0.23722598524E+04  0.78124844878E+02 0.  0.
         13    1    3    3    0    0 -0.18119247592E+03  0.34111458744E+03  0.21467156267E+04  0.21811872586E+04  0.00000000000E+00 0.  1.
        -13    1    3    3    0    0 -0.30052886587E+02  0.18682576003E+02  0.36252659647E+03  0.36424956799E+03  0.00000000000E+00 0. -1.
          4    1    6    6  502    0 -0.11831805344E+02 -0.11528366207E+03  0.63049083863E+03  0.64105304925E+03  0.00000000000E+00 0. -1.
          1    1    5    5  503    0  0.29959167433E+01  0.29700637276E+02  0.17529705071E+01  0.29902780428E+02  0.00000000000E+00 0. -1.
         -2    1    5    5    0  503  0.16317194457E+03  0.12765595768E+03  0.17893502424E+03  0.27374964827E+03  0.00000000000E+00 0.  1.
         -3    1    6    6    0  502  0.56909306536E+02 -0.40187009634E+03  0.16829553624E+04  0.17312068032E+04  0.00000000000E+00 0.  1.
<mgrwt>
<rscale>  0 0.14928868E+04</rscale>
<asrwt>0</asrwt>
<pdfrwt beam="1">  1        2 0.78651716E+00 0.14928868E+04</pdfrwt>
<pdfrwt beam="2">  1       -2 0.16767134E-01 0.14928868E+04</pdfrwt>
<totfact> 0.72679230E-01</totfact>
</mgrwt>
</event>
<event>
12    1  0.1549527E-007  0.1204893E+04  0.7818608E-02  0.9108584E-01
          1   -1    0    0  501    0  0.00000000000E+00  0.00000000000E+00  0.89866256388E+03  0.89866256388E+03  0.00000000000E+00 0. -1.
         -1   -1    0    0    0  501 -0.00000000000E+00 -0.00000000000E+00 -0.40386879507E+03  0.40386879507E+03  0.00000000000E+00 0.  1.
         23    2    1    2    0    0  0.94708750341E+02  0.21659424606E+03  0.45325500768E+02  0.25833387650E+03  0.93803922696E+02 0.  0.
        254    2    1    2    0    0 -0.94708750341E+02 -0.21659424606E+03  0.44946826805E+03  0.10441974825E+04  0.91238360549E+03 0.  0.
        -24    2    4    4    0    0 -0.43855639680E+02 -0.30257387821E+03 -0.20552475059E+03  0.37688891814E+03  0.79564845247E+02 0.  0.
         24    2    4    4    0    0 -0.50853110661E+02  0.85979632159E+02  0.65499301864E+03  0.66730856432E+03  0.79412401664E+02 0.  0.
         11    1    3    3    0    0 -0.15346832065E+01 -0.41991725202E+00  0.19466456901E+02  0.19531372899E+02  0.00000000000E+00 0.  1.
        -11    1    3    3    0    0  0.96243433547E+02  0.21701416331E+03  0.25859043866E+02  0.23880250360E+03  0.00000000000E+00 0. -1.
          2    1    6    6  502    0  0.49548349148E+01  0.67979517510E+02  0.38927998381E+03  0.39520206349E+03  0.00000000000E+00 0. -1.
          3    1    5    5  503    0 -0.42115713992E+02 -0.29938068048E+03 -0.21214575672E+03  0.36933500687E+03  0.00000000000E+00 0. -1.
         -4    1    5    5    0  503 -0.17399256881E+01 -0.31931977363E+01  0.66210061297E+01  0.75539112619E+01  0.00000000000E+00 0.  1.
         -3    1    6    6    0  502 -0.55807945575E+02  0.18000114649E+02  0.26571303483E+03  0.27210650083E+03  0.00000000000E+00 0.  1.
<mgrwt>
<rscale>  0 0.12048930E+04</rscale>
<asrwt>0</asrwt>
<pdfrwt beam="1">  1        1 0.13825578E+00 0.12048930E+04</pdfrwt>
<pdfrwt beam="2">  1       -1 0.62133661E-01 0.12048930E+04</pdfrwt>
<totfact> 0.47424055E+01</totfact>
</mgrwt>
</event>
<event>
12    1  0.1549527E-007  0.1875078E+04  0.7818608E-02  0.8667362E-01
         -1   -1    0    0    0  501 -0.00000000000E+00  0.00000000000E+00  0.75903956441E+03  0.75903956441E+03  0.00000000000E+00 0.  1.
          1   -1    0    0  501    0  0.00000000000E+00 -0.00000000000E+00 -0.11580156440E+04  0.11580156440E+04  0.00000000000E+00 0. -1.
         23    2    1    2    0    0  0.36557894122E+03  0.86850114408E+02  0.46445077622E+03  0.60794349935E+03  0.11264932414E+03 0.  0.
        254    2    1    2    0    0 -0.36557894122E+03 -0.86850114408E+02 -0.86342685582E+03  0.13091117091E+04  0.90943753323E+03 0.  0.
        -24    2    4    4    0    0 -0.52794809316E+03 -0.35816603037E+03 -0.46523704052E+03  0.79388676085E+03  0.82453567520E+02 0.  0.
         24    2    4    4    0    0  0.16236915194E+03  0.27131591596E+03 -0.39818981530E+03  0.51522494822E+03  0.83219892509E+02 0.  0.
         13    1    3    3    0    0  0.80217947297E+02 -0.24555433918E+02  0.75677876754E+02  0.11298242976E+03  0.00000000000E+00 0. -1.
        -13    1    3    3    0    0  0.28536099393E+03  0.11140554833E+03  0.38877289946E+03  0.49496106959E+03  0.00000000000E+00 0.  1.
          2    1    6    6  502    0  0.12862026310E+02  0.43770801229E+02 -0.10834230404E+03  0.11755581486E+03  0.00000000000E+00 0. -1.
          3    1    5    5  503    0 -0.26663579093E+03 -0.21888291742E+03 -0.21754574785E+03  0.40783639974E+03  0.00000000000E+00 0. -1.
         -4    1    5    5    0  503 -0.26131230223E+03 -0.13928311295E+03 -0.24769129267E+03  0.38605036112E+03  0.00000000000E+00 0.  1.
         -1    1    6    6    0  502  0.14950712563E+03  0.22754511473E+03 -0.28984751125E+03  0.39766913336E+03  0.00000000000E+00 0.  1.
<mgrwt>
<rscale>  0 0.18750783E+04</rscale>
<asrwt>0</asrwt>
<pdfrwt beam="1">  1        1 0.17815625E+00 0.18750783E+04</pdfrwt>
<pdfrwt beam="2">  1       -1 0.11677532E+00 0.18750783E+04</pdfrwt>
<totfact> 0.71177309E+00</totfact>
</mgrwt>
</event>
<event>
12    1  0.1549527E-007  0.2524895E+04  0.7818608E-02  0.8394170E-01
         -2   -1    0    0    0  501 -0.00000000000E+00  0.00000000000E+00  0.72449194926E+03  0.72449194926E+03  0.00000000000E+00 0.  1.
          2   -1    0    0  501    0  0.00000000000E+00 -0.00000000000E+00 -0.21998492908E+04  0.21998492908E+04  0.00000000000E+00 0. -1.
         23    2    1    2    0    0  0.62051575332E+03 -0.21603914384E+03 -0.16655265212E+04  0.17924566264E+04  0.84908497862E+02 0.  0.
        254    2    1    2    0    0 -0.62051575332E+03  0.21603914384E+03  0.19016917963E+03  0.11318846137E+04  0.90182356920E+03 0.  0.
        -24    2    4    4    0    0 -0.35893692281E+03  0.21471841645E+02  0.53579615063E+03  0.65016229920E+03  0.79603679143E+02 0.  0.
         24    2    4    4    0    0 -0.26157883051E+03  0.19456730219E+03 -0.34562697099E+03  0.48172231446E+03  0.79488776052E+02 0.  0.
         11    1    3    3    0    0  0.60704485630E+03 -0.20175261310E+03 -0.15775131162E+04  0.17022794148E+04  0.00000000000E+00 0. -1.
        -11    1    3    3    0    0  0.13470897018E+02 -0.14286530737E+02 -0.88013405004E+02  0.90177211574E+02  0.00000000000E+00 0.  1.
          4    1    6    6  502    0 -0.73134621226E+02  0.14670253961E+02 -0.66932502463E+02  0.10021900548E+03  0.00000000000E+00 0. -1.
          3    1    5    5  503    0 -0.24736215020E+03  0.51378460260E+02  0.37561564351E+03  0.45267526018E+03  0.00000000000E+00 0. -1.
         -4    1    5    5    0  503 -0.11157477260E+03 -0.29906618616E+02  0.16018050712E+03  0.19748703901E+03  0.00000000000E+00 0.  1.
         -3    1    6    6    0  502 -0.18844420928E+03  0.17989704823E+03 -0.27869446853E+03  0.38150330898E+03  0.00000000000E+00 0.  1.
<mgrwt>
<rscale>  0 0.25248945E+04</rscale>
<asrwt>0</asrwt>
<pdfrwt beam="1">  1        2 0.33843835E+00 0.25248945E+04</pdfrwt>
<pdfrwt beam="2">  1       -2 0.11146030E+00 0.25248945E+04</pdfrwt>
<totfact> 0.29248256E+00</totfact>
</mgrwt>
</event>
<event>
12    1  0.1549527E-007  0.3801099E+04  0.7818608E-02  0.8045919E-01
          2   -1    0    0  501    0  0.00000000000E+00  0.00000000000E+00  0.37105558745E+04  0.37105558745E+04  0.00000000000E+00 0. -1.
         -2   -1    0    0    0  501 -0.00000000000E+00 -0.00000000000E+00 -0.97346302884E+03  0.97346302884E+03  0.00000000000E+00 0.  1.
         23    2    1    2    0    0 -0.12654201870E+04 -0.72129322864E+03  0.25820642596E+04  0.29657135286E+04  0.82757002171E+02 0.  0.
        254    2    1    2    0    0  0.12654201870E+04  0.72129322864E+03  0.15502858601E+03  0.17183053747E+04  0.89832473352E+03 0.  0.
        -24    2    4    4    0    0  0.33268399633E+03 -0.19702088589E+03 -0.91196073058E+01  0.39685698632E+03  0.88974319129E+02 0.  0.
         24    2    4    4    0    0  0.93273619071E+03  0.91831411453E+03  0.16414819331E+03  0.13214483884E+04  0.77353729183E+02 0.  0.
         11    1    3    3    0    0 -0.26546000970E+03 -0.19071146190E+03  0.57006030555E+03  0.65712147310E+03  0.00000000000E+00 0.  1.
        -11    1    3    3    0    0 -0.99996017734E+03 -0.53058176673E+03  0.20120039541E+04  0.23085920555E+04  0.00000000000E+00 0. -1.
          2    1    6    6  502    0  0.63940446868E+03  0.62726233287E+03  0.76014567894E+02  0.89892954304E+03  0.00000000000E+00 0. -1.
          3    1    5    5  503    0  0.28615969319E+02 -0.20131298973E+01 -0.20810661085E+02  0.35440231472E+02  0.00000000000E+00 0. -1.
         -4    1    5    5    0  503  0.30406802701E+03 -0.19500775599E+03  0.11691053779E+02  0.36141675485E+03  0.00000000000E+00 0.  1.
         -1    1    6    6    0  502  0.29333172203E+03  0.29105178165E+03  0.88133625417E+02  0.42251884536E+03  0.00000000000E+00 0.  1.
<mgrwt>
<rscale>  0 0.38010993E+04</rscale>
<asrwt>0</asrwt>
<pdfrwt beam="1">  1        2 0.57085474E+00 0.38010993E+04</pdfrwt>
<pdfrwt beam="2">  1       -2 0.14976354E+00 0.38010993E+04</pdfrwt>
<totfact> 0.13796210E-01</totfact>
</mgrwt>
</event>
<event>
12    1  0.1549527E-007  0.2117744E+04  0.7818608E-02  0.8553467E-01
         -2   -1    0    0    0  501 -0.00000000000E+00  0.00000000000E+00  0.15620049463E+04  0.15620049463E+04  0.00000000000E+00 0.  1.
          2   -1    0    0  501    0  0.00000000000E+00 -0.00000000000E+00 -0.71780192227E+03  0.71780192227E+03  0.00000000000E+00 0. -1.
         23    2    1    2    0    0 -0.53387185929E+03 -0.27294854882E+03 -0.32439855634E+03  0.68854892028E+03  0.96670159947E+02 0.  0.
        254    2    1    2    0    0  0.53387185929E+03  0.27294854882E+03  0.11686015804E+04  0.15912579483E+04  0.89830514411E+03 0.  0.
        -24    2    4    4    0    0  0.21352394361E+03  0.40004460508E+03  0.11478215601E+04  0.12368101842E+04  0.81098318316E+02 0.  0.
         24    2    4    4    0    0  0.32034791569E+03 -0.12709605626E+03  0.20780020295E+02  0.35444776417E+03  0.80157430579E+02 0.  0.
         11    1    3    3    0    0 -0.22776704710E+03 -0.97592048654E+02 -0.18497779572E+03  0.30922293029E+03  0.00000000000E+00 0. -1.
        -11    1    3    3    0    0 -0.30610481219E+03 -0.17535650016E+03 -0.13942076062E+03  0.37932599000E+03  0.00000000000E+00 0.  1.
          2    1    6    6  502    0  0.24409731750E+03 -0.57931414714E+02  0.13279058160E+02  0.25122874559E+03  0.00000000000E+00 0. -1.
          1    1    5    5  503    0  0.45077730445E+02  0.74841417313E+02  0.31757662791E+03  0.32937540000E+03  0.00000000000E+00 0. -1.
         -2    1    5    5    0  503  0.16844621316E+03  0.32520318776E+03  0.83024493220E+03  0.90743478416E+03  0.00000000000E+00 0.  1.
         -1    1    6    6    0  502  0.76250598184E+02 -0.69164641548E+02  0.75009621347E+01  0.10321901858E+03  0.00000000000E+00 0.  1.
<mgrwt>
<rscale>  0 0.21177442E+04</rscale>
<asrwt>0</asrwt>
<pdfrwt beam="1">  1        2 0.11043106E+00 0.21177442E+04</pdfrwt>
<pdfrwt beam="2">  1       -2 0.24030845E+00 0.21177442E+04</pdfrwt>
<totfact> 0.26922870E+00</totfact>
</mgrwt>
</event>
<event>
12    1  0.1549527E-007  0.1597744E+04  0.7818608E-02  0.8821935E-01
         -2   -1    0    0    0  501 -0.00000000000E+00  0.00000000000E+00  0.27826372172E+03  0.27826372172E+03  0.00000000000E+00 0.  1.
          2   -1    0    0  501    0  0.00000000000E+00 -0.00000000000E+00 -0.22934950476E+04  0.22934950476E+04  0.00000000000E+00 0. -1.
         23    2    1    2    0    0 -0.23718537908E+03  0.45227462861E+03 -0.41845123003E+03  0.66655155726E+03  0.91543993964E+02 0.  0.
        254    2    1    2    0    0  0.23718537908E+03 -0.45227462861E+03 -0.15967800959E+04  0.19052072121E+04  0.90515114906E+03 0.  0.
        -24    2    4    4    0    0  0.43982886863E+03 -0.62031557087E+03 -0.11997281833E+04  0.14227539686E+04  0.81488038340E+02 0.  0.
         24    2    4    4    0    0 -0.20264348955E+03  0.16804094225E+03 -0.39705191259E+03  0.48245324343E+03  0.76215278472E+02 0.  0.
         13    1    3    3    0    0 -0.16872996842E+03  0.34961020649E+03 -0.36224223009E+03  0.53095812640E+03  0.00000000000E+00 0. -1.
        -13    1    3    3    0    0 -0.68455410656E+02  0.10266442212E+03 -0.56208999939E+02  0.13559343086E+03  0.00000000000E+00 0.  1.
          2    1    6    6  502    0 -0.48644036168E+02  0.75552011473E+02 -0.17601185162E+03  0.19762216627E+03  0.00000000000E+00 0. -1.
          1    1    5    5  503    0  0.17061594380E+03 -0.25864718234E+03 -0.41791397658E+03  0.52025018696E+03  0.00000000000E+00 0. -1.
         -2    1    5    5    0  503  0.26921292483E+03 -0.36166838853E+03 -0.78181420667E+03  0.90250378166E+03  0.00000000000E+00 0.  1.
         -1    1    6    6    0  502 -0.15399945339E+03  0.92488930782E+02 -0.22104006097E+03  0.28483107716E+03  0.00000000000E+00 0.  1.
<mgrwt>
<rscale>  0 0.15977440E+04</rscale>
<asrwt>0</asrwt>
<pdfrwt beam="1">  1        2 0.35284540E+00 0.15977440E+04</pdfrwt>
<pdfrwt beam="2">  1       -2 0.42809802E-01 0.15977440E+04</pdfrwt>
<totfact> 0.22710950E+01</totfact>
</mgrwt>
</event>
<event>
12    1  0.1549527E-007  0.1427059E+04  0.7818608E-02  0.8934462E-01
          2   -1    0    0  501    0  0.00000000000E+00  0.00000000000E+00  0.16591444907E+04  0.16591444907E+04  0.00000000000E+00 0. -1.
         -2   -1    0    0    0  501 -0.00000000000E+00 -0.00000000000E+00 -0.30685951141E+03  0.30685951141E+03  0.00000000000E+00 0.  1.
         23    2    1    2    0    0  0.27320077145E+03  0.74338412599E+02  0.79625555345E+03  0.84858401439E+03  0.76857413153E+02 0.  0.
        254    2    1    2    0    0 -0.27320077145E+03 -0.74338412599E+02  0.55602942583E+03  0.11174199877E+04  0.92698103835E+03 0.  0.
        -24    2    4    4    0    0  0.18451498957E+02 -0.27371314232E+03  0.67732113054E+03  0.73513723272E+03  0.80021840532E+02 0.  0.
         24    2    4    4    0    0 -0.29165227041E+03  0.19937472972E+03 -0.12129170471E+03  0.38228275500E+03  0.81345543557E+02 0.  0.
         13    1    3    3    0    0  0.32014508248E+02  0.10050209758E+02  0.40052966654E+02  0.52251082212E+02  0.00000000000E+00 0.  1.
        -13    1    3    3    0    0  0.24118626321E+03  0.64288202840E+02  0.75620258680E+03  0.79633293217E+03  0.00000000000E+00 0. -1.
          2    1    6    6  502    0 -0.71670359477E+02  0.79901853150E+02 -0.65719872633E+02  0.12585725336E+03  0.00000000000E+00 0. -1.
          1    1    5    5  503    0  0.22311107034E+02 -0.23341614175E+03  0.63338878450E+03  0.67539783318E+03  0.00000000000E+00 0. -1.
         -2    1    5    5    0  503 -0.38596080772E+01 -0.40297000568E+02  0.43932346039E+02  0.59739399543E+02  0.00000000000E+00 0.  1.
         -1    1    6    6    0  502 -0.21998191093E+03  0.11947287657E+03 -0.55571832078E+02  0.25642550164E+03  0.00000000000E+00 0.  1.
<mgrwt>
<rscale>  0 0.14270589E+04</rscale>
<asrwt>0</asrwt>
<pdfrwt beam="1">  1        2 0.25525299E+00 0.14270589E+04</pdfrwt>
<pdfrwt beam="2">  1       -2 0.47209156E-01 0.14270589E+04</pdfrwt>
<totfact> 0.42686911E+01</totfact>
</mgrwt>
</event>
<event>
12    1  0.1549527E-007  0.1675503E+04  0.7818608E-02  0.8775461E-01
         -1   -1    0    0    0  501 -0.00000000000E+00  0.00000000000E+00  0.44217966189E+03  0.44217966189E+03  0.00000000000E+00 0.  1.
          1   -1    0    0  501    0  0.00000000000E+00 -0.00000000000E+00 -0.15871996744E+04  0.15871996744E+04  0.00000000000E+00 0. -1.
         23    2    1    2    0    0 -0.30481953447E+03 -0.79845293209E+02 -0.99783714532E+03  0.10504698800E+04  0.92291823732E+02 0.  0.
        254    2    1    2    0    0  0.30481953447E+03  0.79845293209E+02 -0.14718286718E+03  0.97890945629E+03  0.91504683366E+03 0.  0.
        -24    2    4    4    0    0  0.17514112514E+03 -0.15924663657E+03 -0.48041695884E+03  0.54127191430E+03  0.78364059957E+02 0.  0.
         24    2    4    4    0    0  0.12967840934E+03  0.23909192978E+03  0.33323409166E+03  0.43763754200E+03  0.80623926919E+02 0.  0.
         11    1    3    3    0    0 -0.18143542208E+03 -0.18097999797E+01 -0.59141711793E+03  0.61862451871E+03  0.00000000000E+00 0. -1.
        -11    1    3    3    0    0 -0.12338411240E+03 -0.78035493230E+02 -0.40642002738E+03  0.43184536127E+03  0.00000000000E+00 0.  1.
          4    1    6    6  502    0  0.90281983162E+02  0.21376738360E+03  0.24316526574E+03  0.33612003397E+03  0.00000000000E+00 0. -1.
          1    1    5    5  503    0  0.17916064791E+03 -0.16314868079E+03 -0.47603907326E+03  0.53416217488E+03  0.00000000000E+00 0. -1.
         -2    1    5    5    0  503 -0.40195227721E+01  0.39020442196E+01 -0.43778855746E+01  0.71097394123E+01  0.00000000000E+00 0.  1.
         -3    1    6    6    0  502  0.39396426174E+02  0.25324546181E+02  0.90068825913E+02  0.10151750803E+03  0.00000000000E+00 0.  1.
<mgrwt>
<rscale>  0 0.16755028E+04</rscale>
<asrwt>0</asrwt>
<pdfrwt beam="1">  1        1 0.24418457E+00 0.16755028E+04</pdfrwt>
<pdfrwt beam="2">  1       -1 0.68027640E-01 0.16755028E+04</pdfrwt>
<totfact> 0.11878695E+01</totfact>
</mgrwt>
</event>
<event>
12    1  0.1549527E-007  0.1439013E+04  0.7818608E-02  0.8926053E-01
         -1   -1    0    0    0  501 -0.00000000000E+00  0.00000000000E+00  0.32726537840E+03  0.32726537840E+03  0.00000000000E+00 0.  1.
          1   -1    0    0  501    0  0.00000000000E+00 -0.00000000000E+00 -0.15818653786E+04  0.15818653786E+04  0.00000000000E+00 0. -1.
         23    2    1    2    0    0  0.54794010947E+01  0.22449615763E+03 -0.88653506923E+03  0.91906727890E+03  0.91168445962E+02 0.  0.
        254    2    1    2    0    0 -0.54794010947E+01 -0.22449615763E+03 -0.36806493093E+03  0.99006347807E+03  0.89124931898E+03 0.  0.
        -24    2    4    4    0    0 -0.38743329939E+03  0.25474337274E+02 -0.34737977152E+03  0.52698473514E+03  0.79288725992E+02 0.  0.
         24    2    4    4    0    0  0.38195389830E+03 -0.24997049490E+03 -0.20685159408E+02  0.46307874293E+03  0.75100050484E+02 0.  0.
         13    1    3    3    0    0  0.14288146337E+02 -0.88906300349E+00 -0.28676477642E+02  0.32051239114E+02  0.00000000000E+00 0.  1.
        -13    1    3    3    0    0 -0.88087452426E+01  0.22538522063E+03 -0.85785859159E+03  0.88701603979E+03  0.00000000000E+00 0. -1.
          4    1    6    6  502    0  0.23684970599E+03 -0.16984741560E+03  0.20845828604E+02  0.29219937780E+03  0.00000000000E+00 0. -1.
          3    1    5    5  503    0 -0.28811053070E+03  0.30095877743E+02 -0.29934936834E+03  0.41656150096E+03  0.00000000000E+00 0. -1.
         -4    1    5    5    0  503 -0.99322768687E+02 -0.46215404687E+01 -0.48030403186E+02  0.11042323418E+03  0.00000000000E+00 0.  1.
         -3    1    6    6    0  502  0.14510419230E+03 -0.80123079305E+02 -0.41530988012E+02  0.17087936513E+03  0.00000000000E+00 0.  1.
<mgrwt>
<rscale>  0 0.14390132E+04</rscale>
<asrwt>0</asrwt>
<pdfrwt beam="1">  1        1 0.24336390E+00 0.14390132E+04</pdfrwt>
<pdfrwt beam="2">  1       -1 0.50348520E-01 0.14390132E+04</pdfrwt>
<totfact> 0.22111474E+01</totfact>
</mgrwt>
</event>
<event>
12    1  0.1549527E-007  0.1587053E+04  0.7818608E-02  0.8828541E-01
         -2   -1    0    0    0  501 -0.00000000000E+00  0.00000000000E+00  0.73833595573E+03  0.73833595573E+03  0.00000000000E+00 0.  1.
          2   -1    0    0  501    0  0.00000000000E+00 -0.00000000000E+00 -0.85284304209E+03  0.85284304209E+03  0.00000000000E+00 0. -1.
         23    2    1    2    0    0  0.28869903278E+03  0.45060273885E+03 -0.14801939918E+02  0.54305055682E+03  0.91076067367E+02 0.  0.
        254    2    1    2    0    0 -0.28869903278E+03 -0.45060273885E+03 -0.99705146442E+02  0.10481284410E+04  0.89567971555E+03 0.  0.
        -24    2    4    4    0    0 -0.19090858982E+03 -0.63095612122E+03  0.18308488622E+03  0.68933923001E+03  0.84361021211E+02 0.  0.
         24    2    4    4    0    0 -0.97790442960E+02  0.18035338237E+03 -0.28279003266E+03  0.35878921100E+03  0.81665060424E+02 0.  0.
         13    1    3    3    0    0  0.23560555955E+03  0.41213890830E+03  0.43452484874E+01  0.47474976631E+03  0.00000000000E+00 0. -1.
        -13    1    3    3    0    0  0.53093473230E+02  0.38463830548E+02 -0.19147188406E+02  0.68300790507E+02  0.00000000000E+00 0.  1.
          2    1    6    6  502    0 -0.58068263145E+01  0.80962082510E+02 -0.73477839644E+02  0.10948776623E+03  0.00000000000E+00 0. -1.
          1    1    5    5  503    0 -0.12761497242E+02 -0.93940320621E+01  0.13663687011E+02  0.20923670638E+02  0.00000000000E+00 0. -1.
         -2    1    5    5    0  503 -0.17814709258E+03 -0.62156208916E+03  0.16942119920E+03  0.66841555937E+03  0.00000000000E+00 0.  1.
         -1    1    6    6    0  502 -0.91983616646E+02  0.99391299862E+02 -0.20931219301E+03  0.24930144477E+03  0.00000000000E+00 0.  1.
<mgrwt>
<rscale>  0 0.15870535E+04</rscale>
<asrwt>0</asrwt>
<pdfrwt beam="1">  1        2 0.13120662E+00 0.15870535E+04</pdfrwt>
<pdfrwt beam="2">  1       -2 0.11359015E+00 0.15870535E+04</pdfrwt>
<totfact> 0.18429589E+01</totfact>
</mgrwt>
</event>
<event>
12    1  0.1549527E-007  0.1618594E+04  0.7818608E-02  0.8809206E-01
          2   -1    0    0  501    0  0.00000000000E+00  0.00000000000E+00  0.44884965323E+03  0.44884965323E+03  0.00000000000E+00 0. -1.
         -2   -1    0    0    0  501 -0.00000000000E+00 -0.00000000000E+00 -0.14591998122E+04  0.14591998122E+04  0.00000000000E+00 0.  1.
         23    2    1    2    0    0 -0.48247845819E+03  0.42926091919E+02 -0.65571861523E+03  0.82027415761E+03  0.90855265623E+02 0.  0.
        254    2    1    2    0    0  0.48247845819E+03 -0.42926091919E+02 -0.35463154371E+03  0.10877753078E+04  0.90711822629E+03 0.  0.
        -24    2    4    4    0    0  0.27931839398E+03 -0.17863793885E+03 -0.62745505856E+03  0.71419277977E+03  0.80257072855E+02 0.  0.
         24    2    4    4    0    0  0.20316006421E+03  0.13571184693E+03  0.27282351485E+03  0.37358252802E+03  0.73753087401E+02 0.  0.
         13    1    3    3    0    0 -0.10139634432E+03 -0.35470412633E+01 -0.20109396859E+03  0.22523894944E+03  0.00000000000E+00 0. -1.
        -13    1    3    3    0    0 -0.38108211387E+03  0.46473133182E+02 -0.45462464665E+03  0.59503520817E+03  0.00000000000E+00 0.  1.
          4    1    6    6  502    0  0.36982406346E+02 -0.48751184731E+01  0.45787985875E+02  0.59059332961E+02  0.00000000000E+00 0. -1.
          3    1    5    5  503    0  0.66996297022E+02 -0.30123603355E+02 -0.21399682283E+03  0.22625334357E+03  0.00000000000E+00 0. -1.
         -4    1    5    5    0  503  0.21232209696E+03 -0.14851433550E+03 -0.41345823573E+03  0.48793943620E+03  0.00000000000E+00 0.  1.
         -3    1    6    6    0  502  0.16617765786E+03  0.14058696541E+03  0.22703552898E+03  0.31452319506E+03  0.00000000000E+00 0.  1.
<mgrwt>
<rscale>  0 0.16185936E+04</rscale>
<asrwt>0</asrwt>
<pdfrwt beam="1">  1        2 0.69053793E-01 0.16185936E+04</pdfrwt>
<pdfrwt beam="2">  1       -2 0.22449228E+00 0.16185936E+04</pdfrwt>
<totfact> 0.61802250E+00</totfact>
</mgrwt>
</event>
<event>
12    1  0.1549527E-007  0.1477134E+04  0.7818608E-02  0.8899802E-01
          2   -1    0    0  501    0  0.00000000000E+00  0.00000000000E+00  0.17141197167E+04  0.17141197167E+04  0.00000000000E+00 0. -1.
         -2   -1    0    0    0  501 -0.00000000000E+00 -0.00000000000E+00 -0.31822823867E+03  0.31822823867E+03  0.00000000000E+00 0.  1.
         23    2    1    2    0    0  0.21488889974E+03  0.33130071353E+03  0.12533283160E+03  0.42386706650E+03  0.89540881025E+02 0.  0.
        254    2    1    2    0    0 -0.21488889974E+03 -0.33130071353E+03  0.12705586464E+04  0.16084808889E+04  0.90385512877E+03 0.  0.
        -24    2    4    4    0    0 -0.39842371702E+03  0.12298203531E+03  0.87928114606E+03  0.97641490612E+03  0.79904291437E+02 0.  0.
         24    2    4    4    0    0  0.18353481729E+03 -0.45428274884E+03  0.39127750039E+03  0.63206598275E+03  0.79696167984E+02 0.  0.
         11    1    3    3    0    0  0.44633399330E+02  0.63318741294E+02  0.64042958455E+02  0.10051320243E+03  0.00000000000E+00 0. -1.
        -11    1    3    3    0    0  0.17025550041E+03  0.26798197224E+03  0.61289873140E+02  0.32335386407E+03  0.00000000000E+00 0.  1.
          4    1    6    6  502    0  0.58522465980E+02 -0.24417437463E+03  0.21639594964E+03  0.33147128272E+03  0.00000000000E+00 0. -1.
          3    1    5    5  503    0 -0.36683960861E+02  0.33621375592E+02  0.74914025427E+02  0.89934537786E+02  0.00000000000E+00 0. -1.
         -2    1    5    5    0  503 -0.36173975616E+03  0.89360659717E+02  0.80436712063E+03  0.88648036834E+03  0.00000000000E+00 0.  1.
         -3    1    6    6    0  502  0.12501235131E+03 -0.21010837421E+03  0.17488155075E+03  0.30059470003E+03  0.00000000000E+00 0.  1.
<mgrwt>
<rscale>  0 0.14771341E+04</rscale>
<asrwt>0</asrwt>
<pdfrwt beam="1">  1        2 0.26371072E+00 0.14771341E+04</pdfrwt>
<pdfrwt beam="2">  1       -2 0.48958191E-01 0.14771341E+04</pdfrwt>
<totfact> 0.36817535E+01</totfact>
</mgrwt>
</event>
<event>
12    1  0.1549527E-007  0.1542066E+04  0.7818608E-02  0.8856951E-01
          2   -1    0    0  501    0  0.00000000000E+00  0.00000000000E+00  0.29555057191E+04  0.29555057191E+04  0.00000000000E+00 0.  1.
         -2   -1    0    0    0  501 -0.00000000000E+00 -0.00000000000E+00 -0.20114736262E+03  0.20114736262E+03  0.00000000000E+00 0. -1.
         23    2    1    2    0    0 -0.92198743764E+02  0.46652347663E+03  0.12834614187E+04  0.13717211053E+04  0.90558350609E+02 0.  0.
        254    2    1    2    0    0  0.92198743764E+02 -0.46652347663E+03  0.14708969378E+04  0.17849319764E+04  0.89235620480E+03 0.  0.
        -24    2    4    4    0    0 -0.16942405570E+03  0.13807329720E+03  0.78165326757E+02  0.24249143988E+03  0.70167899065E+02 0.  0.
         24    2    4    4    0    0  0.26162279947E+03 -0.60459677382E+03  0.13927316110E+04  0.15424405365E+04  0.73740899539E+02 0.  0.
         13    1    3    3    0    0 -0.40536361562E+02  0.96713435990E+02  0.37830362196E+03  0.39256886746E+03  0.00000000000E+00 0. -1.
        -13    1    3    3    0    0 -0.51662382202E+02  0.36981004064E+03  0.90515779678E+03  0.97915223789E+03  0.00000000000E+00 0.  1.
          4    1    6    6  502    0  0.68243028266E+02 -0.24159039867E+03  0.55843044292E+03  0.61226431484E+03  0.00000000000E+00 0. -1.
          1    1    5    5  503    0 -0.41686462910E+01  0.15038934846E+02  0.25407409104E+02  0.29817505103E+02  0.00000000000E+00 0. -1.
         -2    1    5    5    0  503 -0.16525540941E+03  0.12303436235E+03  0.52757917653E+02  0.21267393478E+03  0.00000000000E+00 0.  1.
         -1    1    6    6    0  502  0.19337977120E+03 -0.36300637515E+03  0.83430116808E+03  0.93017622167E+03  0.00000000000E+00 0.  1.
<mgrwt>
<rscale>  0 0.15420664E+04</rscale>
<asrwt>0</asrwt>
<pdfrwt beam="1">  1        2 0.45469316E+00 0.15420664E+04</pdfrwt>
<pdfrwt beam="2">  1       -2 0.30945750E-01 0.15420664E+04</pdfrwt>
<totfact> 0.17406392E+01</totfact>
</mgrwt>
</event>
<event>
12    1  0.1549527E-007  0.1342765E+04  0.7818608E-02  0.8996323E-01
          3   -1    0    0  501    0  0.00000000000E+00  0.00000000000E+00  0.36002996046E+03  0.36002996046E+03  0.00000000000E+00 0. -1.
         -3   -1    0    0    0  501 -0.00000000000E+00 -0.00000000000E+00 -0.12519907046E+04  0.12519907046E+04  0.00000000000E+00 0.  1.
         23    2    1    2    0    0  0.27668018911E+03 -0.13453970197E+03 -0.23111964279E+02  0.32190467938E+03  0.91845529330E+02 0.  0.
        254    2    1    2    0    0 -0.27668018911E+03  0.13453970197E+03 -0.86884877988E+03  0.12901159857E+04  0.90268942380E+03 0.  0.
        -24    2    4    4    0    0 -0.23384982085E+03  0.30437631475E+03  0.84578607823E+01  0.39179067988E+03  0.78087910298E+02 0.  0.
         24    2    4    4    0    0 -0.42830368257E+02 -0.16983661278E+03 -0.87730664066E+03  0.89832530584E+03  0.81501520669E+02 0.  0.
         11    1    3    3    0    0  0.26345242902E+03 -0.13962534829E+03 -0.38896807688E+02  0.30069150618E+03  0.00000000000E+00 0. -1.
        -11    1    3    3    0    0  0.13227760091E+02  0.50856463181E+01  0.15784843409E+02  0.21213173193E+02  0.00000000000E+00 0.  1.
          4    1    6    6  502    0 -0.51916155655E+02 -0.12697982513E+03 -0.49979021247E+03  0.51827542841E+03  0.00000000000E+00 0. -1.
          1    1    5    5  503    0 -0.64969215465E+02  0.14559101993E+03 -0.59319216157E+01  0.15953974970E+03  0.00000000000E+00 0. -1.
         -2    1    5    5    0  503 -0.16888060539E+03  0.15878529482E+03  0.14389782398E+02  0.23225093017E+03  0.00000000000E+00 0.  1.
         -3    1    6    6    0  502  0.90857873981E+01 -0.42856787645E+02 -0.37751642819E+03  0.38004987743E+03  0.00000000000E+00 0.  1.
<mgrwt>
<rscale>  0 0.13427646E+04</rscale>
<asrwt>0</asrwt>
<pdfrwt beam="1">  1        3 0.55389224E-01 0.13427646E+04</pdfrwt>
<pdfrwt beam="2">  1       -3 0.19261396E+00 0.13427646E+04</pdfrwt>
<totfact> 0.13433621E+00</totfact>
</mgrwt>
</event>
<event>
12    1  0.2035643E-007  0.1359879E+04  0.7818608E-02  0.8983384E-01
          2   -1    0    0  501    0  0.00000000000E+00  0.00000000000E+00  0.16437004174E+04  0.16437004174E+04  0.00000000000E+00 0. -1.
         -2   -1    0    0    0  501 -0.00000000000E+00 -0.00000000000E+00 -0.28126630187E+03  0.28126630187E+03  0.00000000000E+00 0.  1.
         23    2    1    2    0    0 -0.14063659622E+03  0.37677278540E+02 -0.10032496575E+03  0.20001751941E+03  0.93507645705E+02 0.  0.
        254    2    1    2    0    0  0.14063659622E+03 -0.37677278540E+02  0.14627590813E+04  0.17249491999E+04  0.90254494774E+03 0.  0.
        -24    2    4    4    0    0 -0.16646780747E+03 -0.38451402879E+03  0.86360713374E+03  0.96340295183E+03  0.82252032703E+02 0.  0.
         24    2    4    4    0    0  0.30710440369E+03  0.34683675025E+03  0.59915194758E+03  0.76154624805E+03  0.79754533116E+02 0.  0.
         13    1    3    3    0    0  0.71472114388E+01 -0.30618226537E+01  0.88784788201E+01  0.11801897113E+02  0.00000000000E+00 0. -1.
        -13    1    3    3    0    0 -0.14778380765E+03  0.40739101194E+02 -0.10920344457E+03  0.18821562230E+03  0.00000000000E+00 0.  1.
          4    1    6    6  502    0  0.56670058718E+01  0.38184600881E+02  0.52068716797E+02  0.64817667105E+02  0.00000000000E+00 0. -1.
          1    1    5    5  503    0 -0.32634680721E+01 -0.54817997672E+02  0.16430761357E+03  0.17324160866E+03  0.00000000000E+00 0. -1.
         -2    1    5    5    0  503 -0.16320433940E+03 -0.32969603112E+03  0.69929952017E+03  0.79016134317E+03  0.00000000000E+00 0.  1.
         -3    1    6    6    0  502  0.30143739782E+03  0.30865214937E+03  0.54708323078E+03  0.69672858095E+03  0.00000000000E+00 0.  1.
<mgrwt>
<rscale>  0 0.13598787E+04</rscale>
<asrwt>0</asrwt>
<pdfrwt beam="1">  1        2 0.25287698E+00 0.13598787E+04</pdfrwt>
<pdfrwt beam="2">  1       -2 0.43271740E-01 0.13598787E+04</pdfrwt>
<totfact> 0.52095896E+01</totfact>
</mgrwt>
</event>
<event>
12    1  0.1549527E-007  0.2586064E+04  0.7818608E-02  0.8372950E-01
         -2   -1    0    0    0  501 -0.00000000000E+00  0.00000000000E+00  0.95079916626E+03  0.95079916626E+03  0.00000000000E+00 0.  1.
          2   -1    0    0  501    0  0.00000000000E+00 -0.00000000000E+00 -0.17584487604E+04  0.17584487604E+04  0.00000000000E+00 0. -1.
         23    2    1    2    0    0  0.94464741738E+03  0.17810823292E+03 -0.98374230448E+03  0.13785255479E+04  0.92208887160E+02 0.  0.
        254    2    1    2    0    0 -0.94464741738E+03 -0.17810823292E+03  0.17609271038E+03  0.13307223787E+04  0.90317889741E+03 0.  0.
        -24    2    4    4    0    0 -0.34035522048E+03  0.15351018767E+03  0.44534543138E+03  0.58659672390E+03  0.79725211881E+02 0.  0.
         24    2    4    4    0    0 -0.60429219690E+03 -0.33161842059E+03 -0.26925272100E+03  0.74412565480E+03  0.78013628650E+02 0.  0.
         11    1    3    3    0    0  0.74184626241E+03  0.17725951580E+03 -0.78758108913E+03  0.10963762059E+04  0.00000000000E+00 0. -1.
        -11    1    3    3    0    0  0.20280115497E+03  0.84871712383E+00 -0.19616121535E+03  0.28214934199E+03  0.00000000000E+00 0.  1.
          2    1    6    6  502    0 -0.25869872525E+03 -0.13565855222E+03 -0.73411520034E+02  0.30119350011E+03  0.00000000000E+00 0. -1.
          1    1    5    5  503    0 -0.10458462941E+03  0.14746401442E+02  0.94720618732E+02  0.14187105652E+03  0.00000000000E+00 0. -1.
         -2    1    5    5    0  503 -0.23577059107E+03  0.13876378623E+03  0.35062481265E+03  0.44472566738E+03  0.00000000000E+00 0.  1.
         -3    1    6    6    0  502 -0.34559347165E+03 -0.19595986837E+03 -0.19584120097E+03  0.44293215469E+03  0.00000000000E+00 0.  1.
<mgrwt>
<rscale>  0 0.25860639E+04</rscale>
<asrwt>0</asrwt>
<pdfrwt beam="1">  1        2 0.27053057E+00 0.25860639E+04</pdfrwt>
<pdfrwt beam="2">  1       -2 0.14627680E+00 0.25860639E+04</pdfrwt>
<totfact> 0.25807554E+00</totfact>
</mgrwt>
</event>
<event>
12    1  0.1549527E-007  0.2158891E+04  0.7818608E-02  0.8535736E-01
          1   -1    0    0  501    0  0.00000000000E+00  0.00000000000E+00  0.27781958146E+04  0.27781958146E+04  0.00000000000E+00 0. -1.
         -1   -1    0    0    0  501 -0.00000000000E+00 -0.00000000000E+00 -0.41940982286E+03  0.41940982286E+03  0.00000000000E+00 0.  1.
         23    2    1    2    0    0  0.68967991781E+03 -0.12070533996E+03  0.16388342490E+03  0.72490624161E+03  0.91668500807E+02 0.  0.
        254    2    1    2    0    0 -0.68967991781E+03  0.12070533996E+03  0.21949025668E+04  0.24726993958E+04  0.89800715817E+03 0.  0.
        -24    2    4    4    0    0 -0.55097532476E+03  0.35237689281E+03  0.74070626552E+03  0.99154199784E+03  0.82258608085E+02 0.  0.
         24    2    4    4    0    0 -0.13870459305E+03 -0.23167155285E+03  0.14541963013E+04  0.14811573980E+04  0.78928336872E+02 0.  0.
         11    1    3    3    0    0  0.24067094621E+03 -0.28324027972E+02  0.99621706704E+02  0.26200999858E+03  0.00000000000E+00 0. -1.
        -11    1    3    3    0    0  0.44900897160E+03 -0.92381311993E+02  0.64261718191E+02  0.46289624303E+03  0.00000000000E+00 0.  1.
          4    1    6    6  502    0 -0.90822953567E+02 -0.20071088074E+03  0.12444126336E+04  0.12637628216E+04  0.00000000000E+00 0. -1.
          1    1    5    5  503    0 -0.48824795237E+03  0.27978397339E+03  0.61873557200E+03  0.83636047421E+03  0.00000000000E+00 0. -1.
         -2    1    5    5    0  503 -0.62727372394E+02  0.72592919418E+02  0.12197069352E+03  0.15518152363E+03  0.00000000000E+00 0.  1.
         -1    1    6    6    0  502 -0.47881639484E+02 -0.30960672108E+02  0.20978366765E+03  0.21739457636E+03  0.00000000000E+00 0.  1.
<mgrwt>
<rscale>  0 0.21588910E+04</rscale>
<asrwt>0</asrwt>
<pdfrwt beam="1">  1        1 0.42741473E+00 0.21588910E+04</pdfrwt>
<pdfrwt beam="2">  1       -1 0.64524590E-01 0.21588910E+04</pdfrwt>
<totfact> 0.19259242E+00</totfact>
</mgrwt>
</event>
<event>
12    1  0.1549527E-007  0.1837958E+04  0.7818608E-02  0.8686370E-01
         -1   -1    0    0    0  501 -0.00000000000E+00  0.00000000000E+00  0.73163049451E+03  0.73163049451E+03  0.00000000000E+00 0.  1.
          1   -1    0    0  501    0  0.00000000000E+00 -0.00000000000E+00 -0.11543019578E+04  0.11543019578E+04  0.00000000000E+00 0. -1.
         23    2    1    2    0    0  0.24635671308E+03 -0.62901918512E+03 -0.32169445967E+03  0.75383579726E+03  0.91784086425E+02 0.  0.
        254    2    1    2    0    0 -0.24635671308E+03  0.62901918512E+03 -0.10097700364E+03  0.11320966551E+04  0.90282319189E+03 0.  0.
        -24    2    4    4    0    0 -0.13994195381E+03  0.68171771269E+03 -0.39665299652E+03  0.80522070576E+03  0.81999970184E+02 0.  0.
         24    2    4    4    0    0 -0.10641475927E+03 -0.52698527567E+02  0.29567599288E+03  0.32687594930E+03  0.72954490388E+02 0.  0.
         13    1    3    3    0    0  0.45857690826E+02 -0.13926702363E+03 -0.11239705874E+03  0.18474666572E+03  0.00000000000E+00 0.  1.
        -13    1    3    3    0    0  0.20049902226E+03 -0.48975216149E+03 -0.20929740092E+03  0.56908913154E+03  0.00000000000E+00 0. -1.
          2    1    6    6  502    0 -0.27627247315E+02 -0.48792496221E+02  0.84151976032E+02  0.10112135062E+03  0.00000000000E+00 0. -1.
          3    1    5    5  503    0 -0.75249992947E+02  0.46575600327E+03 -0.23003031211E+03  0.52488585474E+03  0.00000000000E+00 0. -1.
         -4    1    5    5    0  503 -0.64691960865E+02  0.21596170942E+03 -0.16662268441E+03  0.28033485102E+03  0.00000000000E+00 0.  1.
         -3    1    6    6    0  502 -0.78787511957E+02 -0.39060313463E+01  0.21152401685E+03  0.22575459868E+03  0.00000000000E+00 0.  1.
<mgrwt>
<rscale>  0 0.18379581E+04</rscale>
<asrwt>0</asrwt>
<pdfrwt beam="1">  1        1 0.17758492E+00 0.18379581E+04</pdfrwt>
<pdfrwt beam="2">  1       -1 0.11255854E+00 0.18379581E+04</pdfrwt>
<totfact> 0.78488369E+00</totfact>
</mgrwt>
</event>
<event>
12    1  0.2319328E-007  0.1963616E+04  0.7818608E-02  0.8623823E-01
          2   -1    0    0  501    0  0.00000000000E+00  0.00000000000E+00  0.20020809252E+04  0.20020809252E+04  0.00000000000E+00 0. -1.
         -2   -1    0    0    0  501 -0.00000000000E+00 -0.00000000000E+00 -0.48147264125E+03  0.48147264125E+03  0.00000000000E+00 0.  1.
         23    2    1    2    0    0  0.11132287614E+03 -0.38926271518E+03  0.14359947292E+04  0.14946737388E+04  0.89724461378E+02 0.  0.
        254    2    1    2    0    0 -0.11132287614E+03  0.38926271518E+03  0.84613554717E+02  0.98887982763E+03  0.89822358891E+03 0.  0.
        -24    2    4    4    0    0  0.72517462904E+01 -0.22546112522E+03  0.23823917788E+03  0.33933530830E+03  0.86632781158E+02 0.  0.
         24    2    4    4    0    0 -0.11857462243E+03  0.61472384040E+03 -0.15362562317E+03  0.64954451933E+03  0.79761578814E+02 0.  0.
         13    1    3    3    0    0  0.28710202861E+02 -0.15366632573E+03  0.70820172951E+03  0.72524982254E+03  0.00000000000E+00 0. -1.
        -13    1    3    3    0    0  0.82612673279E+02 -0.23559638945E+03  0.72779299968E+03  0.76942391624E+03  0.00000000000E+00 0.  1.
          4    1    6    6  502    0 -0.12572319906E+03  0.51501884669E+03 -0.14254316917E+03  0.54897111974E+03  0.00000000000E+00 0. -1.
          3    1    5    5  503    0  0.23352239822E+02 -0.21435061752E+03  0.23596442961E+03  0.31964155922E+03  0.00000000000E+00 0. -1.
         -4    1    5    5    0  503 -0.16100493531E+02 -0.11110507702E+02  0.22747482710E+01  0.19693749086E+02  0.00000000000E+00 0.  1.
         -3    1    6    6    0  502  0.71485766342E+01  0.99704993711E+02 -0.11082453999E+02  0.10057339959E+03  0.00000000000E+00 0.  1.
<mgrwt>
<rscale>  0 0.19636162E+04</rscale>
<asrwt>0</asrwt>
<pdfrwt beam="1">  1        2 0.30801244E+00 0.19636162E+04</pdfrwt>
<pdfrwt beam="2">  1       -2 0.74072715E-01 0.19636162E+04</pdfrwt>
<totfact> 0.10190883E+01</totfact>
</mgrwt>
</event>
<event>
12    1  0.1549527E-007  0.1320680E+04  0.7818608E-02  0.9013325E-01
         -1   -1    0    0    0  501 -0.00000000000E+00  0.00000000000E+00  0.35063942519E+03  0.35063942519E+03  0.00000000000E+00 0.  1.
          1   -1    0    0  501    0  0.00000000000E+00 -0.00000000000E+00 -0.12435816127E+04  0.12435816127E+04  0.00000000000E+00 0. -1.
         23    2    1    2    0    0  0.32256316770E+03  0.10316531930E+03 -0.31511357827E+03  0.47119899952E+03  0.89676360719E+02 0.  0.
        254    2    1    2    0    0 -0.32256316770E+03 -0.10316531930E+03 -0.57782860924E+03  0.11230220384E+04  0.90144468314E+03 0.  0.
        -24    2    4    4    0    0 -0.15142691926E+03  0.29969699326E+03 -0.58427095517E+03  0.67864805942E+03  0.80263564956E+02 0.  0.
         24    2    4    4    0    0 -0.17113624845E+03 -0.40286231256E+03  0.64423459290E+01  0.44437397896E+03  0.76426899339E+02 0.  0.
         11    1    3    3    0    0  0.39981592671E+01  0.20670635580E+02 -0.22943889092E+02  0.31139725424E+02  0.00000000000E+00 0. -1.
        -11    1    3    3    0    0  0.31856500843E+03  0.82494683718E+02 -0.29216968918E+03  0.44005927409E+03  0.00000000000E+00 0.  1.
          2    1    6    6  502    0 -0.12027129001E+02 -0.10391968638E+03 -0.11546465351E+02  0.10524862903E+03  0.00000000000E+00 0. -1.
          1    1    5    5  503    0 -0.13290056764E+03  0.29820090829E+03 -0.54760676100E+03  0.63754176905E+03  0.00000000000E+00 0. -1.
         -4    1    5    5    0  503 -0.18526351617E+02  0.14960849671E+01 -0.36664194168E+02  0.41106290376E+02  0.00000000000E+00 0.  1.
         -1    1    6    6    0  502 -0.15910911944E+03 -0.29894262618E+03  0.17988811280E+02  0.33912534993E+03  0.00000000000E+00 0.  1.
<mgrwt>
<rscale>  0 0.13206797E+04</rscale>
<asrwt>0</asrwt>
<pdfrwt beam="1">  1        1 0.19132025E+00 0.13206797E+04</pdfrwt>
<pdfrwt beam="2">  1       -1 0.53944526E-01 0.13206797E+04</pdfrwt>
<totfact> 0.33797030E+01</totfact>
</mgrwt>
</event>
<event>
12    1  0.1549527E-007  0.1517731E+04  0.7818608E-02  0.8872747E-01
          2   -1    0    0  501    0  0.00000000000E+00  0.00000000000E+00  0.30275830983E+03  0.30275830983E+03  0.00000000000E+00 0.  1.
         -2   -1    0    0    0  501 -0.00000000000E+00 -0.00000000000E+00 -0.19021012050E+04  0.19021012050E+04  0.00000000000E+00 0. -1.
         23    2    1    2    0    0 -0.45064863955E+03  0.17333720662E+03 -0.46719252869E+03  0.67780490945E+03  0.89558097803E+02 0.  0.
        254    2    1    2    0    0  0.45064863955E+03 -0.17333720662E+03 -0.11321503665E+04  0.15270546054E+04  0.90388125992E+03 0.  0.
        -24    2    4    4    0    0  0.82604857043E+02 -0.67275759304E+02  0.14269416253E+03  0.19365930841E+03  0.76109877917E+02 0.  0.
         24    2    4    4    0    0  0.36804378251E+03 -0.10606144732E+03 -0.12748445291E+04  0.13333952970E+04  0.77518955110E+02 0.  0.
         13    1    3    3    0    0 -0.38625478173E+03  0.15277907454E+03 -0.43958518288E+03  0.60478866973E+03  0.00000000000E+00 0. -1.
        -13    1    3    3    0    0 -0.64393857823E+02  0.20558132077E+02 -0.27607345804E+02  0.73016239715E+02  0.00000000000E+00 0.  1.
          2    1    6    6  502    0  0.37121518134E+03 -0.10816334043E+03 -0.12558741776E+04  0.13140471716E+04  0.00000000000E+00 0. -1.
          3    1    5    5  503    0  0.51848470875E+02 -0.37220650611E+02  0.13587514401E+03  0.15011893792E+03  0.00000000000E+00 0. -1.
         -4    1    5    5    0  503  0.30756386168E+02 -0.30055108693E+02  0.68190185252E+01  0.43540370489E+02  0.00000000000E+00 0.  1.
         -1    1    6    6    0  502 -0.31713988335E+01  0.21018931117E+01 -0.18970351451E+02  0.19348125475E+02  0.00000000000E+00 0.  1.
<mgrwt>
<rscale>  0 0.15177311E+04</rscale>
<asrwt>0</asrwt>
<pdfrwt beam="1">  1        2 0.46578202E-01 0.15177311E+04</pdfrwt>
<pdfrwt beam="2">  1       -2 0.29263095E+00 0.15177311E+04</pdfrwt>
<totfact> 0.37087152E+00</totfact>
</mgrwt>
</event>
<event>
12    1  0.1549527E-007  0.1218433E+04  0.7818608E-02  0.9096874E-01
         -1   -1    0    0    0  501 -0.00000000000E+00  0.00000000000E+00  0.10549276896E+04  0.10549276896E+04  0.00000000000E+00 0.  1.
          1   -1    0    0  501    0  0.00000000000E+00 -0.00000000000E+00 -0.35181988272E+03  0.35181988272E+03  0.00000000000E+00 0. -1.
         23    2    1    2    0    0 -0.22963773729E+03 -0.28837163807E+02  0.31270344430E+03  0.39902477501E+03  0.88725726755E+02 0.  0.
        254    2    1    2    0    0  0.22963773729E+03  0.28837163807E+02  0.39040436256E+03  0.10077227973E+04  0.89973584871E+03 0.  0.
        -24    2    4    4    0    0  0.39077306398E+03  0.31317264598E+03  0.18937014559E+02  0.50728166992E+03  0.78710789580E+02 0.  0.
         24    2    4    4    0    0 -0.16113532669E+03 -0.28433548217E+03  0.37146734800E+03  0.50044112736E+03  0.75113723128E+02 0.  0.
         13    1    3    3    0    0 -0.26990171273E+02 -0.92948362800E+01  0.34214002580E+01  0.28750118374E+02  0.00000000000E+00 0. -1.
        -13    1    3    3    0    0 -0.20264756602E+03 -0.19542327527E+02  0.30928204404E+03  0.37027465663E+03  0.00000000000E+00 0.  1.
          4    1    6    6  502    0 -0.13253927218E+03 -0.20198356213E+03  0.31335913339E+03  0.39567406349E+03  0.00000000000E+00 0. -1.
          3    1    5    5  503    0  0.32324572694E+03  0.24222032783E+03 -0.13345071411E+02  0.40414920280E+03  0.00000000000E+00 0. -1.
         -4    1    5    5    0  503  0.67527337040E+02  0.70952318151E+02  0.32282085970E+02  0.10313246712E+03  0.00000000000E+00 0.  1.
         -3    1    6    6    0  502 -0.28596054505E+02 -0.82351920040E+02  0.58108214605E+02  0.10476706387E+03  0.00000000000E+00 0.  1.
<mgrwt>
<rscale>  0 0.12184327E+04</rscale>
<asrwt>0</asrwt>
<pdfrwt beam="1">  1        1 0.54126136E-01 0.12184327E+04</pdfrwt>
<pdfrwt beam="2">  1       -1 0.16229657E+00 0.12184327E+04</pdfrwt>
<totfact> 0.19741669E+01</totfact>
</mgrwt>
</event>
<event>
12    1  0.1549527E-007  0.2199028E+04  0.7818608E-02  0.8518833E-01
         -1   -1    0    0    0  501 -0.00000000000E+00  0.00000000000E+00  0.50018838593E+03  0.50018838593E+03  0.00000000000E+00 0.  1.
          1   -1    0    0  501    0  0.00000000000E+00 -0.00000000000E+00 -0.24169503890E+04  0.24169503890E+04  0.00000000000E+00 0. -1.
         23    2    1    2    0    0  0.73129381081E+03 -0.40995384942E+03 -0.13010967161E+04  0.15505221189E+04  0.91724479739E+02 0.  0.
        254    2    1    2    0    0 -0.73129381081E+03  0.40995384942E+03 -0.61566528704E+03  0.13666166561E+04  0.88642232748E+03 0.  0.
        -24    2    4    4    0    0 -0.52266594709E+03  0.49019628196E+03 -0.15468286355E+02  0.72111745452E+03  0.79366417493E+02 0.  0.
         24    2    4    4    0    0 -0.20862786371E+03 -0.80242432538E+02 -0.60019700068E+03  0.64549920157E+03  0.80426028767E+02 0.  0.
         11    1    3    3    0    0  0.70654273622E+03 -0.40229699217E+03 -0.12829776166E+04  0.15189065385E+04  0.00000000000E+00 0. -1.
        -11    1    3    3    0    0  0.24751074585E+02 -0.76568572523E+01 -0.18119099431E+02  0.31615580340E+02  0.00000000000E+00 0.  1.
          4    1    6    6  502    0 -0.19393073173E+02 -0.33272385288E+02 -0.15057114883E+03  0.15541818996E+03  0.00000000000E+00 0. -1.
          1    1    5    5  503    0 -0.39999673428E+02  0.13422579356E+02  0.41440810576E+01  0.42394727488E+02  0.00000000000E+00 0. -1.
         -2    1    5    5    0  503 -0.48266627366E+03  0.47677370261E+03 -0.19612367412E+02  0.67872272703E+03  0.00000000000E+00 0.  1.
         -3    1    6    6    0  502 -0.18923479054E+03 -0.46970047250E+02 -0.44962585185E+03  0.49008101161E+03  0.00000000000E+00 0.  1.
<mgrwt>
<rscale>  0 0.21990275E+04</rscale>
<asrwt>0</asrwt>
<pdfrwt beam="1">  1        1 0.37183852E+00 0.21990275E+04</pdfrwt>
<pdfrwt beam="2">  1       -1 0.76952059E-01 0.21990275E+04</pdfrwt>
<totfact> 0.23884284E+00</totfact>
</mgrwt>
</event>
<event>
12    1  0.1549527E-007  0.1588265E+04  0.7818608E-02  0.8827790E-01
         -1   -1    0    0    0  501 -0.00000000000E+00  0.00000000000E+00  0.30190905704E+03  0.30190905704E+03  0.00000000000E+00 0. -1.
          1   -1    0    0  501    0  0.00000000000E+00 -0.00000000000E+00 -0.20888630944E+04  0.20888630944E+04  0.00000000000E+00 0.  1.
         23    2    1    2    0    0 -0.24221140912E+03 -0.18421260743E+03 -0.12813612944E+04  0.13188997487E+04  0.70775200105E+02 0.  0.
        254    2    1    2    0    0  0.24221140912E+03  0.18421260743E+03 -0.50559274294E+03  0.10718724027E+04  0.89481046847E+03 0.  0.
        -24    2    4    4    0    0  0.25564417570E+03  0.18906394479E+03 -0.74685091252E+03  0.81653570886E+03  0.88572899457E+02 0.  0.
         24    2    4    4    0    0 -0.13432766585E+02 -0.48513373637E+01  0.24125816958E+03  0.25533669383E+03  0.82385363607E+02 0.  0.
         13    1    3    3    0    0 -0.41299087286E+02 -0.50045131655E+02 -0.17959880225E+03  0.19096036128E+03  0.00000000000E+00 0. -1.
        -13    1    3    3    0    0 -0.20091232183E+03 -0.13416747578E+03 -0.11017624922E+04  0.11279393875E+04  0.00000000000E+00 0.  1.
          4    1    6    6  502    0  0.23703587595E+01  0.55703428575E+01  0.23546096208E+03  0.23553876960E+03  0.00000000000E+00 0. -1.
          3    1    5    5  503    0  0.18276564876E+03  0.13364991215E+03 -0.62036516308E+03  0.66039269904E+03  0.00000000000E+00 0. -1.
         -4    1    5    5    0  503  0.72878526939E+02  0.55414032648E+02 -0.12648574943E+03  0.15614300981E+03  0.00000000000E+00 0.  1.
         -3    1    6    6    0  502 -0.15803125344E+02 -0.10421680221E+02  0.57972075011E+01  0.19797924237E+02  0.00000000000E+00 0.  1.
<mgrwt>
<rscale>  0 0.15882653E+04</rscale>
<asrwt>0</asrwt>
<pdfrwt beam="1">  1        1 0.32136354E+00 0.15882653E+04</pdfrwt>
<pdfrwt beam="2">  1       -1 0.46447549E-01 0.15882653E+04</pdfrwt>
<totfact> 0.11502366E+01</totfact>
</mgrwt>
</event>
<event>
12    1  0.1549527E-007  0.1837181E+04  0.7818608E-02  0.8686773E-01
         -2   -1    0    0    0  501 -0.00000000000E+00  0.00000000000E+00  0.25755094369E+03  0.25755094369E+03  0.00000000000E+00 0.  1.
          2   -1    0    0  501    0  0.00000000000E+00 -0.00000000000E+00 -0.32762779144E+04  0.32762779144E+04  0.00000000000E+00 0. -1.
         23    2    1    2    0    0  0.42631510615E+01  0.19883678919E+03  0.12978338376E+03  0.25390577734E+03  0.89834146491E+02 0.  0.
        254    2    1    2    0    0 -0.42631510615E+01 -0.19883678919E+03 -0.31485103545E+04  0.32799230808E+04  0.89734258805E+03 0.  0.
        -24    2    4    4    0    0  0.17852341368E+03  0.26208603516E+03 -0.19968430052E+04  0.20234685631E+04  0.80519185288E+02 0.  0.
         24    2    4    4    0    0 -0.18278656474E+03 -0.46092282435E+03 -0.11516673493E+04  0.12564545177E+04  0.80495300684E+02 0.  0.
         11    1    3    3    0    0 -0.27837162256E+02  0.77699385431E+02  0.90705252755E+02  0.12263582256E+03  0.00000000000E+00 0.  1.
        -11    1    3    3    0    0  0.32100313318E+02  0.12113740376E+03  0.39078131003E+02  0.13126995478E+03  0.00000000000E+00 0. -1.
          4    1    6    6  502    0 -0.10394616502E+03 -0.34490839809E+03 -0.77882336294E+03  0.85809815229E+03  0.00000000000E+00 0. -1.
          3    1    5    5  503    0  0.10794984284E+02  0.22826205335E+02 -0.34961200937E+03  0.35052264467E+03  0.00000000000E+00 0. -1.
         -4    1    5    5    0  503  0.16772842940E+03  0.23925982983E+03 -0.16472309958E+04  0.16729459184E+04  0.00000000000E+00 0.  1.
         -3    1    6    6    0  502 -0.78840399717E+02 -0.11601442627E+03 -0.37284398635E+03  0.39835636544E+03  0.00000000000E+00 0.  1.
<mgrwt>
<rscale>  0 0.18371810E+04</rscale>
<asrwt>0</asrwt>
<pdfrwt beam="1">  1        2 0.50404275E+00 0.18371810E+04</pdfrwt>
<pdfrwt beam="2">  1       -2 0.39623223E-01 0.18371810E+04</pdfrwt>
<totfact> 0.65874952E+00</totfact>
</mgrwt>
</event>
<event>
12    1  0.1549527E-007  0.1596059E+04  0.7818608E-02  0.8822973E-01
          2   -1    0    0  501    0  0.00000000000E+00  0.00000000000E+00  0.13372900857E+04  0.13372900857E+04  0.00000000000E+00 0. -1.
         -2   -1    0    0    0  501 -0.00000000000E+00 -0.00000000000E+00 -0.47622497133E+03  0.47622497133E+03  0.00000000000E+00 0.  1.
         23    2    1    2    0    0  0.41491934438E+03  0.20962604758E+03 -0.39543221712E+02  0.47506897257E+03  0.89586383739E+02 0.  0.
        254    2    1    2    0    0 -0.41491934438E+03 -0.20962604758E+03  0.90060833606E+03  0.13384460844E+04  0.87420901608E+03 0.  0.
        -24    2    4    4    0    0 -0.30070431198E+03  0.31205270707E+03  0.49670841413E+03  0.66415770150E+03  0.81155582426E+02 0.  0.
         24    2    4    4    0    0 -0.11421503240E+03 -0.52167875465E+03  0.40389992193E+03  0.67428838294E+03  0.79598239617E+02 0.  0.
         13    1    3    3    0    0  0.30555791289E+03  0.13386024658E+03 -0.64324563674E+02  0.33973791846E+03  0.00000000000E+00 0.  1.
        -13    1    3    3    0    0  0.10936143149E+03  0.75765800998E+02  0.24781341962E+02  0.13533105411E+03  0.00000000000E+00 0. -1.
          4    1    6    6  502    0  0.52356409163E+01 -0.21402720583E+02  0.31519911223E+01  0.22258109358E+02  0.00000000000E+00 0. -1.
          1    1    5    5  503    0 -0.11476737802E+03  0.65689203601E+02  0.14828493552E+03  0.19868327718E+03  0.00000000000E+00 0. -1.
         -2    1    5    5    0  503 -0.18593693396E+03  0.24636350347E+03  0.34842347861E+03  0.46547442432E+03  0.00000000000E+00 0.  1.
         -3    1    6    6    0  502 -0.11945067331E+03 -0.50027603406E+03  0.40074793081E+03  0.65203027358E+03  0.00000000000E+00 0.  1.
<mgrwt>
<rscale>  0 0.15960588E+04</rscale>
<asrwt>0</asrwt>
<pdfrwt beam="1">  1        2 0.20573694E+00 0.15960588E+04</pdfrwt>
<pdfrwt beam="2">  1       -2 0.73265380E-01 0.15960588E+04</pdfrwt>
<totfact> 0.25368737E+01</totfact>
</mgrwt>
</event>
<event>
12    1  0.1549527E-007  0.1329712E+04  0.7818608E-02  0.9006330E-01
         -2   -1    0    0    0  501 -0.00000000000E+00  0.00000000000E+00  0.71890376219E+03  0.71890376219E+03  0.00000000000E+00 0.  1.
          2   -1    0    0  501    0  0.00000000000E+00 -0.00000000000E+00 -0.61487160356E+03  0.61487160356E+03  0.00000000000E+00 0. -1.
         23    2    1    2    0    0  0.69197729315E+02 -0.20785345083E+03  0.31835406071E+03  0.39733707018E+03  0.92390782008E+02 0.  0.
        254    2    1    2    0    0 -0.69197729315E+02  0.20785345083E+03 -0.21432190208E+03  0.93643829557E+03  0.88486802459E+03 0.  0.
        -24    2    4    4    0    0 -0.29419878208E+03  0.17073364090E+03 -0.46899124901E+03  0.58504289688E+03  0.81360309960E+02 0.  0.
         24    2    4    4    0    0  0.22500105276E+03  0.37119809931E+02  0.25466934693E+03  0.35139539869E+03  0.81356597289E+02 0.  0.
         13    1    3    3    0    0  0.11166982737E+02 -0.16461325957E+03  0.23161892284E+03  0.28437572356E+03  0.00000000000E+00 0.  1.
        -13    1    3    3    0    0  0.58030746578E+02 -0.43240191254E+02  0.86735137870E+02  0.11296134662E+03  0.00000000000E+00 0. -1.
          2    1    6    6  502    0  0.13041460137E+03  0.76642683616E+01  0.88025376637E+02  0.15752833457E+03  0.00000000000E+00 0. -1.
          3    1    5    5  503    0 -0.11495819414E+03  0.45688678496E+02 -0.11429798248E+03  0.16842467320E+03  0.00000000000E+00 0. -1.
         -4    1    5    5    0  503 -0.17924058793E+03  0.12504496240E+03 -0.35469326653E+03  0.41661822368E+03  0.00000000000E+00 0.  1.
         -1    1    6    6    0  502  0.94586451388E+02  0.29455541569E+02  0.16664397029E+03  0.19386706412E+03  0.00000000000E+00 0.  1.
<mgrwt>
<rscale>  0 0.13297120E+04</rscale>
<asrwt>0</asrwt>
<pdfrwt beam="1">  1        2 0.94595631E-01 0.13297120E+04</pdfrwt>
<pdfrwt beam="2">  1       -2 0.11060058E+00 0.13297120E+04</pdfrwt>
<totfact> 0.30533888E+01</totfact>
</mgrwt>
</event>
<event>
12    1  0.1549527E-007  0.2257409E+04  0.7818608E-02  0.8494906E-01
         -1   -1    0    0    0  501 -0.00000000000E+00  0.00000000000E+00  0.21003320508E+04  0.21003320508E+04  0.00000000000E+00 0.  1.
          1   -1    0    0  501    0  0.00000000000E+00 -0.00000000000E+00 -0.60655855527E+03  0.60655855527E+03  0.00000000000E+00 0. -1.
         23    2    1    2    0    0 -0.69887049999E+03  0.50835663112E+03  0.11074598988E+04  0.14077999622E+04  0.92665344641E+02 0.  0.
        254    2    1    2    0    0  0.69887049999E+03 -0.50835663112E+03  0.38631359677E+03  0.12990906438E+04  0.88969200610E+03 0.  0.
        -24    2    4    4    0    0  0.82112117277E+03 -0.29792550905E+03  0.50989750968E+03  0.10146127463E+04  0.80274313121E+02 0.  0.
         24    2    4    4    0    0 -0.12225067278E+03 -0.21043112206E+03 -0.12358391292E+03  0.28447789750E+03  0.80176096845E+02 0.  0.
         11    1    3    3    0    0 -0.59391874577E+03  0.39872238792E+03  0.94862665170E+03  0.11881125972E+04  0.00000000000E+00 0.  1.
        -11    1    3    3    0    0 -0.10495175422E+03  0.10963424320E+03  0.15883324706E+03  0.21968736506E+03  0.00000000000E+00 0. -1.
          4    1    6    6  502    0 -0.19379202982E+02 -0.16230709655E+02 -0.44005811955E+02  0.50749393395E+02  0.00000000000E+00 0. -1.
          1    1    5    5  503    0  0.11801587385E+03 -0.67452339439E+02  0.99933404133E+02  0.16871351409E+03  0.00000000000E+00 0. -1.
         -2    1    5    5    0  503  0.70310529892E+03 -0.23047316962E+03  0.40996410555E+03  0.84589923225E+03  0.00000000000E+00 0.  1.
         -3    1    6    6    0  502 -0.10287146980E+03 -0.19420041241E+03 -0.79578100962E+02  0.23372850410E+03  0.00000000000E+00 0.  1.
<mgrwt>
<rscale>  0 0.22574095E+04</rscale>
<asrwt>0</asrwt>
<pdfrwt beam="1">  1        1 0.93316702E-01 0.22574095E+04</pdfrwt>
<pdfrwt beam="2">  1       -1 0.32312800E+00 0.22574095E+04</pdfrwt>
<totfact> 0.71452364E-01</totfact>
</mgrwt>
</event>
<event>
12    1  0.1549527E-007  0.2289030E+04  0.7818608E-02  0.8482259E-01
          1   -1    0    0  501    0  0.00000000000E+00  0.00000000000E+00  0.31745311916E+04  0.31745311916E+04  0.00000000000E+00 0. -1.
         -1   -1    0    0    0  501 -0.00000000000E+00 -0.00000000000E+00 -0.41263242802E+03  0.41263242802E+03  0.00000000000E+00 0.  1.
         23    2    1    2    0    0  0.70954222301E+03  0.39635396466E+03  0.19795546546E+04  0.21417923144E+04  0.89950296243E+02 0.  0.
        254    2    1    2    0    0 -0.70954222301E+03 -0.39635396466E+03  0.78234410893E+03  0.14453713052E+04  0.90359796015E+03 0.  0.
        -24    2    4    4    0    0 -0.64446199065E+03  0.13888949729E+03  0.35808525521E+03  0.75453571545E+03  0.80483203473E+02 0.  0.
         24    2    4    4    0    0 -0.65080232366E+02 -0.53524346195E+03  0.42425885372E+03  0.69083558975E+03  0.80853181191E+02 0.  0.
         13    1    3    3    0    0  0.48916416680E+02  0.39097692771E+02  0.10321565936E+03  0.12072662398E+03  0.00000000000E+00 0. -1.
        -13    1    3    3    0    0  0.66062580633E+03  0.35725627189E+03  0.18763389953E+04  0.20210656904E+04  0.00000000000E+00 0.  1.
          4    1    6    6  502    0 -0.63381441684E+02 -0.30947612545E+03  0.28572732438E+03  0.42594927312E+03  0.00000000000E+00 0. -1.
          3    1    5    5  503    0 -0.14879207470E+03 -0.37154420359E+00  0.92631152993E+02  0.17527050535E+03  0.00000000000E+00 0. -1.
         -4    1    5    5    0  503 -0.49566991594E+03  0.13926104150E+03  0.26545410222E+03  0.57926521010E+03  0.00000000000E+00 0.  1.
         -3    1    6    6    0  502 -0.16987906824E+01 -0.22576733650E+03  0.13853152934E+03  0.26488631663E+03  0.00000000000E+00 0.  1.
<mgrwt>
<rscale>  0 0.22890299E+04</rscale>
<asrwt>0</asrwt>
<pdfrwt beam="1">  1        1 0.48838940E+00 0.22890299E+04</pdfrwt>
<pdfrwt beam="2">  1       -1 0.63481914E-01 0.22890299E+04</pdfrwt>
<totfact> 0.10123895E+00</totfact>
</mgrwt>
</event>
<event>
12    1  0.1549527E-007  0.1288487E+04  0.7818608E-02  0.9038746E-01
          2   -1    0    0  501    0  0.00000000000E+00  0.00000000000E+00  0.21977854016E+04  0.21977854016E+04  0.00000000000E+00 0. -1.
         -2   -1    0    0    0  501 -0.00000000000E+00 -0.00000000000E+00 -0.18884893272E+03  0.18884893272E+03  0.00000000000E+00 0.  1.
         23    2    1    2    0    0 -0.10780332136E+03 -0.28216562598E+03  0.74985035234E+03  0.81340007234E+03  0.90028496615E+02 0.  0.
        254    2    1    2    0    0  0.10780332136E+03  0.28216562598E+03  0.12590861166E+04  0.15732342620E+04  0.89360460923E+03 0.  0.
        -24    2    4    4    0    0 -0.10252209674E+03  0.96102277397E+02  0.12710010115E+04  0.12813182342E+04  0.81156750097E+02 0.  0.
         24    2    4    4    0    0  0.21032541811E+03  0.18606334858E+03 -0.11914894917E+02  0.29191602779E+03  0.78845744165E+02 0.  0.
         13    1    3    3    0    0 -0.76679576645E+02 -0.21552780179E+03  0.65216319084E+03  0.69112142081E+03  0.00000000000E+00 0. -1.
        -13    1    3    3    0    0 -0.31123744719E+02 -0.66637824194E+02  0.97687161495E+02  0.12227865153E+03  0.00000000000E+00 0.  1.
          4    1    6    6  502    0  0.12878612142E+03  0.69637647016E+02  0.15264306596E+02  0.14720144703E+03  0.00000000000E+00 0. -1.
          3    1    5    5  503    0 -0.10466642356E+03  0.74926226058E+02  0.84128898096E+03  0.85107940233E+03  0.00000000000E+00 0. -1.
         -4    1    5    5    0  503  0.21443268174E+01  0.21176051339E+02  0.42971203053E+03  0.43023883189E+03  0.00000000000E+00 0.  1.
         -3    1    6    6    0  502  0.81539296688E+02  0.11642570157E+03 -0.27179201513E+02  0.14471458076E+03  0.00000000000E+00 0.  1.
<mgrwt>
<rscale>  0 0.12884866E+04</rscale>
<asrwt>0</asrwt>
<pdfrwt beam="1">  1        2 0.33812081E+00 0.12884866E+04</pdfrwt>
<pdfrwt beam="2">  1       -2 0.29053684E-01 0.12884866E+04</pdfrwt>
<totfact> 0.55419135E+01</totfact>
</mgrwt>
</event>
<event>
12    1  0.1549527E-007  0.3408693E+04  0.7818608E-02  0.8135776E-01
          2   -1    0    0  501    0  0.00000000000E+00  0.00000000000E+00  0.14496533099E+04  0.14496533099E+04  0.00000000000E+00 0. -1.
         -2   -1    0    0    0  501 -0.00000000000E+00 -0.00000000000E+00 -0.20037877486E+04  0.20037877486E+04  0.00000000000E+00 0.  1.
         23    2    1    2    0    0  0.13025892462E+04  0.50898421230E+03  0.50492266965E+03  0.14896089931E+04  0.90467547214E+02 0.  0.
        254    2    1    2    0    0 -0.13025892462E+04 -0.50898421230E+03 -0.10590571084E+04  0.19638320655E+04  0.88274047701E+03 0.  0.
        -24    2    4    4    0    0 -0.10122253028E+04  0.20451830176E+02 -0.47977741132E+03  0.11232566102E+04  0.80626961961E+02 0.  0.
         24    2    4    4    0    0 -0.29036394343E+03 -0.52943604247E+03 -0.57927969705E+03  0.84057545523E+03  0.79927378337E+02 0.  0.
         11    1    3    3    0    0  0.10685090797E+04  0.39585084291E+03  0.38001999575E+03  0.12011763986E+04  0.00000000000E+00 0. -1.
        -11    1    3    3    0    0  0.23408016652E+03  0.11313336939E+03  0.12490267390E+03  0.28843259450E+03  0.00000000000E+00 0.  1.
          4    1    6    6  502    0 -0.16599375677E+03 -0.29985192719E+03 -0.38274074213E+03  0.51376607635E+03  0.00000000000E+00 0. -1.
          3    1    5    5  503    0 -0.61329885025E+03  0.38142305623E+01 -0.24775223955E+03  0.66146141254E+03  0.00000000000E+00 0. -1.
         -4    1    5    5    0  503 -0.39892645256E+03  0.16637599614E+02 -0.23202517177E+03  0.46179519769E+03  0.00000000000E+00 0.  1.
         -3    1    6    6    0  502 -0.12437018666E+03 -0.22958411529E+03 -0.19653895492E+03  0.32680937888E+03  0.00000000000E+00 0.  1.
<mgrwt>
<rscale>  0 0.34086933E+04</rscale>
<asrwt>0</asrwt>
<pdfrwt beam="1">  1        2 0.22302359E+00 0.34086933E+04</pdfrwt>
<pdfrwt beam="2">  1       -2 0.30827504E+00 0.34086933E+04</pdfrwt>
<totfact> 0.31729619E-01</totfact>
</mgrwt>
</event>
<event>
12    1  0.1549527E-007  0.1405247E+04  0.7818608E-02  0.8950029E-01
         -2   -1    0    0    0  501 -0.00000000000E+00  0.00000000000E+00  0.23625018856E+03  0.23625018856E+03  0.00000000000E+00 0. -1.
          2   -1    0    0  501    0  0.00000000000E+00 -0.00000000000E+00 -0.20896492855E+04  0.20896492855E+04  0.00000000000E+00 0.  1.
         23    2    1    2    0    0  0.30025270380E+03 -0.21504510219E+03 -0.26494110170E+03  0.46352538689E+03  0.90917076484E+02 0.  0.
        254    2    1    2    0    0 -0.30025270380E+03  0.21504510219E+03 -0.15884579952E+04  0.18623740872E+04  0.89935663441E+03 0.  0.
        -24    2    4    4    0    0 -0.41478714099E+03  0.17630123860E+03 -0.26055458125E+03  0.52657579100E+03  0.79138326959E+02 0.  0.
         24    2    4    4    0    0  0.11453443718E+03  0.38743863599E+02 -0.13279034140E+04  0.13357982962E+04  0.80064892112E+02 0.  0.
         13    1    3    3    0    0  0.24822169208E+03 -0.16680431260E+03 -0.25268877425E+03  0.39152177941E+03  0.00000000000E+00 0. -1.
        -13    1    3    3    0    0  0.52031011726E+02 -0.48240789594E+02 -0.12252327458E+02  0.72003607479E+02  0.00000000000E+00 0.  1.
          4    1    6    6  502    0  0.31432781579E+02 -0.12423443728E+02 -0.14548801743E+03  0.14936239462E+03  0.00000000000E+00 0. -1.
          3    1    5    5  503    0 -0.33470683590E+02  0.32869367019E+01 -0.43336509287E+02  0.54855661969E+02  0.00000000000E+00 0. -1.
         -4    1    5    5    0  503 -0.38131645740E+03  0.17301430189E+03 -0.21721807196E+03  0.47172012903E+03  0.00000000000E+00 0.  1.
         -3    1    6    6    0  502  0.83101655604E+02  0.51167307327E+02 -0.11824153966E+04  0.11864359016E+04  0.00000000000E+00 0.  1.
<mgrwt>
<rscale>  0 0.14052474E+04</rscale>
<asrwt>0</asrwt>
<pdfrwt beam="1">  1        2 0.32148451E+00 0.14052474E+04</pdfrwt>
<pdfrwt beam="2">  1       -2 0.36346182E-01 0.14052474E+04</pdfrwt>
<totfact> 0.41317814E+01</totfact>
</mgrwt>
</event>
<event>
12    1  0.1549527E-007  0.1050533E+04  0.7818608E-02  0.9254794E-01
          1   -1    0    0  501    0  0.00000000000E+00  0.00000000000E+00  0.18708338574E+04  0.18708338574E+04  0.00000000000E+00 0. -1.
         -1   -1    0    0    0  501 -0.00000000000E+00 -0.00000000000E+00 -0.14747682521E+03  0.14747682521E+03  0.00000000000E+00 0.  1.
         23    2    1    2    0    0  0.23530687079E+02 -0.13286826119E+02  0.44526928450E+03  0.45511224228E+03  0.90178624820E+02 0.  0.
        254    2    1    2    0    0 -0.23530687079E+02  0.13286826119E+02  0.12780877477E+04  0.15631984403E+04  0.89963928331E+03 0.  0.
        -24    2    4    4    0    0 -0.27794607871E+03  0.35858446579E+03  0.59255200832E+03  0.75062612011E+03  0.80528553010E+02 0.  0.
         24    2    4    4    0    0  0.25441539163E+03 -0.34529763967E+03  0.68553573938E+03  0.81257232023E+03  0.79730007979E+02 0.  0.
         13    1    3    3    0    0  0.13914217887E+02 -0.43609250948E+02  0.12239730930E+03  0.13067698172E+03  0.00000000000E+00 0.  1.
        -13    1    3    3    0    0  0.96164691921E+01  0.30322424829E+02  0.32287197520E+03  0.32443526056E+03  0.00000000000E+00 0. -1.
          2    1    6    6  502    0  0.23740152886E+03 -0.27689272820E+03  0.59401236100E+03  0.69705075414E+03  0.00000000000E+00 0. -1.
          1    1    5    5  503    0 -0.23274950540E+03  0.29526728764E+03  0.43532947410E+03  0.57521026976E+03  0.00000000000E+00 0. -1.
         -2    1    5    5    0  503 -0.45196573306E+02  0.63317178154E+02  0.15722253422E+03  0.17541585035E+03  0.00000000000E+00 0.  1.
         -1    1    6    6    0  502  0.17013862772E+02 -0.68404911477E+02  0.91523378382E+02  0.11552156609E+03  0.00000000000E+00 0.  1.
<mgrwt>
<rscale>  0 0.10505325E+04</rscale>
<asrwt>0</asrwt>
<pdfrwt beam="1">  1        1 0.28782058E+00 0.10505325E+04</pdfrwt>
<pdfrwt beam="2">  1       -1 0.22688744E-01 0.10505325E+04</pdfrwt>
<totfact> 0.60406903E+01</totfact>
</mgrwt>
</event>
<event>
12    1  0.1549527E-007  0.1758441E+04  0.7818608E-02  0.8728718E-01
          2   -1    0    0  501    0  0.00000000000E+00  0.00000000000E+00  0.37158082218E+04  0.37158082218E+04  0.00000000000E+00 0. -1.
         -2   -1    0    0    0  501 -0.00000000000E+00 -0.00000000000E+00 -0.20803783725E+03  0.20803783725E+03  0.00000000000E+00 0.  1.
         23    2    1    2    0    0  0.43642197296E+02 -0.63772399517E+03  0.14915673507E+04  0.16252923929E+04  0.90585128770E+02 0.  0.
        254    2    1    2    0    0 -0.43642197296E+02  0.63772399517E+03  0.20162030339E+04  0.22985536662E+04  0.89982095264E+03 0.  0.
        -24    2    4    4    0    0 -0.12950442522E+03  0.84859747577E+03  0.15968574118E+04  0.18150941982E+04  0.87887898583E+02 0.  0.
         24    2    4    4    0    0  0.85862227926E+02 -0.21087348060E+03  0.41934562213E+03  0.48345946796E+03  0.77732614465E+02 0.  0.
         11    1    3    3    0    0  0.29940619956E+02 -0.40653589623E+03  0.10567102506E+04  0.11326095662E+04  0.00000000000E+00 0. -1.
        -11    1    3    3    0    0  0.13701577340E+02 -0.23118809894E+03  0.43485710005E+03  0.49268282675E+03  0.00000000000E+00 0.  1.
          4    1    6    6  502    0  0.27006849102E+02 -0.15739063955E+03  0.25484531924E+03  0.30074460936E+03  0.00000000000E+00 0. -1.
          3    1    5    5  503    0 -0.12214621144E+03  0.83199949476E+03  0.15305554114E+04  0.17463512601E+04  0.00000000000E+00 0. -1.
         -2    1    5    5    0  503 -0.73582137864E+01  0.16597981008E+02  0.66302000446E+02  0.68742938160E+02  0.00000000000E+00 0.  1.
         -3    1    6    6    0  502  0.58855378824E+02 -0.53482841049E+02  0.16450030289E+03  0.18271485860E+03  0.00000000000E+00 0.  1.
<mgrwt>
<rscale>  0 0.17584410E+04</rscale>
<asrwt>0</asrwt>
<pdfrwt beam="1">  1        2 0.57166275E+00 0.17584410E+04</pdfrwt>
<pdfrwt beam="2">  1       -2 0.32005824E-01 0.17584410E+04</pdfrwt>
<totfact> 0.49439608E+00</totfact>
</mgrwt>
</event>
<event>
12    1  0.1549527E-007  0.1319806E+04  0.7818608E-02  0.9014005E-01
          1   -1    0    0  501    0  0.00000000000E+00  0.00000000000E+00  0.74250143126E+03  0.74250143126E+03  0.00000000000E+00 0. -1.
         -1   -1    0    0    0  501 -0.00000000000E+00 -0.00000000000E+00 -0.58649288382E+03  0.58649288382E+03  0.00000000000E+00 0.  1.
         23    2    1    2    0    0 -0.34152940750E+03  0.93871607775E+02  0.59786599438E+02  0.37059222276E+03  0.91158889667E+02 0.  0.
        254    2    1    2    0    0  0.34152940750E+03 -0.93871607775E+02  0.96221948003E+02  0.95840209233E+03  0.88533705015E+03 0.  0.
        -24    2    4    4    0    0 -0.26689075274E+03 -0.31525304945E+02  0.18325925143E+03  0.33546057032E+03  0.82008062134E+02 0.  0.
         24    2    4    4    0    0  0.60842016024E+03 -0.62346302829E+02 -0.87037303430E+02  0.62294152200E+03  0.80115509003E+02 0.  0.
         13    1    3    3    0    0 -0.22717811840E+03  0.10495038091E+03  0.50813571570E+02  0.25535563238E+03  0.00000000000E+00 0. -1.
        -13    1    3    3    0    0 -0.11435128910E+03 -0.11078773138E+02  0.89730278686E+01  0.11523659038E+03  0.00000000000E+00 0.  1.
          4    1    6    6  502    0  0.28155088960E+03 -0.36138041829E+02 -0.80117315179E+02  0.29495024274E+03  0.00000000000E+00 0. -1.
          3    1    5    5  503    0 -0.91512150558E+02  0.25959141690E+02  0.77865038068E+02  0.12292808829E+03  0.00000000000E+00 0. -1.
         -2    1    5    5    0  503 -0.17537860218E+03 -0.57484446635E+02  0.10539421337E+03  0.21253248203E+03  0.00000000000E+00 0.  1.
         -1    1    6    6    0  502  0.32686927064E+03 -0.26208261001E+02 -0.69199882506E+01  0.32799127926E+03  0.00000000000E+00 0.  1.
<mgrwt>
<rscale>  0 0.13198058E+04</rscale>
<asrwt>0</asrwt>
<pdfrwt beam="1">  1        1 0.11423099E+00 0.13198058E+04</pdfrwt>
<pdfrwt beam="2">  1       -1 0.90229675E-01 0.13198058E+04</pdfrwt>
<totfact> 0.29332487E+01</totfact>
</mgrwt>
</event>
<event>
12    1  0.1549527E-007  0.1975839E+04  0.7818608E-02  0.8618001E-01
         -2   -1    0    0    0  501 -0.00000000000E+00  0.00000000000E+00  0.30892970373E+03  0.30892970373E+03  0.00000000000E+00 0.  1.
          2   -1    0    0  501    0  0.00000000000E+00 -0.00000000000E+00 -0.31592470751E+04  0.31592470751E+04  0.00000000000E+00 0. -1.
         23    2    1    2    0    0  0.55255274977E+03 -0.14172853356E+03 -0.20664585389E+04  0.21456854253E+04  0.91178577011E+02 0.  0.
        254    2    1    2    0    0 -0.55255274977E+03  0.14172853356E+03 -0.78385883249E+03  0.13224913535E+04  0.89952609323E+03 0.  0.
        -24    2    4    4    0    0 -0.74668518408E+03  0.91083472038E+01 -0.36375367496E+03  0.83454660980E+03  0.80805827571E+02 0.  0.
         24    2    4    4    0    0  0.19413243431E+03  0.13262018636E+03 -0.42010515753E+03  0.48794474373E+03  0.79537498521E+02 0.  0.
         11    1    3    3    0    0  0.49436510153E+03 -0.96288638214E+02 -0.18204963467E+04  0.18888820249E+04  0.00000000000E+00 0. -1.
        -11    1    3    3    0    0  0.58187648246E+02 -0.45439895345E+02 -0.24596219214E+03  0.25680340040E+03  0.00000000000E+00 0.  1.
          2    1    6    6  502    0  0.58403559242E+02  0.58291010936E+01 -0.67792962654E+02  0.89670730660E+02  0.00000000000E+00 0. -1.
          3    1    5    5  503    0 -0.13274462032E+03 -0.24405769865E+02 -0.47169009828E+02  0.14297444287E+03  0.00000000000E+00 0. -1.
         -4    1    5    5    0  503 -0.61394056377E+03  0.33514117069E+02 -0.31658466513E+03  0.69157216693E+03  0.00000000000E+00 0.  1.
         -1    1    6    6    0  502  0.13572887507E+03  0.12679108526E+03 -0.35231219488E+03  0.39827401307E+03  0.00000000000E+00 0.  1.
<mgrwt>
<rscale>  0 0.19758393E+04</rscale>
<asrwt>0</asrwt>
<pdfrwt beam="1">  1        2 0.48603804E+00 0.19758393E+04</pdfrwt>
<pdfrwt beam="2">  1       -2 0.47527644E-01 0.19758393E+04</pdfrwt>
<totfact> 0.54015398E+00</totfact>
</mgrwt>
</event>
<event>
12    1  0.1549527E-007  0.1437595E+04  0.7818608E-02  0.8927046E-01
          1   -1    0    0  501    0  0.00000000000E+00  0.00000000000E+00  0.17149179500E+04  0.17149179500E+04  0.00000000000E+00 0.  1.
         -1   -1    0    0    0  501 -0.00000000000E+00 -0.00000000000E+00 -0.30127968698E+03  0.30127968698E+03  0.00000000000E+00 0. -1.
         23    2    1    2    0    0  0.34323544056E+03  0.23695595566E+03  0.57135862239E+03  0.71251981107E+03  0.85294274211E+02 0.  0.
        254    2    1    2    0    0 -0.34323544056E+03 -0.23695595566E+03  0.84227964065E+03  0.13036778259E+04  0.90342802047E+03 0.  0.
        -24    2    4    4    0    0 -0.42291798464E+03 -0.49570919331E+03  0.36831763091E+03  0.75303385275E+03  0.82552286966E+02 0.  0.
         24    2    4    4    0    0  0.79682544078E+02  0.25875323765E+03  0.47396200974E+03  0.55064397317E+03  0.72568951263E+02 0.  0.
         13    1    3    3    0    0  0.25374961835E+03  0.21522583584E+03  0.42776392640E+03  0.54193450338E+03  0.00000000000E+00 0.  1.
        -13    1    3    3    0    0  0.89485822218E+02  0.21730119822E+02  0.14359469599E+03  0.17058530769E+03  0.00000000000E+00 0. -1.
          2    1    6    6  502    0  0.74682380964E+02  0.19315739450E+03  0.40764252194E+03  0.45723042633E+03  0.00000000000E+00 0. -1.
          1    1    5    5  503    0 -0.24732450449E+03 -0.24656320878E+03  0.16207265808E+03  0.38500697778E+03  0.00000000000E+00 0. -1.
         -2    1    5    5    0  503 -0.17559348015E+03 -0.24914598453E+03  0.20624497284E+03  0.36802687497E+03  0.00000000000E+00 0.  1.
         -1    1    6    6    0  502  0.50001631147E+01  0.65595843153E+02  0.66319487806E+02  0.93413546839E+02  0.00000000000E+00 0.  1.
<mgrwt>
<rscale>  0 0.14375951E+04</rscale>
<asrwt>0</asrwt>
<pdfrwt beam="1">  1        1 0.26383352E+00 0.14375951E+04</pdfrwt>
<pdfrwt beam="2">  1       -1 0.46350722E-01 0.14375951E+04</pdfrwt>
<totfact> 0.20973034E+01</totfact>
</mgrwt>
</event>
<event>
12    1  0.1549527E-007  0.2648019E+04  0.7818608E-02  0.8352071E-01
         -2   -1    0    0    0  501 -0.00000000000E+00  0.00000000000E+00  0.13542850730E+04  0.13542850730E+04  0.00000000000E+00 0.  1.
          2   -1    0    0  501    0  0.00000000000E+00 -0.00000000000E+00 -0.12944109128E+04  0.12944109128E+04  0.00000000000E+00 0. -1.
         23    2    1    2    0    0 -0.44397680226E+03  0.92584460966E+03  0.58368473591E+03  0.11846073317E+04  0.91120892948E+02 0.  0.
        254    2    1    2    0    0  0.44397680226E+03 -0.92584460966E+03 -0.52381057576E+03  0.14640886541E+04  0.90270395234E+03 0.  0.
        -24    2    4    4    0    0  0.13703781353E+03 -0.28753752612E+03  0.24994504803E+03  0.41246628437E+03  0.78731934054E+02 0.  0.
         24    2    4    4    0    0  0.30693898873E+03 -0.63830708354E+03 -0.77375562379E+03  0.10516223697E+04  0.74594687798E+02 0.  0.
         11    1    3    3    0    0 -0.29804834637E+02  0.43317277866E+02  0.10215784430E+02  0.53563765560E+02  0.00000000000E+00 0. -1.
        -11    1    3    3    0    0 -0.41417196762E+03  0.88252733180E+03  0.57346895148E+03  0.11310435661E+04  0.00000000000E+00 0.  1.
          2    1    6    6  502    0  0.65759916020E+02 -0.20319385088E+03 -0.26009122932E+03  0.33654056986E+03  0.00000000000E+00 0. -1.
          1    1    5    5  503    0  0.14405139480E+03 -0.24577227154E+03  0.22728122192E+03  0.36443321424E+03  0.00000000000E+00 0. -1.
         -2    1    5    5    0  503 -0.70135812651E+01 -0.41765254576E+02  0.22663826109E+02  0.48033070128E+02  0.00000000000E+00 0.  1.
         -1    1    6    6    0  502  0.24117907271E+03 -0.43511323266E+03 -0.51366439448E+03  0.71508179987E+03  0.00000000000E+00 0.  1.
<mgrwt>
<rscale>  0 0.26480192E+04</rscale>
<asrwt>0</asrwt>
<pdfrwt beam="1">  1        2 0.19914014E+00 0.26480192E+04</pdfrwt>
<pdfrwt beam="2">  1       -2 0.20835155E+00 0.26480192E+04</pdfrwt>
<totfact> 0.17221051E+00</totfact>
</mgrwt>
</event>
<event>
12    1  0.1549527E-007  0.1181993E+04  0.7818608E-02  0.9128766E-01
         -1   -1    0    0    0  501 -0.00000000000E+00  0.00000000000E+00  0.30216399275E+03  0.30216399275E+03  0.00000000000E+00 0.  1.
          1   -1    0    0  501    0  0.00000000000E+00 -0.00000000000E+00 -0.11559182491E+04  0.11559182491E+04  0.00000000000E+00 0. -1.
         23    2    1    2    0    0  0.65119130510E+02 -0.18704027310E+03 -0.18295833804E+02  0.21834917648E+03  0.90094730239E+02 0.  0.
        254    2    1    2    0    0 -0.65119130510E+02  0.18704027310E+03 -0.83545842254E+03  0.12397330654E+04  0.89427218040E+03 0.  0.
        -24    2    4    4    0    0 -0.37695686853E+03 -0.14211130740E+03 -0.20527251969E+03  0.45916459685E+03  0.80020092706E+02 0.  0.
         24    2    4    4    0    0  0.31183773802E+03  0.32915158050E+03 -0.63018590285E+03  0.78056846851E+03  0.81051366990E+02 0.  0.
         13    1    3    3    0    0  0.45453628325E+02 -0.19189354314E+03 -0.14452366680E+02  0.19773223088E+03  0.00000000000E+00 0.  1.
        -13    1    3    3    0    0  0.19665502185E+02  0.48532700435E+01 -0.38434671246E+01  0.20616945599E+02  0.00000000000E+00 0. -1.
          4    1    6    6  502    0  0.27888732770E+03  0.28802619819E+03 -0.50538506256E+03  0.64509789479E+03  0.00000000000E+00 0. -1.
          3    1    5    5  503    0 -0.19773762324E+03 -0.41729715523E+02 -0.13048412152E+03  0.24055694289E+03  0.00000000000E+00 0. -1.
         -4    1    5    5    0  503 -0.17921924528E+03 -0.10038159188E+03 -0.74788398173E+02  0.21860765396E+03  0.00000000000E+00 0.  1.
         -3    1    6    6    0  502  0.32950410320E+02  0.41125382309E+02 -0.12480084028E+03  0.13547057373E+03  0.00000000000E+00 0.  1.
<mgrwt>
<rscale>  0 0.11819930E+04</rscale>
<asrwt>0</asrwt>
<pdfrwt beam="1">  1        1 0.17783358E+00 0.11819930E+04</pdfrwt>
<pdfrwt beam="2">  1       -1 0.46486768E-01 0.11819930E+04</pdfrwt>
<totfact> 0.52559674E+01</totfact>
</mgrwt>
</event>
<event>
12    1  0.1549527E-007  0.1109536E+04  0.7818608E-02  0.9195946E-01
         -2   -1    0    0    0  501 -0.00000000000E+00  0.00000000000E+00  0.32194858938E+03  0.32194858938E+03  0.00000000000E+00 0. -1.
          2   -1    0    0  501    0  0.00000000000E+00 -0.00000000000E+00 -0.95595327559E+03  0.95595327559E+03  0.00000000000E+00 0.  1.
         23    2    1    2    0    0 -0.12968234756E+03 -0.12698716771E+01 -0.25746104555E+03  0.30234367310E+03  0.91139359474E+02 0.  0.
        254    2    1    2    0    0  0.12968234756E+03  0.12698716771E+01 -0.37654364066E+03  0.97555819188E+03  0.89056698152E+03 0.  0.
        -24    2    4    4    0    0  0.23886916335E+03  0.13657648369E+03  0.21191269301E+03  0.35672388467E+03  0.81445241338E+02 0.  0.
         24    2    4    4    0    0 -0.10918681580E+03 -0.13530661201E+03 -0.58845633367E+03  0.61883430721E+03  0.80283268160E+02 0.  0.
         13    1    3    3    0    0 -0.32379966163E+02  0.36637185060E+02 -0.12104292958E+03  0.13054553359E+03  0.00000000000E+00 0. -1.
        -13    1    3    3    0    0 -0.97302381393E+02 -0.37907056737E+02 -0.13641811597E+03  0.17179813951E+03  0.00000000000E+00 0.  1.
          2    1    6    6  502    0 -0.19456571368E+02  0.81455099228E+01 -0.90128722617E+02  0.92564000248E+02  0.00000000000E+00 0. -1.
          3    1    5    5  503    0  0.21527209234E+01 -0.88061429258E+01  0.51427512786E+01  0.10422583716E+02  0.00000000000E+00 0. -1.
         -4    1    5    5    0  503  0.23671644243E+03  0.14538262662E+03  0.20676994173E+03  0.34630130095E+03  0.00000000000E+00 0.  1.
         -1    1    6    6    0  502 -0.89730244429E+02 -0.14345212194E+03 -0.49832761105E+03  0.52627030696E+03  0.00000000000E+00 0.  1.
<mgrwt>
<rscale>  0 0.11095365E+04</rscale>
<asrwt>0</asrwt>
<pdfrwt beam="1">  1        2 0.14706974E+00 0.11095365E+04</pdfrwt>
<pdfrwt beam="2">  1       -2 0.49530552E-01 0.11095365E+04</pdfrwt>
<totfact> 0.10298075E+02</totfact>
</mgrwt>
</event>
<event>
12    1  0.1549527E-007  0.1580198E+04  0.7818608E-02  0.8832806E-01
         -3   -1    0    0    0  501 -0.00000000000E+00  0.00000000000E+00  0.31641610459E+03  0.31641610459E+03  0.00000000000E+00 0.  1.
          3   -1    0    0  501    0  0.00000000000E+00 -0.00000000000E+00 -0.19728983886E+04  0.19728983886E+04  0.00000000000E+00 0. -1.
         23    2    1    2    0    0  0.98152176058E+01 -0.93400978086E+02 -0.13219457326E+04  0.13285636849E+04  0.93385563760E+02 0.  0.
        254    2    1    2    0    0 -0.98152176058E+01  0.93400978086E+02 -0.33453655134E+03  0.96075080828E+03  0.89571609912E+03 0.  0.
        -24    2    4    4    0    0  0.33009035411E+03  0.31070655228E+03 -0.29645303591E+03  0.54775311650E+03  0.81552870172E+02 0.  0.
         24    2    4    4    0    0 -0.33990557171E+03 -0.21730557419E+03 -0.38083515428E+02  0.41299769178E+03  0.79744774178E+02 0.  0.
         13    1    3    3    0    0 -0.34297445857E+02 -0.36481363290E+02 -0.30606737554E+03  0.31013616853E+03  0.00000000000E+00 0.  1.
        -13    1    3    3    0    0  0.44112663463E+02 -0.56919614796E+02 -0.10158783571E+04  0.10184275164E+04  0.00000000000E+00 0. -1.
          2    1    6    6  502    0 -0.19395179934E+03 -0.11124495480E+03  0.17326148697E+02  0.22426086565E+03  0.00000000000E+00 0. -1.
          1    1    5    5  503    0  0.12661654492E+02  0.22734294155E+02 -0.41740338906E+02  0.49187615486E+02  0.00000000000E+00 0. -1.
         -2    1    5    5    0  503  0.31742869961E+03  0.28797225813E+03 -0.25471269701E+03  0.49856550102E+03  0.00000000000E+00 0.  1.
         -3    1    6    6    0  502 -0.14595377237E+03 -0.10606061940E+03 -0.55409664125E+02  0.18873682612E+03  0.00000000000E+00 0.  1.
<mgrwt>
<rscale>  0 0.15801985E+04</rscale>
<asrwt>0</asrwt>
<pdfrwt beam="1">  1        3 0.30352283E+00 0.15801985E+04</pdfrwt>
<pdfrwt beam="2">  1       -3 0.48679401E-01 0.15801985E+04</pdfrwt>
<totfact> 0.39141875E-01</totfact>
</mgrwt>
</event>
<event>
12    1  0.1549527E-007  0.2371902E+04  0.7818608E-02  0.8450098E-01
          1   -1    0    0  501    0  0.00000000000E+00  0.00000000000E+00  0.16040380411E+04  0.16040380411E+04  0.00000000000E+00 0. -1.
         -1   -1    0    0    0  501 -0.00000000000E+00 -0.00000000000E+00 -0.87683728603E+03  0.87683728603E+03  0.00000000000E+00 0.  1.
         23    2    1    2    0    0  0.81883531872E+03  0.44888700358E+03 -0.97886527369E+02  0.94322039786E+03  0.89956242265E+02 0.  0.
        254    2    1    2    0    0 -0.81883531872E+03 -0.44888700358E+03  0.82508728246E+03  0.15376549293E+04  0.90090112484E+03 0.  0.
        -24    2    4    4    0    0 -0.36496731190E+03  0.12231991935E+03 -0.48993430442E+02  0.39653158953E+03  0.81692373254E+02 0.  0.
         24    2    4    4    0    0 -0.45386800682E+03 -0.57120692293E+03  0.87408071290E+03  0.11411233398E+04  0.76628111422E+02 0.  0.
         11    1    3    3    0    0  0.81142618907E+03  0.44838469763E+03 -0.10492323496E+03  0.93298991560E+03  0.00000000000E+00 0.  1.
        -11    1    3    3    0    0  0.74091296560E+01  0.50230595239E+00  0.70367075932E+01  0.10230482260E+02  0.00000000000E+00 0. -1.
          2    1    6    6  502    0 -0.45680122271E+03 -0.56513216516E+03  0.86345591162E+03  0.11285379181E+04  0.00000000000E+00 0. -1.
          1    1    5    5  503    0 -0.23153678792E+03  0.11572836362E+03 -0.18539547530E+02  0.25951118113E+03  0.00000000000E+00 0. -1.
         -2    1    5    5    0  503 -0.13343052398E+03  0.65915557287E+01 -0.30453882912E+02  0.13702040841E+03  0.00000000000E+00 0.  1.
         -1    1    6    6    0  502  0.29332158833E+01 -0.60747577682E+01  0.10624801279E+02  0.12585421709E+02  0.00000000000E+00 0.  1.
<mgrwt>
<rscale>  0 0.23719025E+04</rscale>
<asrwt>0</asrwt>
<pdfrwt beam="1">  1        1 0.24677508E+00 0.23719025E+04</pdfrwt>
<pdfrwt beam="2">  1       -1 0.13489804E+00 0.23719025E+04</pdfrwt>
<totfact> 0.22987434E+00</totfact>
</mgrwt>
</event>
<event>
12    1  0.1549527E-007  0.3738138E+04  0.7818608E-02  0.8059562E-01
          1   -1    0    0  501    0  0.00000000000E+00  0.00000000000E+00  0.26807267289E+04  0.26807267289E+04  0.00000000000E+00 0. -1.
         -1   -1    0    0    0  501 -0.00000000000E+00 -0.00000000000E+00 -0.13031613420E+04  0.13031613420E+04  0.00000000000E+00 0.  1.
         23    2    1    2    0    0  0.35635343028E+03 -0.91770839908E+03 -0.90522840875E+03  0.13402983383E+04  0.88230893377E+02 0.  0.
        254    2    1    2    0    0 -0.35635343028E+03  0.91770839908E+03  0.22827937956E+04  0.26435897326E+04  0.89902318537E+03 0.  0.
        -24    2    4    4    0    0 -0.31712491959E+03 -0.70875703748E+02  0.46513059509E+03  0.57259838752E+03  0.77012095794E+02 0.  0.
         24    2    4    4    0    0 -0.39228510686E+02  0.98858410283E+03  0.18176632006E+04  0.20709913451E+04  0.79172193857E+02 0.  0.
         11    1    3    3    0    0  0.93928832813E+02 -0.35496674712E+03 -0.32031692804E+03  0.48726476538E+03  0.00000000000E+00 0. -1.
        -11    1    3    3    0    0  0.26242459747E+03 -0.56274165197E+03 -0.58491148071E+03  0.85303357289E+03  0.00000000000E+00 0.  1.
          2    1    6    6  502    0  0.40318240376E+01  0.37114504816E+03  0.61272543373E+03  0.71637794460E+03  0.00000000000E+00 0. -1.
          1    1    5    5  503    0 -0.21437462708E+03 -0.34363271097E+02  0.36425015480E+03  0.42404656632E+03  0.00000000000E+00 0. -1.
         -2    1    5    5    0  503 -0.10275029252E+03 -0.36512432652E+02  0.10088044029E+03  0.14855182120E+03  0.00000000000E+00 0.  1.
         -1    1    6    6    0  502 -0.43260334723E+02  0.61743905467E+03  0.12049377668E+04  0.13546134005E+04  0.00000000000E+00 0.  1.
<mgrwt>
<rscale>  0 0.37381383E+04</rscale>
<asrwt>0</asrwt>
<pdfrwt beam="1">  1        1 0.41241950E+00 0.37381383E+04</pdfrwt>
<pdfrwt beam="2">  1       -1 0.20048636E+00 0.37381383E+04</pdfrwt>
<totfact> 0.12092201E-01</totfact>
</mgrwt>
</event>
<event>
12    1  0.1549527E-007  0.1231114E+04  0.7818608E-02  0.9086050E-01
          1   -1    0    0  501    0  0.00000000000E+00  0.00000000000E+00  0.44457079339E+03  0.44457079339E+03  0.00000000000E+00 0. -1.
         -1   -1    0    0    0  501 -0.00000000000E+00 -0.00000000000E+00 -0.85230605015E+03  0.85230605015E+03  0.00000000000E+00 0.  1.
         23    2    1    2    0    0 -0.62921105676E+02  0.16932039897E+03 -0.32006401144E+03  0.37872389457E+03  0.91445906702E+02 0.  0.
        254    2    1    2    0    0  0.62921105676E+02 -0.16932039897E+03 -0.87671245319E+02  0.91815294897E+03  0.89592975584E+03 0.  0.
        -24    2    4    4    0    0 -0.11873292718E+03 -0.50200505079E+03 -0.40034679110E+01  0.52297373954E+03  0.85900672173E+02 0.  0.
         24    2    4    4    0    0  0.18165403285E+03  0.33268465182E+03 -0.83667777408E+02  0.39517920943E+03  0.74088092056E+02 0.  0.
         13    1    3    3    0    0  0.12143817972E+02  0.66379657672E+02 -0.16346268292E+03  0.17684394243E+03  0.00000000000E+00 0. -1.
        -13    1    3    3    0    0 -0.75064923648E+02  0.10294074130E+03 -0.15660132853E+03  0.20187995214E+03  0.00000000000E+00 0.  1.
          4    1    6    6  502    0  0.90250469041E+02  0.11515665853E+03 -0.59677424615E+02  0.15801138622E+03  0.00000000000E+00 0. -1.
          3    1    5    5  503    0 -0.59495323791E+01 -0.63754829594E+02  0.26761504866E+02  0.69399231802E+02  0.00000000000E+00 0. -1.
         -4    1    5    5    0  503 -0.11278339480E+03 -0.43825022119E+03 -0.30764972777E+02  0.45357450774E+03  0.00000000000E+00 0.  1.
         -3    1    6    6    0  502  0.91403563812E+02  0.21752799329E+03 -0.23990352793E+02  0.23716782321E+03  0.00000000000E+00 0.  1.
<mgrwt>
<rscale>  0 0.12311139E+04</rscale>
<asrwt>0</asrwt>
<pdfrwt beam="1">  1        1 0.68395506E-01 0.12311139E+04</pdfrwt>
<pdfrwt beam="2">  1       -1 0.13112401E+00 0.12311139E+04</pdfrwt>
<totfact> 0.25513485E+01</totfact>
</mgrwt>
</event>
<event>
12    1  0.1549527E-007  0.2017304E+04  0.7818608E-02  0.8598573E-01
          2   -1    0    0  501    0  0.00000000000E+00  0.00000000000E+00  0.95825877220E+03  0.95825877220E+03  0.00000000000E+00 0. -1.
         -2   -1    0    0    0  501 -0.00000000000E+00 -0.00000000000E+00 -0.10616948369E+04  0.10616948369E+04  0.00000000000E+00 0.  1.
         23    2    1    2    0    0  0.52795460682E+03  0.60066515776E+03  0.19204225670E+02  0.80534326285E+03  0.93135761755E+02 0.  0.
        254    2    1    2    0    0 -0.52795460682E+03 -0.60066515776E+03 -0.12264029037E+03  0.12146103463E+04  0.90592657196E+03 0.  0.
        -24    2    4    4    0    0 -0.26886568844E+03 -0.36895291273E+03 -0.50947172604E+03  0.68850893915E+03  0.77898070733E+02 0.  0.
         24    2    4    4    0    0 -0.25908891838E+03 -0.23171224504E+03  0.38683143567E+03  0.52610140710E+03  0.79539290942E+02 0.  0.
         11    1    3    3    0    0  0.86630330730E+02  0.53446743806E+02  0.99743788072E+01  0.10227833035E+03  0.00000000000E+00 0. -1.
        -11    1    3    3    0    0  0.44132427609E+03  0.54721841396E+03  0.92298468629E+01  0.70306493250E+03  0.00000000000E+00 0.  1.
          4    1    6    6  502    0 -0.23524464408E+03 -0.23406227549E+03  0.36873674893E+03  0.49607658823E+03  0.00000000000E+00 0. -1.
          1    1    5    5  503    0 -0.27323424616E+03 -0.36830416885E+03 -0.50599756788E+03  0.68288978084E+03  0.00000000000E+00 0. -1.
         -2    1    5    5    0  503  0.43685577249E+01 -0.64874387459E+00 -0.34741581581E+01  0.56191583105E+01  0.00000000000E+00 0.  1.
         -3    1    6    6    0  502 -0.23844274299E+02  0.23500304585E+01  0.18094686743E+02  0.30024818873E+02  0.00000000000E+00 0.  1.
<mgrwt>
<rscale>  0 0.20173035E+04</rscale>
<asrwt>0</asrwt>
<pdfrwt beam="1">  1        2 0.14742443E+00 0.20173035E+04</pdfrwt>
<pdfrwt beam="2">  1       -2 0.16333767E+00 0.20173035E+04</pdfrwt>
<totfact> 0.59204923E+00</totfact>
</mgrwt>
</event>
<event>
12    1  0.1549527E-007  0.1772768E+04  0.7818608E-02  0.8720917E-01
         -2   -1    0    0    0  501 -0.00000000000E+00  0.00000000000E+00  0.12166003082E+04  0.12166003082E+04  0.00000000000E+00 0. -1.
          2   -1    0    0  501    0  0.00000000000E+00 -0.00000000000E+00 -0.64579655025E+03  0.64579655025E+03  0.00000000000E+00 0.  1.
         23    2    1    2    0    0 -0.12036600521E+02  0.58814037513E+03 -0.26166848396E+02  0.59582815906E+03  0.90953342813E+02 0.  0.
        254    2    1    2    0    0  0.12036600521E+02 -0.58814037513E+03  0.59697060632E+03  0.12665686994E+04  0.94961486130E+03 0.  0.
        -24    2    4    4    0    0  0.16058063147E+03 -0.66394221320E+03  0.50233577625E+02  0.68947823736E+03  0.79065958513E+02 0.  0.
         24    2    4    4    0    0 -0.14854403095E+03  0.75801838077E+02  0.54673702870E+03  0.57709046201E+03  0.79377421248E+02 0.  0.
         13    1    3    3    0    0 -0.43898131532E+02  0.48812328498E+03 -0.27294434521E+02  0.49085270035E+03  0.00000000000E+00 0. -1.
        -13    1    3    3    0    0  0.31861531011E+02  0.10001709015E+03  0.11275861252E+01  0.10497545871E+03  0.00000000000E+00 0.  1.
          4    1    6    6  502    0 -0.15644107989E+03  0.76936968496E+02  0.53648158811E+03  0.56409715740E+03  0.00000000000E+00 0. -1.
          1    1    5    5  503    0  0.16794027019E+03 -0.60371022236E+03  0.39694156823E+02  0.62788979369E+03  0.00000000000E+00 0. -1.
         -2    1    5    5    0  503 -0.73596387178E+01 -0.60231990843E+02  0.10539420802E+02  0.61588443671E+02  0.00000000000E+00 0.  1.
         -3    1    6    6    0  502  0.78970489441E+01 -0.11351304190E+01  0.10255440584E+02  0.12993304609E+02  0.00000000000E+00 0.  1.
<mgrwt>
<rscale>  0 0.17727676E+04</rscale>
<asrwt>0</asrwt>
<pdfrwt beam="1">  1        2 0.99353315E-01 0.17727676E+04</pdfrwt>
<pdfrwt beam="2">  1       -2 0.18716928E+00 0.17727676E+04</pdfrwt>
<totfact> 0.69397630E+00</totfact>
</mgrwt>
</event>
<event>
12    1  0.1549527E-007  0.1370116E+04  0.7818608E-02  0.8975739E-01
         -2   -1    0    0    0  501 -0.00000000000E+00  0.00000000000E+00  0.56760452995E+03  0.56760452995E+03  0.00000000000E+00 0.  1.
          2   -1    0    0  501    0  0.00000000000E+00 -0.00000000000E+00 -0.82681558944E+03  0.82681558944E+03  0.00000000000E+00 0. -1.
         23    2    1    2    0    0  0.32278220895E+03 -0.11302685147E+03  0.89532036858E+02  0.36796419412E+03  0.10206977497E+03 0.  0.
        254    2    1    2    0    0 -0.32278220895E+03  0.11302685147E+03 -0.34874309635E+03  0.10264559253E+04  0.90278823413E+03 0.  0.
        -24    2    4    4    0    0  0.29834338944E+03  0.41606892305E+02 -0.22360692014E+03  0.38398876857E+03  0.81898767660E+02 0.  0.
         24    2    4    4    0    0 -0.62112559840E+03  0.71419959169E+02 -0.12513617621E+03  0.64246715669E+03  0.78785565150E+02 0.  0.
         11    1    3    3    0    0  0.30320745806E+02  0.27211187504E+01 -0.18228917444E+02  0.35483031785E+02  0.00000000000E+00 0. -1.
        -11    1    3    3    0    0  0.29246146315E+03 -0.11574797022E+03  0.10776095430E+03  0.33248116234E+03  0.00000000000E+00 0.  1.
          2    1    6    6  502    0 -0.15061895074E+03  0.17532414488E-01 -0.88939934108E+00  0.15062157767E+03  0.00000000000E+00 0. -1.
          3    1    5    5  503    0  0.32227783094E+02  0.24892670109E+02 -0.55289307496E+02  0.68667186863E+02  0.00000000000E+00 0. -1.
         -2    1    5    5    0  503  0.26611560635E+03  0.16714222196E+02 -0.16831761265E+03  0.31532158171E+03  0.00000000000E+00 0.  1.
         -1    1    6    6    0  502 -0.47050664766E+03  0.71402426755E+02 -0.12424677687E+03  0.49184557902E+03  0.00000000000E+00 0.  1.
<mgrwt>
<rscale>  0 0.13701157E+04</rscale>
<asrwt>0</asrwt>
<pdfrwt beam="1">  1        2 0.12720240E+00 0.13701157E+04</pdfrwt>
<pdfrwt beam="2">  1       -2 0.87323774E-01 0.13701157E+04</pdfrwt>
<totfact> 0.36426634E+01</totfact>
</mgrwt>
</event>
